<event>
 8    1  0.1086235E+005  0.1043930E+01  0.7957747E-01            NaN
         13   -1    0    0    0    0  0.00000000000E+00  0.00000000000E+00  0.74505805969E-08  0.10566000000E+00  0.10566000000E+00 0. -1.
     999900   -1    0    0    0    0 -0.00000000000E+00 -0.00000000000E+00 -0.74505805969E-08  0.93827000000E+00  0.93827000000E+00 0. -1.
     999902    2    1    2    0    0  0.61378352132E-02 -0.23396315791E-01  0.53681153650E-03  0.10197360177E+01  0.10194489673E+01 0.  0.
     999903    2    3    3    0    0 -0.64628841146E-01 -0.99957531163E-01 -0.53366044906E-01  0.13194377841E+00  0.19819958834E-01 0.  0.
         14    1    1    2    0    0 -0.61378352132E-02  0.23396315791E-01 -0.53681153650E-03  0.24193982316E-01  0.00000000000E+00 0.  1.
     999901    1    3    3    0    0  0.70766676359E-01  0.76561215372E-01  0.53902856442E-01  0.88779223927E+00  0.88000000000E+00 0. -1.
        -11    1    4    4    0    0 -0.19010604030E-01 -0.46905068534E-01 -0.19950190410E-01  0.54403673940E-01  0.51100000000E-03 0.  1.
         11    1    4    4    0    0 -0.45618237116E-01 -0.53052462629E-01 -0.33415854495E-01  0.77540104470E-01  0.51100000000E-03 0. -1.
</event>
<event>
 8    1  0.1086235E+005  0.1043930E+01  0.7957747E-01            NaN
         13   -1    0    0    0    0  0.00000000000E+00  0.00000000000E+00  0.74505805969E-08  0.10566000000E+00  0.10566000000E+00 0. -1.
     999900   -1    0    0    0    0 -0.00000000000E+00 -0.00000000000E+00 -0.74505805969E-08  0.93827000000E+00  0.93827000000E+00 0. -1.
     999902    2    1    2    0    0  0.60698218548E-02  0.19435495624E-01 -0.11880008220E-01  0.10203563744E+01  0.10200840235E+01 0.  0.
     999903    2    3    3    0    0  0.83859342396E-01 -0.71725092081E-01  0.63802713596E-01  0.12901506121E+00  0.19930419365E-01 0.  0.
         14    1    1    2    0    0 -0.60698218548E-02 -0.19435495624E-01  0.11880008220E-01  0.23573625576E-01  0.00000000000E+00 0. -1.
     999901    1    3    3    0    0 -0.77789520542E-01  0.91160587705E-01 -0.75682721816E-01  0.89134131321E+00  0.88000000000E+00 0. -1.
        -11    1    4    4    0    0  0.51162679857E-01 -0.51003463377E-01  0.32446226529E-01  0.79195907871E-01  0.51100000000E-03 0. -1.
         11    1    4    4    0    0  0.32696662540E-01 -0.20721628704E-01  0.31356487067E-01  0.49819153340E-01  0.51100000000E-03 0.  1.
</event>
<event>
 8    1  0.1086235E+005  0.1043930E+01  0.7957747E-01            NaN
         13   -1    0    0    0    0  0.00000000000E+00  0.00000000000E+00  0.74505805969E-08  0.10566000000E+00  0.10566000000E+00 0.  1.
     999900   -1    0    0    0    0 -0.00000000000E+00 -0.00000000000E+00 -0.74505805969E-08  0.93827000000E+00  0.93827000000E+00 0. -1.
     999902    2    1    2    0    0  0.10819620519E-01 -0.77438706949E-02  0.21188637376E-01  0.10189102063E+01  0.10186029739E+01 0.  0.
     999903    2    3    3    0    0  0.22898628964E-01  0.88712983832E-01 -0.85962204612E-01  0.12709681208E+00  0.19229100587E-01 0.  0.
         14    1    1    2    0    0 -0.10819620519E-01  0.77438706949E-02 -0.21188637376E-01  0.25019793671E-01  0.00000000000E+00 0. -1.
     999901    1    3    3    0    0 -0.12079008445E-01 -0.96456854527E-01  0.10715084199E+00  0.89181339425E+00  0.88000000000E+00 0.  1.
        -11    1    4    4    0    0  0.18901655189E-02  0.29736180446E-01 -0.37639994642E-01  0.48008785351E-01  0.51100000000E-03 0.  1.
         11    1    4    4    0    0  0.21008463445E-01  0.58976803386E-01 -0.48322209970E-01  0.79088026725E-01  0.51100000000E-03 0. -1.
</event>
<event>
 8    1  0.1086235E+005  0.1043930E+01  0.7957747E-01            NaN
         13   -1    0    0    0    0  0.00000000000E+00  0.00000000000E+00  0.74505805969E-08  0.10566000000E+00  0.10566000000E+00 0. -1.
     999900   -1    0    0    0    0 -0.00000000000E+00 -0.00000000000E+00 -0.74505805969E-08  0.93827000000E+00  0.93827000000E+00 0. -1.
     999902    2    1    2    0    0  0.66253729411E-02 -0.21493229657E-01 -0.90077584519E-02  0.10197020368E+01  0.10194141698E+01 0.  0.
     999903    2    3    3    0    0  0.61815748285E-01  0.10669090025E+00  0.28754185488E-01  0.12790435062E+00  0.18126907964E-01 0.  0.
         14    1    1    2    0    0 -0.66253729411E-02  0.21493229657E-01  0.90077584519E-02  0.24227963183E-01  0.00000000000E+00 0. -1.
     999901    1    3    3    0    0 -0.55190375344E-01 -0.12818412991E+00 -0.37761943940E-01  0.89179768619E+00  0.88000000000E+00 0. -1.
        -11    1    4    4    0    0  0.17781273033E-01  0.35818642903E-01  0.17704524853E-01  0.43736256943E-01  0.51100000000E-03 0.  1.
         11    1    4    4    0    0  0.44034475252E-01  0.70872257350E-01  0.11049660635E-01  0.84168093680E-01  0.51100000000E-03 0. -1.
</event>
<event>
 8    1  0.1086235E+005  0.1043930E+01  0.7957747E-01            NaN
         13   -1    0    0    0    0  0.00000000000E+00  0.00000000000E+00  0.74505805969E-08  0.10566000000E+00  0.10566000000E+00 0. -1.
     999900   -1    0    0    0    0 -0.00000000000E+00 -0.00000000000E+00 -0.74505805969E-08  0.93827000000E+00  0.93827000000E+00 0. -1.
     999902    2    1    2    0    0  0.38578242078E-02  0.87000194833E-02 -0.22192090290E-01  0.10197833228E+01  0.10194974073E+01 0.  0.
     999903    2    3    3    0    0  0.10931026294E+00  0.43238157457E-02  0.65808563951E-01  0.12911869283E+00  0.19324616010E-01 0.  0.
         14    1    1    2    0    0 -0.38578242078E-02 -0.87000194833E-02  0.22192090290E-01  0.24146677164E-01  0.00000000000E+00 0. -1.
     999901    1    3    3    0    0 -0.10545243873E+00  0.43762037376E-02 -0.88000654240E-01  0.89066463000E+00  0.88000000000E+00 0.  1.
        -11    1    4    4    0    0  0.35053461999E-01  0.96457802042E-02  0.17344141969E-01  0.40284819169E-01  0.51100000000E-03 0. -1.
         11    1    4    4    0    0  0.74256800937E-01 -0.53219644585E-02  0.48464421982E-01  0.88833873664E-01  0.51100000000E-03 0.  1.
</event>
<event>
 8    1  0.1086235E+005  0.1043930E+01  0.7957747E-01            NaN
         13   -1    0    0    0    0  0.00000000000E+00  0.00000000000E+00  0.74505805969E-08  0.10566000000E+00  0.10566000000E+00 0. -1.
     999900   -1    0    0    0    0 -0.00000000000E+00 -0.00000000000E+00 -0.74505805969E-08  0.93827000000E+00  0.93827000000E+00 0.  1.
     999902    2    1    2    0    0 -0.99644420495E-02  0.15566575902E-01 -0.14417753177E-01  0.10204890103E+01  0.10202197509E+01 0.  0.
     999903    2    3    3    0    0 -0.44482180041E-01  0.11940243043E+00 -0.34190779987E-01  0.13349164194E+00  0.20381469448E-01 0.  0.
         14    1    1    2    0    0  0.99644420495E-02 -0.15566575902E-01  0.14417753177E-01  0.23440989684E-01  0.00000000000E+00 0. -1.
     999901    1    3    3    0    0  0.34517737991E-01 -0.10383585453E+00  0.19773026809E-01  0.88699736838E+00  0.88000000000E+00 0. -1.
        -11    1    4    4    0    0 -0.21349912599E-01  0.82895746629E-01 -0.19064942245E-01  0.87699810268E-01  0.51100000000E-03 0.  1.
         11    1    4    4    0    0 -0.23132267442E-01  0.36506683802E-01 -0.15125837742E-01  0.45791831670E-01  0.51100000000E-03 0. -1.
</event>
<event>
 8    1  0.1086235E+005  0.1043930E+01  0.7957747E-01            NaN
         13   -1    0    0    0    0  0.00000000000E+00  0.00000000000E+00  0.74505805969E-08  0.10566000000E+00  0.10566000000E+00 0. -1.
     999900   -1    0    0    0    0 -0.00000000000E+00 -0.00000000000E+00 -0.74505805969E-08  0.93827000000E+00  0.93827000000E+00 0.  1.
     999902    2    1    2    0    0 -0.21932917174E-01 -0.67561709767E-02  0.48322630852E-02  0.10204768666E+01  0.10202073249E+01 0.  0.
     999903    2    3    3    0    0  0.10806276987E+00 -0.17375867046E-01  0.64965392456E-01  0.12883363642E+00  0.19952961388E-01 0.  0.
         14    1    1    2    0    0  0.21932917174E-01  0.67561709767E-02 -0.48322630852E-02  0.23453133449E-01  0.00000000000E+00 0. -1.
     999901    1    3    3    0    0 -0.12999568704E+00  0.10619696069E-01 -0.60133129370E-01  0.89164323013E+00  0.88000000000E+00 0. -1.
        -11    1    4    4    0    0  0.25289765453E-01 -0.11408895906E-01  0.21810814012E-01  0.35294586997E-01  0.51100000000E-03 0. -1.
         11    1    4    4    0    0  0.82773004417E-01 -0.59669711399E-02  0.43154578443E-01  0.93539049420E-01  0.51100000000E-03 0.  1.
</event>
<event>
 8    1  0.1086235E+005  0.1043930E+01  0.7957747E-01            NaN
         13   -1    0    0    0    0  0.00000000000E+00  0.00000000000E+00  0.74505805969E-08  0.10566000000E+00  0.10566000000E+00 0.  1.
     999900   -1    0    0    0    0 -0.00000000000E+00 -0.00000000000E+00 -0.74505805969E-08  0.93827000000E+00  0.93827000000E+00 0. -1.
     999902    2    1    2    0    0  0.19821764622E-01 -0.42744772793E-02 -0.86762909371E-02  0.10218743537E+01  0.10216363067E+01 0.  0.
     999903    2    3    3    0    0 -0.11664773374E+00  0.39792771398E-01  0.27765799483E-01  0.12952135610E+00  0.28542663204E-01 0.  0.
         14    1    1    2    0    0 -0.19821764622E-01  0.42744772793E-02  0.86762909371E-02  0.22055646288E-01  0.00000000000E+00 0. -1.
     999901    1    3    3    0    0  0.13646949836E+00 -0.44067248677E-01 -0.36442090420E-01  0.89235299761E+00  0.88000000000E+00 0. -1.
        -11    1    4    4    0    0 -0.41621741112E-01  0.24645878532E-01  0.20823905266E-01  0.52665784085E-01  0.51100000000E-03 0. -1.
         11    1    4    4    0    0 -0.75025992631E-01  0.15146892866E-01  0.69418942170E-02  0.76855572017E-01  0.51100000000E-03 0.  1.
</event>
<event>
 8    1  0.1086235E+005  0.1043930E+01  0.7957747E-01            NaN
         13   -1    0    0    0    0  0.00000000000E+00  0.00000000000E+00  0.74505805969E-08  0.10566000000E+00  0.10566000000E+00 0.  1.
     999900   -1    0    0    0    0 -0.00000000000E+00 -0.00000000000E+00 -0.74505805969E-08  0.93827000000E+00  0.93827000000E+00 0.  1.
     999902    2    1    2    0    0 -0.22171828860E-01  0.89591279994E-02  0.48309398314E-02  0.10195334029E+01  0.10192414659E+01 0.  0.
     999903    2    3    3    0    0  0.24637478260E-01  0.11390562359E-01  0.12564648819E+00  0.13004286343E+00  0.19681363998E-01 0.  0.
         14    1    1    2    0    0  0.22171828860E-01 -0.89591279994E-02 -0.48309398314E-02  0.24396597082E-01  0.00000000000E+00 0.  1.
     999901    1    3    3    0    0 -0.46809307121E-01 -0.24314343594E-02 -0.12081554836E+00  0.88949053948E+00  0.88000000000E+00 0.  1.
        -11    1    4    4    0    0  0.23978469292E-01  0.19644433037E-02  0.89852995045E-01  0.93019610119E-01  0.51100000000E-03 0. -1.
         11    1    4    4    0    0  0.65900896872E-03  0.94261190552E-02  0.35793493148E-01  0.37023253315E-01  0.51100000000E-03 0.  1.
</event>
<event>
 8    1  0.1086235E+005  0.1043930E+01  0.7957747E-01            NaN
         13   -1    0    0    0    0  0.00000000000E+00  0.00000000000E+00  0.74505805969E-08  0.10566000000E+00  0.10566000000E+00 0.  1.
     999900   -1    0    0    0    0 -0.00000000000E+00 -0.00000000000E+00 -0.74505805969E-08  0.93827000000E+00  0.93827000000E+00 0.  1.
     999902    2    1    2    0    0 -0.82125665493E-02  0.14670081395E-01 -0.16229453819E-01  0.10205622293E+01  0.10202946688E+01 0.  0.
     999903    2    3    3    0    0  0.45737190761E-02 -0.39972148565E-01  0.12016903847E+00  0.12828771373E+00  0.19961165249E-01 0.  0.
         14    1    1    2    0    0  0.82125665493E-02 -0.14670081395E-01  0.16229453819E-01  0.23367770727E-01  0.00000000000E+00 0.  1.
     999901    1    3    3    0    0 -0.12786285625E-01  0.54642229960E-01 -0.13639849229E+00  0.89227451555E+00  0.88000000000E+00 0.  1.
        -11    1    4    4    0    0  0.84693920769E-02 -0.30746301666E-01  0.10749115875E+00  0.11212348549E+00  0.51100000000E-03 0.  1.
         11    1    4    4    0    0 -0.38956730007E-02 -0.92258468994E-02  0.12677879727E-01  0.16164228238E-01  0.51100000000E-03 0. -1.
</event>
<event>
 8    1  0.1086235E+005  0.1043930E+01  0.7957747E-01            NaN
         13   -1    0    0    0    0  0.00000000000E+00  0.00000000000E+00  0.74505805969E-08  0.10566000000E+00  0.10566000000E+00 0.  1.
     999900   -1    0    0    0    0 -0.00000000000E+00 -0.00000000000E+00 -0.74505805969E-08  0.93827000000E+00  0.93827000000E+00 0. -1.
     999902    2    1    2    0    0 -0.20870053738E-01 -0.94443537762E-02 -0.40879737139E-02  0.10206605675E+01  0.10203952800E+01 0.  0.
     999903    2    3    3    0    0  0.50194401890E-01 -0.11640448846E+00  0.25708371254E-01  0.13084123219E+00  0.19723710962E-01 0.  0.
         14    1    1    2    0    0  0.20870053738E-01  0.94443537762E-02  0.40879737139E-02  0.23269432532E-01  0.00000000000E+00 0. -1.
     999901    1    3    3    0    0 -0.71064455628E-01  0.10696013468E+00 -0.29796344968E-01  0.88981933528E+00  0.88000000000E+00 0. -1.
        -11    1    4    4    0    0  0.24627425272E-01 -0.37380293173E-01  0.37185345014E-02  0.44920875025E-01  0.51100000000E-03 0.  1.
         11    1    4    4    0    0  0.25566976619E-01 -0.79024195283E-01  0.21989836752E-01  0.85920357163E-01  0.51100000000E-03 0. -1.
</event>
<event>
 8    1  0.1086235E+005  0.1043930E+01  0.7957747E-01            NaN
         13   -1    0    0    0    0  0.00000000000E+00  0.00000000000E+00  0.74505805969E-08  0.10566000000E+00  0.10566000000E+00 0.  1.
     999900   -1    0    0    0    0 -0.00000000000E+00 -0.00000000000E+00 -0.74505805969E-08  0.93827000000E+00  0.93827000000E+00 0. -1.
     999902    2    1    2    0    0  0.12652693219E-01  0.19080040801E-01  0.94148984815E-02  0.10191756283E+01  0.10188749592E+01 0.  0.
     999903    2    3    3    0    0  0.11507603849E+00  0.27163943090E-01  0.55418386608E-01  0.13200472482E+00  0.19330684524E-01 0.  0.
         14    1    1    2    0    0 -0.12652693219E-01 -0.19080040801E-01 -0.94148984815E-02  0.24754371656E-01  0.00000000000E+00 0. -1.
     999901    1    3    3    0    0 -0.10242334527E+00 -0.80839022886E-02 -0.46003488127E-01  0.88717090352E+00  0.88000000000E+00 0. -1.
        -11    1    4    4    0    0  0.80636180335E-01  0.27569786364E-01  0.42345751024E-01  0.95161496678E-01  0.51100000000E-03 0.  1.
         11    1    4    4    0    0  0.34439858150E-01 -0.40584327446E-03  0.13072635584E-01  0.36843228146E-01  0.51100000000E-03 0. -1.
</event>
<event>
 8    1  0.1086235E+005  0.1043930E+01  0.7957747E-01            NaN
         13   -1    0    0    0    0  0.00000000000E+00  0.00000000000E+00  0.74505805969E-08  0.10566000000E+00  0.10566000000E+00 0. -1.
     999900   -1    0    0    0    0 -0.00000000000E+00 -0.00000000000E+00 -0.74505805969E-08  0.93827000000E+00  0.93827000000E+00 0.  1.
     999902    2    1    2    0    0 -0.29750708024E-02  0.10334893522E-01 -0.22769483417E-01  0.10187484503E+01  0.10184371824E+01 0.  0.
     999903    2    3    3    0    0  0.91554779065E-01  0.56242711665E-01  0.66637191688E-01  0.12799765808E+00  0.19934015462E-01 0.  0.
         14    1    1    2    0    0  0.29750708024E-02 -0.10334893522E-01  0.22769483417E-01  0.25181549704E-01  0.00000000000E+00 0. -1.
     999901    1    3    3    0    0 -0.94529849867E-01 -0.45907818143E-01 -0.89406675106E-01  0.89075079222E+00  0.88000000000E+00 0.  1.
        -11    1    4    4    0    0  0.18259784054E-01  0.19807764564E-01  0.21862732329E-01  0.34698810306E-01  0.51100000000E-03 0. -1.
         11    1    4    4    0    0  0.73294995011E-01  0.36434947101E-01  0.44774459360E-01  0.93298847773E-01  0.51100000000E-03 0.  1.
</event>
<event>
 8    1  0.1086235E+005  0.1043930E+01  0.7957747E-01            NaN
         13   -1    0    0    0    0  0.00000000000E+00  0.00000000000E+00  0.74505805969E-08  0.10566000000E+00  0.10566000000E+00 0. -1.
     999900   -1    0    0    0    0 -0.00000000000E+00 -0.00000000000E+00 -0.74505805969E-08  0.93827000000E+00  0.93827000000E+00 0. -1.
     999902    2    1    2    0    0  0.32999376811E-02  0.23599179445E-01 -0.46628795930E-02  0.10196492812E+01  0.10193601441E+01 0.  0.
     999903    2    3    3    0    0  0.86379705035E-01 -0.84242939784E-01  0.38137336013E-01  0.12815389205E+00  0.20264187731E-01 0.  0.
         14    1    1    2    0    0 -0.32999376811E-02 -0.23599179445E-01  0.46628795930E-02  0.24280718797E-01  0.00000000000E+00 0.  1.
     999901    1    3    3    0    0 -0.83079767354E-01  0.10784211923E+00 -0.42800215606E-01  0.89149538915E+00  0.88000000000E+00 0. -1.
        -11    1    4    4    0    0  0.53848987024E-02 -0.14202299888E-01  0.33223076041E-02  0.15556391129E-01  0.51100000000E-03 0. -1.
         11    1    4    4    0    0  0.80994806332E-01 -0.70040639896E-01  0.34815028409E-01  0.11259750092E+00  0.51100000000E-03 0.  1.
</event>
<event>
 8    1  0.1086235E+005  0.1043930E+01  0.7957747E-01            NaN
         13   -1    0    0    0    0  0.00000000000E+00  0.00000000000E+00  0.74505805969E-08  0.10566000000E+00  0.10566000000E+00 0.  1.
     999900   -1    0    0    0    0 -0.00000000000E+00 -0.00000000000E+00 -0.74505805969E-08  0.93827000000E+00  0.93827000000E+00 0.  1.
     999902    2    1    2    0    0 -0.24495222085E-01 -0.41762234195E-02  0.11420303246E-03  0.10190810606E+01  0.10187780613E+01 0.  0.
     999903    2    3    3    0    0 -0.19856130365E-01 -0.10854124943E+00 -0.66514187323E-01  0.13040062184E+00  0.20117562522E-01 0.  0.
         14    1    1    2    0    0  0.24495222085E-01  0.41762234195E-02 -0.11420303246E-03  0.24848939402E-01  0.00000000000E+00 0. -1.
     999901    1    3    3    0    0 -0.46390917203E-02  0.10436502601E+00  0.66628390356E-01  0.88868043876E+00  0.88000000000E+00 0. -1.
        -11    1    4    4    0    0 -0.86871096831E-02 -0.90581353309E-01 -0.53384031065E-01  0.10550148499E+00  0.51100000000E-03 0.  1.
         11    1    4    4    0    0 -0.11169020682E-01 -0.17959896116E-01 -0.13130156258E-01  0.24899136850E-01  0.51100000000E-03 0. -1.
</event>
<event>
 8    1  0.1086235E+005  0.1043930E+01  0.7957747E-01            NaN
         13   -1    0    0    0    0  0.00000000000E+00  0.00000000000E+00  0.74505805969E-08  0.10566000000E+00  0.10566000000E+00 0. -1.
     999900   -1    0    0    0    0 -0.00000000000E+00 -0.00000000000E+00 -0.74505805969E-08  0.93827000000E+00  0.93827000000E+00 0. -1.
     999902    2    1    2    0    0  0.13327898075E-01  0.70762650151E-02  0.17397594822E-01  0.10208999609E+01  0.10206401656E+01 0.  0.
     999903    2    3    3    0    0  0.12122720798E-01  0.65992092338E-01 -0.10970524993E+00  0.12981766378E+00  0.17761400747E-01 0.  0.
         14    1    1    2    0    0 -0.13327898075E-01 -0.70762650151E-02 -0.17397594822E-01  0.23030039063E-01  0.00000000000E+00 0.  1.
     999901    1    3    3    0    0  0.12051772767E-02 -0.58915827323E-01  0.12710284475E+00  0.89108229716E+00  0.88000000000E+00 0.  1.
        -11    1    4    4    0    0 -0.39516540596E-02  0.25936977892E-01 -0.42060752887E-01  0.49575300770E-01  0.51100000000E-03 0.  1.
         11    1    4    4    0    0  0.16074374858E-01  0.40055114446E-01 -0.67644497043E-01  0.80242363011E-01  0.51100000000E-03 0. -1.
</event>
<event>
 8    1  0.1086235E+005  0.1043930E+01  0.7957747E-01            NaN
         13   -1    0    0    0    0  0.00000000000E+00  0.00000000000E+00  0.74505805969E-08  0.10566000000E+00  0.10566000000E+00 0. -1.
     999900   -1    0    0    0    0 -0.00000000000E+00 -0.00000000000E+00 -0.74505805969E-08  0.93827000000E+00  0.93827000000E+00 0. -1.
     999902    2    1    2    0    0 -0.14939255581E-01 -0.18355483403E-01 -0.77825386404E-03  0.10202506671E+01  0.10199758394E+01 0.  0.
     999903    2    3    3    0    0 -0.94603207157E-01  0.14907388387E-01 -0.88464681729E-01  0.13168909159E+00  0.18547773351E-01 0.  0.
         14    1    1    2    0    0  0.14939255581E-01  0.18355483403E-01  0.77825386404E-03  0.23679332917E-01  0.00000000000E+00 0. -1.
     999901    1    3    3    0    0  0.79663951575E-01 -0.33262871790E-01  0.87686427865E-01  0.88856157550E+00  0.88000000000E+00 0.  1.
        -11    1    4    4    0    0 -0.40447992166E-01  0.15650546846E-01 -0.40452445691E-01  0.59309705532E-01  0.51100000000E-03 0.  1.
         11    1    4    4    0    0 -0.54155214990E-01 -0.74315845866E-03 -0.48012236037E-01  0.72379386053E-01  0.51100000000E-03 0. -1.
</event>
<event>
 8    1  0.1086235E+005  0.1043930E+01  0.7957747E-01            NaN
         13   -1    0    0    0    0  0.00000000000E+00  0.00000000000E+00  0.74505805969E-08  0.10566000000E+00  0.10566000000E+00 0.  1.
     999900   -1    0    0    0    0 -0.00000000000E+00 -0.00000000000E+00 -0.74505805969E-08  0.93827000000E+00  0.93827000000E+00 0.  1.
     999902    2    1    2    0    0 -0.21722201936E-01  0.57094691937E-02  0.59660187893E-02  0.10206911215E+01  0.10204265382E+01 0.  0.
     999903    2    3    3    0    0 -0.13129549982E+00  0.46353635818E-02  0.14433448115E-01  0.13385451945E+00  0.21182848803E-01 0.  0.
         14    1    1    2    0    0  0.21722201936E-01 -0.57094691937E-02 -0.59660187893E-02  0.23238878536E-01  0.00000000000E+00 0. -1.
     999901    1    3    3    0    0  0.10957329789E+00  0.10741056120E-02 -0.84674293253E-02  0.88683660201E+00  0.88000000000E+00 0. -1.
        -11    1    4    4    0    0 -0.38572555594E-01  0.10697202728E-01  0.17420878047E-02  0.40069541826E-01  0.51100000000E-03 0.  1.
         11    1    4    4    0    0 -0.92722944229E-01 -0.60618391466E-02  0.12691360310E-01  0.93784977623E-01  0.51100000000E-03 0. -1.
</event>
<event>
 8    1  0.1086235E+005  0.1043930E+01  0.7957747E-01            NaN
         13   -1    0    0    0    0  0.00000000000E+00  0.00000000000E+00  0.74505805969E-08  0.10566000000E+00  0.10566000000E+00 0.  1.
     999900   -1    0    0    0    0 -0.00000000000E+00 -0.00000000000E+00 -0.74505805969E-08  0.93827000000E+00  0.93827000000E+00 0.  1.
     999902    2    1    2    0    0 -0.13366809147E-01 -0.17056667747E-01  0.10204071297E-01  0.10199774517E+01  0.10196961691E+01 0.  0.
     999903    2    3    3    0    0  0.16110519585E-01 -0.59104282971E-01 -0.11287745136E+00  0.12992915180E+00  0.19682488535E-01 0.  0.
         14    1    1    2    0    0  0.13366809147E-01  0.17056667747E-01 -0.10204071297E-01  0.23952548349E-01  0.00000000000E+00 0. -1.
     999901    1    3    3    0    0 -0.29477328731E-01  0.42047615223E-01  0.12308152265E+00  0.89004829985E+00  0.88000000000E+00 0. -1.
        -11    1    4    4    0    0  0.16258049021E-01 -0.31867356465E-01 -0.76767797751E-01  0.84695976637E-01  0.51100000000E-03 0.  1.
         11    1    4    4    0    0 -0.14752943614E-03 -0.27236926506E-01 -0.36109653606E-01  0.45233175159E-01  0.51100000000E-03 0. -1.
</event>
<event>
 8    1  0.1086235E+005  0.1043930E+01  0.7957747E-01            NaN
         13   -1    0    0    0    0  0.00000000000E+00  0.00000000000E+00  0.74505805969E-08  0.10566000000E+00  0.10566000000E+00 0.  1.
     999900   -1    0    0    0    0 -0.00000000000E+00 -0.00000000000E+00 -0.74505805969E-08  0.93827000000E+00  0.93827000000E+00 0. -1.
     999902    2    1    2    0    0  0.25077319551E-01 -0.24327240891E-02 -0.12990273860E-01  0.10155832662E+01  0.10151875853E+01 0.  0.
     999903    2    3    3    0    0 -0.48294384716E-01  0.20969267393E-01  0.11011347031E+00  0.12368327627E+00  0.20012963691E-01 0.  0.
         14    1    1    2    0    0 -0.25077319551E-01  0.24327240891E-02  0.12990273860E-01  0.28346733804E-01  0.00000000000E+00 0. -1.
     999901    1    3    3    0    0  0.73371704268E-01 -0.23401991482E-01 -0.12310374417E+00  0.89189998992E+00  0.88000000000E+00 0. -1.
        -11    1    4    4    0    0 -0.98727054967E-02 -0.29949064169E-02  0.28997869524E-01  0.30782744131E-01  0.51100000000E-03 0.  1.
         11    1    4    4    0    0 -0.38421679220E-01  0.23964173810E-01  0.81115600788E-01  0.92900532144E-01  0.51100000000E-03 0. -1.
</event>
<event>
 7    1  0.1086235E+005  0.1043930E+01  0.7957747E-01            NaN
         13   -1    0    0    0    0  0.00000000000E+00  0.00000000000E+00  0.74505805969E-08  0.10566000000E+00  0.10566000000E+00 0.  1.
     999900   -1    0    0    0    0 -0.00000000000E+00 -0.00000000000E+00 -0.74505805969E-08  0.93827000000E+00  0.93827000000E+00 0. -1.
     999903    2    1    2    0    0 -0.53196039475E-01  0.54300007745E-02 -0.10648215437E+00  0.12100483974E+00  0.21081236120E-01 0.  0.
         14    1    1    2    0    0  0.29799803467E-01 -0.13889368957E-01  0.19648441675E-01  0.38301489748E-01  0.00000000000E+00 0.  1.
     999901    1    1    2    0    0  0.23396236008E-01  0.84593681822E-02  0.86833712698E-01  0.88462367051E+00  0.88000000000E+00 0.  1.
        -11    1    3    3    0    0 -0.99146662123E-02  0.82300168110E-02 -0.15142111491E-01  0.19889153934E-01  0.51100000000E-03 0. -1.
         11    1    3    3    0    0 -0.43281373262E-01 -0.28000160365E-02 -0.91340042881E-01  0.10111568581E+00  0.51100000000E-03 0.  1.
</event>
<event>
 8    1  0.1086235E+005  0.1043930E+01  0.7957747E-01            NaN
         13   -1    0    0    0    0  0.00000000000E+00  0.00000000000E+00  0.74505805969E-08  0.10566000000E+00  0.10566000000E+00 0. -1.
     999900   -1    0    0    0    0 -0.00000000000E+00 -0.00000000000E+00 -0.74505805969E-08  0.93827000000E+00  0.93827000000E+00 0.  1.
     999902    2    1    2    0    0  0.38655770494E-02 -0.31235265376E-01  0.23199471255E-02  0.10123710608E+01  0.10118790432E+01 0.  0.
     999903    2    3    3    0    0  0.58999025131E-01 -0.31031523877E-01 -0.10305407302E+00  0.12437138584E+00  0.20106198277E-01 0.  0.
         14    1    1    2    0    0 -0.38655770494E-02  0.31235265376E-01 -0.23199471255E-02  0.31558939204E-01  0.00000000000E+00 0.  1.
     999901    1    3    3    0    0 -0.55133448082E-01 -0.20374149877E-03  0.10537402014E+00  0.88799967496E+00  0.88000000000E+00 0. -1.
        -11    1    4    4    0    0  0.38731484875E-03 -0.17797422486E-02 -0.12300962818E-01  0.12445573612E-01  0.51100000000E-03 0. -1.
         11    1    4    4    0    0  0.58611710283E-01 -0.29251781629E-01 -0.90753110197E-01  0.11192581222E+00  0.51100000000E-03 0.  1.
</event>
<event>
 8    1  0.1086235E+005  0.1043930E+01  0.7957747E-01            NaN
         13   -1    0    0    0    0  0.00000000000E+00  0.00000000000E+00  0.74505805969E-08  0.10566000000E+00  0.10566000000E+00 0. -1.
     999900   -1    0    0    0    0 -0.00000000000E+00 -0.00000000000E+00 -0.74505805969E-08  0.93827000000E+00  0.93827000000E+00 0. -1.
     999902    2    1    2    0    0  0.17806183414E-01  0.29742561492E-02  0.15799157454E-01  0.10199400074E+01  0.10196578343E+01 0.  0.
     999903    2    3    3    0    0  0.26322536287E-01  0.12557903677E+00 -0.15800828501E-01  0.13083764009E+00  0.20145756115E-01 0.  0.
         14    1    1    2    0    0 -0.17806183414E-01 -0.29742561492E-02 -0.15799157454E-01  0.23989992574E-01  0.00000000000E+00 0.  1.
     999901    1    3    3    0    0 -0.85163528732E-02 -0.12260478062E+00  0.31599985955E-01  0.88910236734E+00  0.88000000000E+00 0. -1.
        -11    1    4    4    0    0  0.18843059454E-01  0.44779672465E-01 -0.28974288720E-02  0.48671718387E-01  0.51100000000E-03 0. -1.
         11    1    4    4    0    0  0.74794768331E-02  0.80799364305E-01 -0.12903399629E-01  0.82165921699E-01  0.51100000000E-03 0.  1.
</event>
<event>
 8    1  0.1086235E+005  0.1043930E+01  0.7957747E-01            NaN
         13   -1    0    0    0    0  0.00000000000E+00  0.00000000000E+00  0.74505805969E-08  0.10566000000E+00  0.10566000000E+00 0. -1.
     999900   -1    0    0    0    0 -0.00000000000E+00 -0.00000000000E+00 -0.74505805969E-08  0.93827000000E+00  0.93827000000E+00 0. -1.
     999902    2    1    2    0    0 -0.16116011882E-01  0.61935677357E-02 -0.17369676383E-01  0.10194393533E+01  0.10191451335E+01 0.  0.
     999903    2    3    3    0    0  0.11394108361E+00  0.43564619706E-01  0.31342392488E-01  0.12776435121E+00  0.21469449212E-01 0.  0.
         14    1    1    2    0    0  0.16116011882E-01 -0.61935677357E-02  0.17369676383E-01  0.24490646744E-01  0.00000000000E+00 0.  1.
     999901    1    3    3    0    0 -0.13005709549E+00 -0.37371051970E-01 -0.48712068872E-01  0.89167500204E+00  0.88000000000E+00 0.  1.
        -11    1    4    4    0    0  0.85743884891E-01  0.24422409015E-01  0.16886024284E-01  0.90740656795E-01  0.51100000000E-03 0. -1.
         11    1    4    4    0    0  0.28197198720E-01  0.19142210691E-01  0.14456368204E-01  0.37023694419E-01  0.51100000000E-03 0.  1.
</event>
<event>
 8    1  0.1086235E+005  0.1043930E+01  0.7957747E-01            NaN
         13   -1    0    0    0    0  0.00000000000E+00  0.00000000000E+00  0.74505805969E-08  0.10566000000E+00  0.10566000000E+00 0. -1.
     999900   -1    0    0    0    0 -0.00000000000E+00 -0.00000000000E+00 -0.74505805969E-08  0.93827000000E+00  0.93827000000E+00 0. -1.
     999902    2    1    2    0    0  0.12758706148E-01 -0.73400069978E-02 -0.18663184137E-01  0.10201608030E+01  0.10198838606E+01 0.  0.
     999903    2    3    3    0    0  0.93646748030E-01 -0.90595430282E-01  0.81908802156E-02  0.13213181606E+00  0.20358803774E-01 0.  0.
         14    1    1    2    0    0 -0.12758706148E-01  0.73400069978E-02  0.18663184137E-01  0.23769197030E-01  0.00000000000E+00 0. -1.
     999901    1    3    3    0    0 -0.80888041882E-01  0.83255423284E-01 -0.26854064353E-01  0.88802898691E+00  0.88000000000E+00 0. -1.
        -11    1    4    4    0    0  0.15355727291E-01 -0.25202887869E-01 -0.21758587241E-02  0.29596949163E-01  0.51100000000E-03 0. -1.
         11    1    4    4    0    0  0.78291020740E-01 -0.65392542413E-01  0.10366738940E-01  0.10253486689E+00  0.51100000000E-03 0.  1.
</event>
<event>
 8    1  0.1086235E+005  0.1043930E+01  0.7957747E-01            NaN
         13   -1    0    0    0    0  0.00000000000E+00  0.00000000000E+00  0.74505805969E-08  0.10566000000E+00  0.10566000000E+00 0. -1.
     999900   -1    0    0    0    0 -0.00000000000E+00 -0.00000000000E+00 -0.74505805969E-08  0.93827000000E+00  0.93827000000E+00 0.  1.
     999902    2    1    2    0    0  0.94106793234E-02 -0.22034541193E-02 -0.21669201794E-01  0.10202030027E+01  0.10199270544E+01 0.  0.
     999903    2    3    3    0    0 -0.63095865358E-01  0.38989526622E-01  0.10195527217E+00  0.12765772582E+00  0.20008648814E-01 0.  0.
         14    1    1    2    0    0 -0.94106793234E-02  0.22034541193E-02  0.21669201794E-01  0.23726997319E-01  0.00000000000E+00 0. -1.
     999901    1    3    3    0    0  0.72506544681E-01 -0.41192980741E-01 -0.12362447396E+00  0.89254527686E+00  0.88000000000E+00 0.  1.
        -11    1    4    4    0    0 -0.22582243571E-01  0.25563921986E-01  0.43668704347E-01  0.55413795145E-01  0.51100000000E-03 0.  1.
         11    1    4    4    0    0 -0.40513621786E-01  0.13425604636E-01  0.58286567821E-01  0.72243930675E-01  0.51100000000E-03 0. -1.
</event>
<event>
 8    1  0.1086235E+005  0.1043930E+01  0.7957747E-01            NaN
         13   -1    0    0    0    0  0.00000000000E+00  0.00000000000E+00  0.74505805969E-08  0.10566000000E+00  0.10566000000E+00 0. -1.
     999900   -1    0    0    0    0 -0.00000000000E+00 -0.00000000000E+00 -0.74505805969E-08  0.93827000000E+00  0.93827000000E+00 0.  1.
     999902    2    1    2    0    0 -0.12319170313E-01  0.16859474848E-01 -0.11304106583E-01  0.10201858076E+01  0.10199094544E+01 0.  0.
     999903    2    3    3    0    0 -0.99403885493E-01  0.62240074473E-01  0.57172997831E-01  0.13207981147E+00  0.20527191643E-01 0.  0.
         14    1    1    2    0    0  0.12319170313E-01 -0.16859474848E-01  0.11304106583E-01  0.23744192447E-01  0.00000000000E+00 0. -1.
     999901    1    3    3    0    0  0.87084715180E-01 -0.45380599625E-01 -0.68477104414E-01  0.88810599608E+00  0.88000000000E+00 0.  1.
        -11    1    4    4    0    0 -0.70922242790E-01  0.41832950987E-01  0.49929575247E-01  0.96297372322E-01  0.51100000000E-03 0. -1.
         11    1    4    4    0    0 -0.28481642703E-01  0.20407123486E-01  0.72434225836E-02  0.35782439153E-01  0.51100000000E-03 0.  1.
</event>
<event>
 8    1  0.1086235E+005  0.1043930E+01  0.7957747E-01            NaN
         13   -1    0    0    0    0  0.00000000000E+00  0.00000000000E+00  0.74505805969E-08  0.10566000000E+00  0.10566000000E+00 0. -1.
     999900   -1    0    0    0    0 -0.00000000000E+00 -0.00000000000E+00 -0.74505805969E-08  0.93827000000E+00  0.93827000000E+00 0. -1.
     999902    2    1    2    0    0 -0.20157567623E-01  0.98315567260E-02  0.68354917792E-02  0.10204840838E+01  0.10202147099E+01 0.  0.
     999903    2    3    3    0    0 -0.63083005659E-01 -0.66099849737E-01 -0.91216454583E-01  0.13075246361E+00  0.20666625648E-01 0.  0.
         14    1    1    2    0    0  0.20157567623E-01 -0.98315567260E-02 -0.68354917792E-02  0.23445916233E-01  0.00000000000E+00 0.  1.
     999901    1    3    3    0    0  0.42925438037E-01  0.75931406463E-01  0.98051946363E-01  0.88973162015E+00  0.88000000000E+00 0.  1.
        -11    1    4    4    0    0 -0.24817286436E-01 -0.36248870957E-01 -0.53862815675E-01  0.69507858442E-01  0.51100000000E-03 0.  1.
         11    1    4    4    0    0 -0.38265719224E-01 -0.29850978780E-01 -0.37353638908E-01  0.61244605170E-01  0.51100000000E-03 0. -1.
</event>
<event>
 8    1  0.1086235E+005  0.1043930E+01  0.7957747E-01            NaN
         13   -1    0    0    0    0  0.00000000000E+00  0.00000000000E+00  0.74505805969E-08  0.10566000000E+00  0.10566000000E+00 0. -1.
     999900   -1    0    0    0    0 -0.00000000000E+00 -0.00000000000E+00 -0.74505805969E-08  0.93827000000E+00  0.93827000000E+00 0.  1.
     999902    2    1    2    0    0 -0.21833735253E-01  0.46677979421E-02 -0.50079694010E-02  0.10210481275E+01  0.10207917018E+01 0.  0.
     999903    2    3    3    0    0 -0.64273889989E-01 -0.99568070197E-01 -0.55030581923E-01  0.13247143146E+00  0.21803249041E-01 0.  0.
         14    1    1    2    0    0  0.21833735253E-01 -0.46677979421E-02  0.50079694010E-02  0.22881872525E-01  0.00000000000E+00 0. -1.
     999901    1    3    3    0    0  0.42440154736E-01  0.10423586814E+00  0.50022612522E-01  0.88857669602E+00  0.88000000000E+00 0. -1.
        -11    1    4    4    0    0 -0.24467102912E-01 -0.29183237748E-01 -0.27775507204E-01  0.47138523649E-01  0.51100000000E-03 0.  1.
         11    1    4    4    0    0 -0.39806787077E-01 -0.70384832448E-01 -0.27255074719E-01  0.85332907809E-01  0.51100000000E-03 0. -1.
</event>
<event>
 8    1  0.1086235E+005  0.1043930E+01  0.7957747E-01            NaN
         13   -1    0    0    0    0  0.00000000000E+00  0.00000000000E+00  0.74505805969E-08  0.10566000000E+00  0.10566000000E+00 0.  1.
     999900   -1    0    0    0    0 -0.00000000000E+00 -0.00000000000E+00 -0.74505805969E-08  0.93827000000E+00  0.93827000000E+00 0.  1.
     999902    2    1    2    0    0  0.77674446306E-02  0.19312636204E-01  0.10342166227E-01  0.10206862586E+01  0.10204215633E+01 0.  0.
     999903    2    3    3    0    0  0.73981015857E-01 -0.82478078477E-01  0.66334151668E-01  0.13058475366E+00  0.19399331829E-01 0.  0.
         14    1    1    2    0    0 -0.77674446306E-02 -0.19312636204E-01 -0.10342166227E-01  0.23243741427E-01  0.00000000000E+00 0.  1.
     999901    1    3    3    0    0 -0.66213571226E-01  0.10179071468E+00 -0.55991985440E-01  0.89010150491E+00  0.88000000000E+00 0. -1.
        -11    1    4    4    0    0  0.30204633418E-01 -0.26666583958E-01  0.14881200463E-01  0.42955067549E-01  0.51100000000E-03 0. -1.
         11    1    4    4    0    0  0.43776382439E-01 -0.55811494518E-01  0.51452951204E-01  0.87629686114E-01  0.51100000000E-03 0.  1.
</event>
<event>
 8    1  0.1086235E+005  0.1043930E+01  0.7957747E-01            NaN
         13   -1    0    0    0    0  0.00000000000E+00  0.00000000000E+00  0.74505805969E-08  0.10566000000E+00  0.10566000000E+00 0.  1.
     999900   -1    0    0    0    0 -0.00000000000E+00 -0.00000000000E+00 -0.74505805969E-08  0.93827000000E+00  0.93827000000E+00 0. -1.
     999902    2    1    2    0    0  0.14355758016E-01  0.25634894583E-02 -0.19176314297E-01  0.10198387091E+01  0.10195541194E+01 0.  0.
     999903    2    3    3    0    0  0.11894581877E+00  0.48762000183E-01  0.19970256092E-01  0.13157870373E+00  0.19705422659E-01 0.  0.
         14    1    1    2    0    0 -0.14355758016E-01 -0.25634894583E-02  0.19176314297E-01  0.24091290884E-01  0.00000000000E+00 0.  1.
     999901    1    3    3    0    0 -0.10459006075E+00 -0.46198510725E-01 -0.39146570389E-01  0.88826000539E+00  0.88000000000E+00 0. -1.
        -11    1    4    4    0    0  0.76586187175E-01  0.41304249387E-01  0.14563256611E-01  0.88226042910E-01  0.51100000000E-03 0.  1.
         11    1    4    4    0    0  0.42359631592E-01  0.74577507958E-02  0.54069994810E-02  0.43352660817E-01  0.51100000000E-03 0. -1.
</event>
<event>
 8    1  0.1086235E+005  0.1043930E+01  0.7957747E-01            NaN
         13   -1    0    0    0    0  0.00000000000E+00  0.00000000000E+00  0.74505805969E-08  0.10566000000E+00  0.10566000000E+00 0. -1.
     999900   -1    0    0    0    0 -0.00000000000E+00 -0.00000000000E+00 -0.74505805969E-08  0.93827000000E+00  0.93827000000E+00 0. -1.
     999902    2    1    2    0    0 -0.29119255389E-03  0.57283997414E-02  0.22876979052E-01  0.10203449300E+01  0.10200723115E+01 0.  0.
     999903    2    3    3    0    0 -0.71696320434E-01 -0.91786095071E-01 -0.51613004098E-01  0.12896592722E+00  0.20081299278E-01 0.  0.
         14    1    1    2    0    0  0.29119255389E-03 -0.57283997414E-02 -0.22876979052E-01  0.23585070008E-01  0.00000000000E+00 0.  1.
     999901    1    3    3    0    0  0.71405127881E-01  0.97514494812E-01  0.74489983150E-01  0.89137900277E+00  0.88000000000E+00 0.  1.
        -11    1    4    4    0    0 -0.67941881947E-01 -0.86902529954E-01 -0.43068388330E-01  0.11841999928E+00  0.51100000000E-03 0. -1.
         11    1    4    4    0    0 -0.37544384870E-02 -0.48835651163E-02 -0.85446157680E-02  0.10545927945E-01  0.51100000000E-03 0.  1.
</event>
<event>
 8    1  0.1086235E+005  0.1043930E+01  0.7957747E-01            NaN
         13   -1    0    0    0    0  0.00000000000E+00  0.00000000000E+00  0.74505805969E-08  0.10566000000E+00  0.10566000000E+00 0.  1.
     999900   -1    0    0    0    0 -0.00000000000E+00 -0.00000000000E+00 -0.74505805969E-08  0.93827000000E+00  0.93827000000E+00 0.  1.
     999902    2    1    2    0    0  0.72749868350E-02 -0.22682257262E-01  0.27681477488E-02  0.10199493230E+01  0.10196673715E+01 0.  0.
     999903    2    3    3    0    0  0.23568722182E-01 -0.12543489262E+00 -0.32176132188E-01  0.13313215323E+00  0.19986740300E-01 0.  0.
         14    1    1    2    0    0 -0.72749868350E-02  0.22682257262E-01 -0.27681477488E-02  0.23980677011E-01  0.00000000000E+00 0. -1.
     999901    1    3    3    0    0 -0.16293735347E-01  0.10275263536E+00  0.34944279937E-01  0.88681716976E+00  0.88000000000E+00 0. -1.
        -11    1    4    4    0    0 -0.10039858474E-02 -0.43930193313E-01 -0.83498817665E-02  0.44730878804E-01  0.51100000000E-03 0. -1.
         11    1    4    4    0    0  0.24572708029E-01 -0.81504699309E-01 -0.23826250421E-01  0.88401274422E-01  0.51100000000E-03 0.  1.
</event>
<event>
 8    1  0.1086235E+005  0.1043930E+01  0.7957747E-01            NaN
         13   -1    0    0    0    0  0.00000000000E+00  0.00000000000E+00  0.74505805969E-08  0.10566000000E+00  0.10566000000E+00 0.  1.
     999900   -1    0    0    0    0 -0.00000000000E+00 -0.00000000000E+00 -0.74505805969E-08  0.93827000000E+00  0.93827000000E+00 0. -1.
     999902    2    1    2    0    0 -0.13085806305E-01  0.17985233990E-01  0.72471183774E-02  0.10205371017E+01  0.10202689587E+01 0.  0.
     999903    2    3    3    0    0  0.40063564272E-01 -0.44381846870E-01 -0.11227678572E+00  0.12868483136E+00  0.19464626866E-01 0.  0.
         14    1    1    2    0    0  0.13085806305E-01 -0.17985233990E-01 -0.72471183774E-02  0.23392898348E-01  0.00000000000E+00 0. -1.
     999901    1    3    3    0    0 -0.53149370577E-01  0.62367080860E-01  0.11952390409E+00  0.89185227029E+00  0.88000000000E+00 0.  1.
        -11    1    4    4    0    0  0.25378896035E-01 -0.13955226975E-01 -0.47838048445E-01  0.55924741608E-01  0.51100000000E-03 0. -1.
         11    1    4    4    0    0  0.14684668237E-01 -0.30426619895E-01 -0.64438737270E-01  0.72760089756E-01  0.51100000000E-03 0.  1.
</event>
<event>
 8    1  0.1086235E+005  0.1043930E+01  0.7957747E-01            NaN
         13   -1    0    0    0    0  0.00000000000E+00  0.00000000000E+00  0.74505805969E-08  0.10566000000E+00  0.10566000000E+00 0.  1.
     999900   -1    0    0    0    0 -0.00000000000E+00 -0.00000000000E+00 -0.74505805969E-08  0.93827000000E+00  0.93827000000E+00 0. -1.
     999902    2    1    2    0    0 -0.58598029188E-02  0.19427865769E-01  0.20334017470E-01  0.10152028086E+01  0.10147962806E+01 0.  0.
     999903    2    3    3    0    0  0.82745741522E-01  0.27522185461E-01  0.91324999777E-01  0.12787187819E+00  0.20165148516E-01 0.  0.
         14    1    1    2    0    0  0.58598029188E-02 -0.19427865769E-01 -0.20334017470E-01  0.28727191388E-01  0.00000000000E+00 0. -1.
     999901    1    3    3    0    0 -0.88605544441E-01 -0.80943196922E-02 -0.70990982306E-01  0.88733093042E+00  0.88000000000E+00 0.  1.
        -11    1    4    4    0    0  0.38311508050E-01  0.15803631380E-01  0.57171140929E-01  0.70613928442E-01  0.51100000000E-03 0. -1.
         11    1    4    4    0    0  0.44434233472E-01  0.11718554081E-01  0.34153858847E-01  0.57257949747E-01  0.51100000000E-03 0.  1.
</event>
<event>
 8    1  0.1086235E+005  0.1043930E+01  0.7957747E-01            NaN
         13   -1    0    0    0    0  0.00000000000E+00  0.00000000000E+00  0.74505805969E-08  0.10566000000E+00  0.10566000000E+00 0.  1.
     999900   -1    0    0    0    0 -0.00000000000E+00 -0.00000000000E+00 -0.74505805969E-08  0.93827000000E+00  0.93827000000E+00 0.  1.
     999902    2    1    2    0    0 -0.47845785165E-02  0.23208218739E-01 -0.18564155785E-02  0.10201611151E+01  0.10198841802E+01 0.  0.
     999903    2    3    3    0    0  0.12475481426E+00  0.85988719102E-02 -0.30465378262E-01  0.13009799376E+00  0.18964293557E-01 0.  0.
         14    1    1    2    0    0  0.47845785165E-02 -0.23208218739E-01  0.18564155785E-02  0.23768884859E-01  0.00000000000E+00 0. -1.
     999901    1    3    3    0    0 -0.12953939277E+00  0.14609346829E-01  0.28608962684E-01  0.89006312138E+00  0.88000000000E+00 0.  1.
        -11    1    4    4    0    0  0.84755333332E-01 -0.13917293716E-02 -0.15135446974E-01  0.86108921227E-01  0.51100000000E-03 0. -1.
         11    1    4    4    0    0  0.39999480924E-01  0.99906012818E-02 -0.15329931288E-01  0.43989072534E-01  0.51100000000E-03 0.  1.
</event>
<event>
 8    1  0.1086235E+005  0.1043930E+01  0.7957747E-01            NaN
         13   -1    0    0    0    0  0.00000000000E+00  0.00000000000E+00  0.74505805969E-08  0.10566000000E+00  0.10566000000E+00 0. -1.
     999900   -1    0    0    0    0 -0.00000000000E+00 -0.00000000000E+00 -0.74505805969E-08  0.93827000000E+00  0.93827000000E+00 0. -1.
     999902    2    1    2    0    0 -0.23091392292E-01  0.14935780621E-02 -0.42916023298E-02  0.10203957479E+01  0.10201243166E+01 0.  0.
     999903    2    3    3    0    0 -0.29810038244E-01 -0.31937163881E-01 -0.12274523358E+00  0.13180471849E+00  0.19936665528E-01 0.  0.
         14    1    1    2    0    0  0.23091392292E-01 -0.14935780621E-02  0.42916023298E-02  0.23534252144E-01  0.00000000000E+00 0. -1.
     999901    1    3    3    0    0  0.67186459517E-02  0.33430741943E-01  0.11845363125E+00  0.88859102936E+00  0.88000000000E+00 0.  1.
        -11    1    4    4    0    0 -0.22437265008E-01 -0.27621146371E-01 -0.71699282647E-01  0.80046279370E-01  0.51100000000E-03 0.  1.
         11    1    4    4    0    0 -0.73727732365E-02 -0.43160175101E-02 -0.51045950935E-01  0.51758439121E-01  0.51100000000E-03 0. -1.
</event>
<event>
 8    1  0.1086235E+005  0.1043930E+01  0.7957747E-01            NaN
         13   -1    0    0    0    0  0.00000000000E+00  0.00000000000E+00  0.74505805969E-08  0.10566000000E+00  0.10566000000E+00 0. -1.
     999900   -1    0    0    0    0 -0.00000000000E+00 -0.00000000000E+00 -0.74505805969E-08  0.93827000000E+00  0.93827000000E+00 0.  1.
     999902    2    1    2    0    0 -0.11270792578E-01  0.49944301790E-02  0.23493726780E-01  0.10173983152E+01  0.10170523101E+01 0.  0.
     999903    2    3    3    0    0  0.62920184210E-01  0.18192325298E-01 -0.10492261228E+00  0.12489103706E+00  0.17294689614E-01 0.  0.
         14    1    1    2    0    0  0.11270792578E-01 -0.49944301790E-02 -0.23493726780E-01  0.26531684759E-01  0.00000000000E+00 0.  1.
     999901    1    3    3    0    0 -0.74190976788E-01 -0.13197895119E-01  0.12841633906E+00  0.89250727818E+00  0.88000000000E+00 0. -1.
        -11    1    4    4    0    0  0.21637100204E-01  0.81863272664E-02 -0.23092612775E-01  0.32691129456E-01  0.51100000000E-03 0. -1.
         11    1    4    4    0    0  0.41283084006E-01  0.10005998032E-01 -0.81829999505E-01  0.92199907601E-01  0.51100000000E-03 0.  1.
</event>
<event>
 8    1  0.1086235E+005  0.1043930E+01  0.7957747E-01            NaN
         13   -1    0    0    0    0  0.00000000000E+00  0.00000000000E+00  0.74505805969E-08  0.10566000000E+00  0.10566000000E+00 0. -1.
     999900   -1    0    0    0    0 -0.00000000000E+00 -0.00000000000E+00 -0.74505805969E-08  0.93827000000E+00  0.93827000000E+00 0. -1.
     999902    2    1    2    0    0  0.22634041161E-01  0.28183876856E-02 -0.33322635424E-02  0.10208790324E+01  0.10206187592E+01 0.  0.
     999903    2    3    3    0    0  0.78109984168E-01 -0.72227778314E-01  0.76050100054E-01  0.13239095314E+00  0.20633108537E-01 0.  0.
         14    1    1    2    0    0 -0.22634041161E-01 -0.28183876856E-02  0.33322635424E-02  0.23050967631E-01  0.00000000000E+00 0.  1.
     999901    1    3    3    0    0 -0.55475943007E-01  0.75046165999E-01 -0.79382363597E-01  0.88848807923E+00  0.88000000000E+00 0.  1.
        -11    1    4    4    0    0  0.15139151566E-01 -0.12861702082E-01  0.24913887304E-01  0.31868168949E-01  0.51100000000E-03 0.  1.
         11    1    4    4    0    0  0.62970832602E-01 -0.59366076232E-01  0.51136212750E-01  0.10052278419E+00  0.51100000000E-03 0. -1.
</event>
<event>
 8    1  0.1086235E+005  0.1043930E+01  0.7957747E-01            NaN
         13   -1    0    0    0    0  0.00000000000E+00  0.00000000000E+00  0.74505805969E-08  0.10566000000E+00  0.10566000000E+00 0.  1.
     999900   -1    0    0    0    0 -0.00000000000E+00 -0.00000000000E+00 -0.74505805969E-08  0.93827000000E+00  0.93827000000E+00 0.  1.
     999902    2    1    2    0    0 -0.77388375685E-02  0.21465854277E-01 -0.44052493695E-02  0.10206904060E+01  0.10204258063E+01 0.  0.
     999903    2    3    3    0    0  0.10920271513E+00 -0.64403811002E-01 -0.97803435054E-02  0.12879477434E+00  0.20478156983E-01 0.  0.
         14    1    1    2    0    0  0.77388375685E-02 -0.21465854277E-01  0.44052493695E-02  0.23239593989E-01  0.00000000000E+00 0.  1.
     999901    1    3    3    0    0 -0.11694155270E+00  0.85869665279E-01  0.53750941359E-02  0.89189563167E+00  0.88000000000E+00 0.  1.
        -11    1    4    4    0    0  0.54665671997E-01 -0.24588129954E-01  0.32144500644E-02  0.60029206556E-01  0.51100000000E-03 0. -1.
         11    1    4    4    0    0  0.54537043136E-01 -0.39815681047E-01 -0.12994793570E-01  0.68765567781E-01  0.51100000000E-03 0.  1.
</event>
<event>
 8    1  0.1086235E+005  0.1043930E+01  0.7957747E-01            NaN
         13   -1    0    0    0    0  0.00000000000E+00  0.00000000000E+00  0.74505805969E-08  0.10566000000E+00  0.10566000000E+00 0. -1.
     999900   -1    0    0    0    0 -0.00000000000E+00 -0.00000000000E+00 -0.74505805969E-08  0.93827000000E+00  0.93827000000E+00 0. -1.
     999902    2    1    2    0    0  0.11858273973E-02  0.15202460588E-02  0.25636681259E-01  0.10182209207E+01  0.10178963044E+01 0.  0.
     999903    2    3    3    0    0  0.11287536050E+00 -0.56861947638E-01 -0.12160712016E-01  0.12843910735E+00  0.19354412539E-01 0.  0.
         14    1    1    2    0    0 -0.11858273973E-02 -0.15202460588E-02 -0.25636681259E-01  0.25709079343E-01  0.00000000000E+00 0.  1.
     999901    1    3    3    0    0 -0.11168953310E+00  0.58382193697E-01  0.37797393274E-01  0.88978181330E+00  0.88000000000E+00 0.  1.
        -11    1    4    4    0    0  0.64823157687E-01 -0.24320812802E-01 -0.12741842923E-01  0.70399995667E-01  0.51100000000E-03 0.  1.
         11    1    4    4    0    0  0.48052202811E-01 -0.32541134836E-01  0.58113090751E-03  0.58039111688E-01  0.51100000000E-03 0. -1.
</event>
<event>
 8    1  0.1255979E+005  0.1043930E+01  0.7957747E-01            NaN
         13   -1    0    0    0    0  0.00000000000E+00  0.00000000000E+00  0.74505805969E-08  0.10566000000E+00  0.10566000000E+00 0. -1.
     999900   -1    0    0    0    0 -0.00000000000E+00 -0.00000000000E+00 -0.74505805969E-08  0.93827000000E+00  0.93827000000E+00 0. -1.
     999902    2    1    2    0    0 -0.23755142304E-01  0.21958284496E-02  0.39644799593E-02  0.10197464198E+01  0.10194596192E+01 0.  0.
     999903    2    3    3    0    0  0.51446619217E-01 -0.78259004172E-01  0.86587124362E-01  0.12904176261E+00  0.19576006464E-01 0.  0.
         14    1    1    2    0    0  0.23755142304E-01 -0.21958284496E-02 -0.39644799593E-02  0.24183580169E-01  0.00000000000E+00 0. -1.
     999901    1    3    3    0    0 -0.75201761521E-01  0.80454832622E-01 -0.82622644403E-01  0.89070465722E+00  0.88000000000E+00 0. -1.
        -11    1    4    4    0    0  0.11756812058E-01 -0.33732336591E-01  0.37465266252E-01  0.51768720846E-01  0.51100000000E-03 0.  1.
         11    1    4    4    0    0  0.39689807159E-01 -0.44526667581E-01  0.49121858110E-01  0.77273041763E-01  0.51100000000E-03 0. -1.
</event>
<event>
 8    1  0.1086235E+005  0.1043930E+01  0.7957747E-01            NaN
         13   -1    0    0    0    0  0.00000000000E+00  0.00000000000E+00  0.74505805969E-08  0.10566000000E+00  0.10566000000E+00 0.  1.
     999900   -1    0    0    0    0 -0.00000000000E+00 -0.00000000000E+00 -0.74505805969E-08  0.93827000000E+00  0.93827000000E+00 0. -1.
     999902    2    1    2    0    0  0.13615759416E-01 -0.17095178446E-01  0.18149003591E-01  0.10155218962E+01  0.10151244758E+01 0.  0.
     999903    2    3    3    0    0  0.11218423857E+00  0.28622556383E-01  0.50976599679E-01  0.12823191686E+00  0.20982294182E-01 0.  0.
         14    1    1    2    0    0 -0.13615759416E-01  0.17095178446E-01 -0.18149003591E-01  0.28408103807E-01  0.00000000000E+00 0. -1.
     999901    1    3    3    0    0 -0.98568479155E-01 -0.45717734829E-01 -0.32827596088E-01  0.88728997933E+00  0.88000000000E+00 0. -1.
        -11    1    4    4    0    0  0.49913198490E-01  0.23032862533E-01  0.27261199060E-01  0.61361830442E-01  0.51100000000E-03 0.  1.
         11    1    4    4    0    0  0.62271040080E-01  0.55896938501E-02  0.23715400619E-01  0.66870086417E-01  0.51100000000E-03 0. -1.
</event>
<event>
 8    1  0.1086235E+005  0.1043930E+01  0.7957747E-01            NaN
         13   -1    0    0    0    0  0.00000000000E+00  0.00000000000E+00  0.74505805969E-08  0.10566000000E+00  0.10566000000E+00 0. -1.
     999900   -1    0    0    0    0 -0.00000000000E+00 -0.00000000000E+00 -0.74505805969E-08  0.93827000000E+00  0.93827000000E+00 0.  1.
     999902    2    1    2    0    0 -0.17746559393E-01 -0.13818124934E-01  0.38024506840E-02  0.10211190470E+01  0.10208642263E+01 0.  0.
     999903    2    3    3    0    0  0.75052969148E-01 -0.10604154418E+00  0.16852121309E-02  0.13144416576E+00  0.19924143676E-01 0.  0.
         14    1    1    2    0    0  0.17746559393E-01  0.13818124934E-01 -0.38024506840E-02  0.22810953031E-01  0.00000000000E+00 0.  1.
     999901    1    3    3    0    0 -0.92799528542E-01  0.92223419251E-01  0.21172385532E-02  0.88967488121E+00  0.88000000000E+00 0. -1.
        -11    1    4    4    0    0  0.44000368321E-01 -0.64975505344E-01 -0.85873035849E-02  0.78942077569E-01  0.51100000000E-03 0. -1.
         11    1    4    4    0    0  0.31052600827E-01 -0.41066038840E-01  0.10272515716E-01  0.52502088190E-01  0.51100000000E-03 0.  1.
</event>
<event>
 8    1  0.1086235E+005  0.1043930E+01  0.7957747E-01            NaN
         13   -1    0    0    0    0  0.00000000000E+00  0.00000000000E+00  0.74505805969E-08  0.10566000000E+00  0.10566000000E+00 0.  1.
     999900   -1    0    0    0    0 -0.00000000000E+00 -0.00000000000E+00 -0.74505805969E-08  0.93827000000E+00  0.93827000000E+00 0. -1.
     999902    2    1    2    0    0 -0.22960229318E-01  0.27889743925E-02 -0.89077943264E-03  0.10207838557E+01  0.10205214040E+01 0.  0.
     999903    2    3    3    0    0  0.89286555067E-01 -0.63786161885E-01  0.64346005160E-01  0.12877072381E+00  0.20018180920E-01 0.  0.
         14    1    1    2    0    0  0.22960229318E-01 -0.27889743925E-02  0.89077943264E-03  0.23146144312E-01  0.00000000000E+00 0.  1.
     999901    1    3    3    0    0 -0.11224678439E+00  0.66575136278E-01 -0.65236784592E-01  0.89201313188E+00  0.88000000000E+00 0.  1.
        -11    1    4    4    0    0  0.19787562973E-01 -0.24892497073E-01  0.20781856076E-01  0.37991192689E-01  0.51100000000E-03 0.  1.
         11    1    4    4    0    0  0.69498992094E-01 -0.38893664812E-01  0.43564149083E-01  0.90779531123E-01  0.51100000000E-03 0. -1.
</event>
<event>
 8    1  0.1086235E+005  0.1043930E+01  0.7957747E-01            NaN
         13   -1    0    0    0    0  0.00000000000E+00  0.00000000000E+00  0.74505805969E-08  0.10566000000E+00  0.10566000000E+00 0. -1.
     999900   -1    0    0    0    0 -0.00000000000E+00 -0.00000000000E+00 -0.74505805969E-08  0.93827000000E+00  0.93827000000E+00 0.  1.
     999902    2    1    2    0    0  0.14278912308E-01 -0.11974237924E-01  0.15045122647E-01  0.10199795214E+01  0.10196982880E+01 0.  0.
     999903    2    3    3    0    0 -0.85574890336E-01 -0.75584527009E-01  0.60290148091E-01  0.13089900585E+00  0.21530564218E-01 0.  0.
         14    1    1    2    0    0 -0.14278912308E-01  0.11974237924E-01 -0.15045122647E-01  0.23950478617E-01  0.00000000000E+00 0. -1.
     999901    1    3    3    0    0  0.99853802643E-01  0.63610289085E-01 -0.45245025444E-01  0.88908051554E+00  0.88000000000E+00 0.  1.
        -11    1    4    4    0    0 -0.11259184888E-01 -0.21004546898E-01  0.15062248331E-01  0.28197387832E-01  0.51100000000E-03 0.  1.
         11    1    4    4    0    0 -0.74315705448E-01 -0.54579980110E-01  0.45227899759E-01  0.10270161801E+00  0.51100000000E-03 0. -1.
</event>
<event>
 8    1  0.1086235E+005  0.1043930E+01  0.7957747E-01            NaN
         13   -1    0    0    0    0  0.00000000000E+00  0.00000000000E+00  0.74505805969E-08  0.10566000000E+00  0.10566000000E+00 0.  1.
     999900   -1    0    0    0    0 -0.00000000000E+00 -0.00000000000E+00 -0.74505805969E-08  0.93827000000E+00  0.93827000000E+00 0.  1.
     999902    2    1    2    0    0 -0.19755851608E-01  0.10814961732E-01 -0.67006414113E-02  0.10204320072E+01  0.10201614214E+01 0.  0.
     999903    2    3    3    0    0  0.72934714843E-01 -0.72670859632E-01  0.73397931971E-01  0.12803231820E+00  0.20111976969E-01 0.  0.
         14    1    1    2    0    0  0.19755851608E-01 -0.10814961732E-01  0.67006414113E-02  0.23497992794E-01  0.00000000000E+00 0.  1.
     999901    1    3    3    0    0 -0.92690566451E-01  0.83485821364E-01 -0.80098573382E-01  0.89239968900E+00  0.88000000000E+00 0.  1.
        -11    1    4    4    0    0  0.27985834212E-01 -0.39789269278E-01  0.40850791782E-01  0.63525122404E-01  0.51100000000E-03 0. -1.
         11    1    4    4    0    0  0.44948880632E-01 -0.32881590353E-01  0.32547140189E-01  0.64507195798E-01  0.51100000000E-03 0.  1.
</event>
<event>
 8    1  0.1086235E+005  0.1043930E+01  0.7957747E-01            NaN
         13   -1    0    0    0    0  0.00000000000E+00  0.00000000000E+00  0.74505805969E-08  0.10566000000E+00  0.10566000000E+00 0. -1.
     999900   -1    0    0    0    0 -0.00000000000E+00 -0.00000000000E+00 -0.74505805969E-08  0.93827000000E+00  0.93827000000E+00 0. -1.
     999902    2    1    2    0    0 -0.11496376823E-01 -0.89789193200E-02  0.19318126811E-01  0.10197230238E+01  0.10194356613E+01 0.  0.
     999903    2    3    3    0    0 -0.33189857966E-01  0.84814678798E-01 -0.87712967893E-01  0.12802604536E+00  0.20050115747E-01 0.  0.
         14    1    1    2    0    0  0.11496376823E-01  0.89789193200E-02 -0.19318126811E-01  0.24206976178E-01  0.00000000000E+00 0.  1.
     999901    1    3    3    0    0  0.21693481143E-01 -0.93793598118E-01  0.10703109470E+00  0.89169697847E+00  0.88000000000E+00 0.  1.
        -11    1    4    4    0    0 -0.10951826565E-01  0.26840393656E-01 -0.15817666704E-01  0.33027396774E-01  0.51100000000E-03 0.  1.
         11    1    4    4    0    0 -0.22238031401E-01  0.57974285141E-01 -0.71895301189E-01  0.94998648582E-01  0.51100000000E-03 0. -1.
</event>
<event>
 8    1  0.1086235E+005  0.1043930E+01  0.7957747E-01            NaN
         13   -1    0    0    0    0  0.00000000000E+00  0.00000000000E+00  0.74505805969E-08  0.10566000000E+00  0.10566000000E+00 0.  1.
     999900   -1    0    0    0    0 -0.00000000000E+00 -0.00000000000E+00 -0.74505805969E-08  0.93827000000E+00  0.93827000000E+00 0. -1.
     999902    2    1    2    0    0  0.10585774186E-01 -0.16076141759E-01 -0.11011049054E-01  0.10217546950E+01  0.10215140296E+01 0.  0.
     999903    2    3    3    0    0  0.32306922816E-01 -0.33332856037E-01  0.12144235273E+00  0.13141009538E+00  0.19119403183E-01 0.  0.
         14    1    1    2    0    0 -0.10585774186E-01  0.16076141759E-01  0.11011049054E-01  0.22175304964E-01  0.00000000000E+00 0. -1.
     999901    1    3    3    0    0 -0.21721148630E-01  0.17256714277E-01 -0.13245340179E+00  0.89034459965E+00  0.88000000000E+00 0. -1.
        -11    1    4    4    0    0  0.21175244323E-01 -0.82745587685E-02  0.52493315570E-01  0.57207242509E-01  0.51100000000E-03 0.  1.
         11    1    4    4    0    0  0.11131678493E-01 -0.25058297268E-01  0.68949037163E-01  0.74202852875E-01  0.51100000000E-03 0. -1.
</event>
<event>
 8    1  0.1086235E+005  0.1043930E+01  0.7957747E-01            NaN
         13   -1    0    0    0    0  0.00000000000E+00  0.00000000000E+00  0.74505805969E-08  0.10566000000E+00  0.10566000000E+00 0.  1.
     999900   -1    0    0    0    0 -0.00000000000E+00 -0.00000000000E+00 -0.74505805969E-08  0.93827000000E+00  0.93827000000E+00 0.  1.
     999902    2    1    2    0    0 -0.21047963655E-01  0.93087323573E-02  0.77402893881E-03  0.10209024427E+01  0.10206427040E+01 0.  0.
     999903    2    3    3    0    0  0.83019633779E-01  0.88224945489E-01  0.43508598182E-01  0.13023747940E+00  0.19821763929E-01 0.  0.
         14    1    1    2    0    0  0.21047963655E-01 -0.93087323573E-02 -0.77402893881E-03  0.23027557250E-01  0.00000000000E+00 0. -1.
     999901    1    3    3    0    0 -0.10406759743E+00 -0.78916213132E-01 -0.42734569243E-01  0.89066496335E+00  0.88000000000E+00 0.  1.
        -11    1    4    4    0    0  0.30925596327E-01  0.24837528616E-01  0.63759092196E-02  0.40177215873E-01  0.51100000000E-03 0.  1.
         11    1    4    4    0    0  0.52094037452E-01  0.63387416873E-01  0.37132688963E-01  0.90060263526E-01  0.51100000000E-03 0. -1.
</event>
<event>
 8    1  0.1086235E+005  0.1043930E+01  0.7957747E-01            NaN
         13   -1    0    0    0    0  0.00000000000E+00  0.00000000000E+00  0.74505805969E-08  0.10566000000E+00  0.10566000000E+00 0. -1.
     999900   -1    0    0    0    0 -0.00000000000E+00 -0.00000000000E+00 -0.74505805969E-08  0.93827000000E+00  0.93827000000E+00 0. -1.
     999902    2    1    2    0    0 -0.19021086822E-01 -0.75683920343E-02 -0.12104455988E-01  0.10201476503E+01  0.10198703978E+01 0.  0.
     999903    2    3    3    0    0 -0.88426105060E-02 -0.83336396781E-01  0.97291130358E-01  0.13008485127E+00  0.20817245142E-01 0.  0.
         14    1    1    2    0    0  0.19021086822E-01  0.75683920343E-02  0.12104455988E-01  0.23782349687E-01  0.00000000000E+00 0. -1.
     999901    1    3    3    0    0 -0.10178476316E-01  0.75768004746E-01 -0.10939558635E+00  0.89006279904E+00  0.88000000000E+00 0. -1.
        -11    1    4    4    0    0  0.41155973731E-02 -0.52485176165E-01  0.64110617073E-01  0.82958207558E-01  0.51100000000E-03 0. -1.
         11    1    4    4    0    0 -0.12958207879E-01 -0.30851220616E-01  0.33180513286E-01  0.47126643715E-01  0.51100000000E-03 0.  1.
</event>
<event>
 8    1  0.1086235E+005  0.1043930E+01  0.7957747E-01            NaN
         13   -1    0    0    0    0  0.00000000000E+00  0.00000000000E+00  0.74505805969E-08  0.10566000000E+00  0.10566000000E+00 0. -1.
     999900   -1    0    0    0    0 -0.00000000000E+00 -0.00000000000E+00 -0.74505805969E-08  0.93827000000E+00  0.93827000000E+00 0.  1.
     999902    2    1    2    0    0 -0.26817602893E-02  0.23143824095E-02  0.15397149818E-01  0.10281306194E+01  0.10280092170E+01 0.  0.
     999903    2    3    3    0    0 -0.13259533698E+00 -0.18382336063E-01 -0.23917969927E-01  0.13748390483E+00  0.20256385020E-01 0.  0.
         14    1    1    2    0    0  0.26817602893E-02 -0.23143824095E-02 -0.15397149818E-01  0.15799380579E-01  0.00000000000E+00 0.  1.
     999901    1    3    3    0    0  0.12991357669E+00  0.20696718473E-01  0.39315119745E-01  0.89064671459E+00  0.88000000000E+00 0. -1.
        -11    1    4    4    0    0 -0.77943235346E-01 -0.81969035810E-03 -0.15232593474E-01  0.79423629062E-01  0.51100000000E-03 0. -1.
         11    1    4    4    0    0 -0.54652101636E-01 -0.17562645705E-01 -0.86853764539E-02  0.58060275771E-01  0.51100000000E-03 0.  1.
</event>
<event>
 8    1  0.1086235E+005  0.1043930E+01  0.7957747E-01            NaN
         13   -1    0    0    0    0  0.00000000000E+00  0.00000000000E+00  0.74505805969E-08  0.10566000000E+00  0.10566000000E+00 0.  1.
     999900   -1    0    0    0    0 -0.00000000000E+00 -0.00000000000E+00 -0.74505805969E-08  0.93827000000E+00  0.93827000000E+00 0.  1.
     999902    2    1    2    0    0 -0.16015245805E-01  0.47017470878E-02 -0.16237257176E-01  0.10206438873E+01  0.10203782150E+01 0.  0.
     999903    2    3    3    0    0 -0.79565939064E-01  0.29348184544E-01  0.97334853784E-01  0.13073110400E+00  0.20603232707E-01 0.  0.
         14    1    1    2    0    0  0.16015245805E-01 -0.47017470878E-02  0.16237257176E-01  0.23286112696E-01  0.00000000000E+00 0.  1.
     999901    1    3    3    0    0  0.63550693259E-01 -0.24646437456E-01 -0.11357211096E+00  0.88991278330E+00  0.88000000000E+00 0.  1.
        -11    1    4    4    0    0 -0.61941492447E-01  0.24841085570E-01  0.87493358923E-01  0.11004170571E+00  0.51100000000E-03 0. -1.
         11    1    4    4    0    0 -0.17624446617E-01  0.45070989732E-02  0.98414948611E-02  0.20689398295E-01  0.51100000000E-03 0.  1.
</event>
<event>
 8    1  0.1086235E+005  0.1043930E+01  0.7957747E-01            NaN
         13   -1    0    0    0    0  0.00000000000E+00  0.00000000000E+00  0.74505805969E-08  0.10566000000E+00  0.10566000000E+00 0. -1.
     999900   -1    0    0    0    0 -0.00000000000E+00 -0.00000000000E+00 -0.74505805969E-08  0.93827000000E+00  0.93827000000E+00 0.  1.
     999902    2    1    2    0    0  0.36164062241E-02 -0.21115646654E-01 -0.10104816754E-01  0.10202433740E+01  0.10199683750E+01 0.  0.
     999903    2    3    3    0    0 -0.78641078148E-01  0.49032147961E-01 -0.88914297703E-01  0.13013217812E+00  0.20977624735E-01 0.  0.
         14    1    1    2    0    0 -0.36164062241E-02  0.21115646654E-01  0.10104816754E-01  0.23686625957E-01  0.00000000000E+00 0. -1.
     999901    1    3    3    0    0  0.82257484372E-01 -0.70147794615E-01  0.78809480950E-01  0.89011119593E+00  0.88000000000E+00 0. -1.
        -11    1    4    4    0    0 -0.65049516985E-01  0.40410818061E-01 -0.83113460247E-01  0.11301584965E+00  0.51100000000E-03 0. -1.
         11    1    4    4    0    0 -0.13591561163E-01  0.86213299003E-02 -0.58008374568E-02  0.17116328470E-01  0.51100000000E-03 0.  1.
</event>
<event>
 8    1  0.1086235E+005  0.1043930E+01  0.7957747E-01            NaN
         13   -1    0    0    0    0  0.00000000000E+00  0.00000000000E+00  0.74505805969E-08  0.10566000000E+00  0.10566000000E+00 0.  1.
     999900   -1    0    0    0    0 -0.00000000000E+00 -0.00000000000E+00 -0.74505805969E-08  0.93827000000E+00  0.93827000000E+00 0. -1.
     999902    2    1    2    0    0  0.11271449411E-01 -0.85824339449E-02  0.19604677296E-01  0.10197422528E+01  0.10194553521E+01 0.  0.
     999903    2    3    3    0    0 -0.75771481739E-01  0.61218969094E-01 -0.79279542632E-01  0.12720273169E+00  0.20154638391E-01 0.  0.
         14    1    1    2    0    0 -0.11271449411E-01  0.85824339449E-02 -0.19604677296E-01  0.24187747231E-01  0.00000000000E+00 0.  1.
     999901    1    3    3    0    0  0.87042931149E-01 -0.69801403039E-01  0.98884219928E-01  0.89253952107E+00  0.88000000000E+00 0.  1.
        -11    1    4    4    0    0 -0.32908591064E-01  0.18247227678E-01 -0.21189983518E-01  0.43188114179E-01  0.51100000000E-03 0.  1.
         11    1    4    4    0    0 -0.42862890674E-01  0.42971741416E-01 -0.58089559114E-01  0.84014617515E-01  0.51100000000E-03 0. -1.
</event>
<event>
 8    1  0.1086235E+005  0.1043930E+01  0.7957747E-01            NaN
         13   -1    0    0    0    0  0.00000000000E+00  0.00000000000E+00  0.74505805969E-08  0.10566000000E+00  0.10566000000E+00 0.  1.
     999900   -1    0    0    0    0 -0.00000000000E+00 -0.00000000000E+00 -0.74505805969E-08  0.93827000000E+00  0.93827000000E+00 0. -1.
     999902    2    1    2    0    0  0.39735287258E-02 -0.18991317281E-01  0.14490710266E-01  0.10197134819E+01  0.10194258902E+01 0.  0.
     999903    2    3    3    0    0  0.11671529519E+00 -0.49971256781E-01 -0.25210704009E-01  0.13109282899E+00  0.20740385271E-01 0.  0.
         14    1    1    2    0    0 -0.39735287258E-02  0.18991317281E-01 -0.14490710266E-01  0.24216518053E-01  0.00000000000E+00 0. -1.
     999901    1    3    3    0    0 -0.11274176647E+00  0.30979939500E-01  0.39701414275E-01  0.88862065295E+00  0.88000000000E+00 0.  1.
        -11    1    4    4    0    0  0.22910425713E-01 -0.12675212697E-01  0.27811537854E-02  0.26335234205E-01  0.51100000000E-03 0. -1.
         11    1    4    4    0    0  0.93804869479E-01 -0.37296044084E-01 -0.27991857795E-01  0.10475759479E+00  0.51100000000E-03 0.  1.
</event>
<event>
 8    1  0.1086235E+005  0.1043930E+01  0.7957747E-01            NaN
         13   -1    0    0    0    0  0.00000000000E+00  0.00000000000E+00  0.74505805969E-08  0.10566000000E+00  0.10566000000E+00 0. -1.
     999900   -1    0    0    0    0 -0.00000000000E+00 -0.00000000000E+00 -0.74505805969E-08  0.93827000000E+00  0.93827000000E+00 0.  1.
     999902    2    1    2    0    0  0.21410388580E-01  0.98739626926E-02 -0.56347792740E-03  0.10203457386E+01  0.10200731390E+01 0.  0.
     999903    2    3    3    0    0 -0.11060257824E+00  0.15776883165E-01  0.60543406665E-01  0.12838367706E+00  0.18303663312E-01 0.  0.
         14    1    1    2    0    0 -0.21410388580E-01 -0.98739626926E-02  0.56347792740E-03  0.23584261399E-01  0.00000000000E+00 0.  1.
     999901    1    3    3    0    0  0.13201296682E+00 -0.59029204720E-02 -0.61106884592E-01  0.89196206154E+00  0.88000000000E+00 0.  1.
        -11    1    4    4    0    0 -0.64618243676E-01  0.88022313458E-02  0.45416134183E-01  0.79472530207E-01  0.51100000000E-03 0.  1.
         11    1    4    4    0    0 -0.45984334561E-01  0.69746518188E-02  0.15127272481E-01  0.48911146856E-01  0.51100000000E-03 0. -1.
</event>
<event>
 8    1  0.1086235E+005  0.1043930E+01  0.7957747E-01            NaN
         13   -1    0    0    0    0  0.00000000000E+00  0.00000000000E+00  0.74505805969E-08  0.10566000000E+00  0.10566000000E+00 0. -1.
     999900   -1    0    0    0    0 -0.00000000000E+00 -0.00000000000E+00 -0.74505805969E-08  0.93827000000E+00  0.93827000000E+00 0.  1.
     999902    2    1    2    0    0 -0.16261571801E-01 -0.42577927516E-02 -0.15535675392E-01  0.10210405979E+01  0.10207840016E+01 0.  0.
     999903    2    3    3    0    0  0.87494417868E-01 -0.94510212694E-01  0.10592869451E-02  0.13020604682E+00  0.19105995884E-01 0.  0.
         14    1    1    2    0    0  0.16261571801E-01  0.42577927516E-02  0.15535675392E-01  0.22889402055E-01  0.00000000000E+00 0. -1.
     999901    1    3    3    0    0 -0.10375598967E+00  0.90252419943E-01 -0.16594962337E-01  0.89083455112E+00  0.88000000000E+00 0.  1.
        -11    1    4    4    0    0  0.44284260502E-01 -0.44075335349E-01 -0.86729577856E-02  0.63080997393E-01  0.51100000000E-03 0.  1.
         11    1    4    4    0    0  0.43210157367E-01 -0.50434877345E-01  0.97322447308E-02  0.67125049430E-01  0.51100000000E-03 0. -1.
</event>
<event>
 8    1  0.1086235E+005  0.1043930E+01  0.7957747E-01            NaN
         13   -1    0    0    0    0  0.00000000000E+00  0.00000000000E+00  0.74505805969E-08  0.10566000000E+00  0.10566000000E+00 0.  1.
     999900   -1    0    0    0    0 -0.00000000000E+00 -0.00000000000E+00 -0.74505805969E-08  0.93827000000E+00  0.93827000000E+00 0.  1.
     999902    2    1    2    0    0  0.11244298852E-01 -0.14577169216E-01  0.14874293580E-01  0.10202620316E+01  0.10199874707E+01 0.  0.
     999903    2    3    3    0    0 -0.92389279972E-01 -0.79994861297E-01 -0.40424702546E-01  0.13005005006E+00  0.18544596418E-01 0.  0.
         14    1    1    2    0    0 -0.11244298852E-01  0.14577169216E-01 -0.14874293580E-01  0.23667968407E-01  0.00000000000E+00 0. -1.
     999901    1    3    3    0    0  0.10363357882E+00  0.65417692081E-01  0.55298996126E-01  0.89021198154E+00  0.88000000000E+00 0. -1.
        -11    1    4    4    0    0 -0.57798385511E-01 -0.44837964048E-01 -0.15460557044E-01  0.74768886128E-01  0.51100000000E-03 0. -1.
         11    1    4    4    0    0 -0.34590894461E-01 -0.35156897248E-01 -0.24964145502E-01  0.55281163929E-01  0.51100000000E-03 0.  1.
</event>
<event>
 8    1  0.1086235E+005  0.1043930E+01  0.7957747E-01            NaN
         13   -1    0    0    0    0  0.00000000000E+00  0.00000000000E+00  0.74505805969E-08  0.10566000000E+00  0.10566000000E+00 0. -1.
     999900   -1    0    0    0    0 -0.00000000000E+00 -0.00000000000E+00 -0.74505805969E-08  0.93827000000E+00  0.93827000000E+00 0. -1.
     999902    2    1    2    0    0 -0.74125596727E-02  0.10897973155E-01 -0.17246747113E-01  0.10222237303E+01  0.10219932449E+01 0.  0.
     999903    2    3    3    0    0  0.11795474080E+00 -0.31956891628E-01 -0.45035944743E-01  0.13187226092E+00  0.20675905832E-01 0.  0.
         14    1    1    2    0    0  0.74125596727E-02 -0.10897973155E-01  0.17246747113E-01  0.21706269734E-01  0.00000000000E+00 0. -1.
     999901    1    3    3    0    0 -0.12536730047E+00  0.42854864783E-01  0.27789197631E-01  0.89035146935E+00  0.88000000000E+00 0.  1.
        -11    1    4    4    0    0  0.95239950182E-01 -0.26879588169E-01 -0.44700447556E-01  0.10858891059E+00  0.51100000000E-03 0.  1.
         11    1    4    4    0    0  0.22714790615E-01 -0.50773034590E-02 -0.33549718704E-03  0.23283350327E-01  0.51100000000E-03 0. -1.
</event>
<event>
 8    1  0.1086235E+005  0.1043930E+01  0.7957747E-01            NaN
         13   -1    0    0    0    0  0.00000000000E+00  0.00000000000E+00  0.74505805969E-08  0.10566000000E+00  0.10566000000E+00 0.  1.
     999900   -1    0    0    0    0 -0.00000000000E+00 -0.00000000000E+00 -0.74505805969E-08  0.93827000000E+00  0.93827000000E+00 0.  1.
     999902    2    1    2    0    0 -0.16626731218E-01  0.16350911771E-01 -0.28444407972E-03  0.10206087347E+01  0.10203422504E+01 0.  0.
     999903    2    3    3    0    0  0.77665181262E-01  0.10174194330E+00  0.20670047310E-01  0.13121473667E+00  0.20168114867E-01 0.  0.
         14    1    1    2    0    0  0.16626731218E-01 -0.16350911771E-01  0.28444407972E-03  0.23321265300E-01  0.00000000000E+00 0.  1.
     999901    1    3    3    0    0 -0.94291912481E-01 -0.85391031525E-01 -0.20954491389E-01  0.88939399803E+00  0.88000000000E+00 0.  1.
        -11    1    4    4    0    0  0.63080194322E-01  0.68726125325E-01  0.18084906885E-01  0.95024818842E-01  0.51100000000E-03 0. -1.
         11    1    4    4    0    0  0.14584986940E-01  0.33015817971E-01  0.25851404248E-02  0.36189917828E-01  0.51100000000E-03 0.  1.
</event>
<event>
 8    1  0.1086235E+005  0.1043930E+01  0.7957747E-01            NaN
         13   -1    0    0    0    0  0.00000000000E+00  0.00000000000E+00  0.74505805969E-08  0.10566000000E+00  0.10566000000E+00 0. -1.
     999900   -1    0    0    0    0 -0.00000000000E+00 -0.00000000000E+00 -0.74505805969E-08  0.93827000000E+00  0.93827000000E+00 0.  1.
     999902    2    1    2    0    0 -0.69935573761E-02  0.21825448052E-01 -0.64557068932E-02  0.10201195784E+01  0.10198416632E+01 0.  0.
     999903    2    3    3    0    0 -0.52184917396E-01  0.11317044755E+00  0.41669631801E-01  0.13293176499E+00  0.20091792558E-01 0.  0.
         14    1    1    2    0    0  0.69935573761E-02 -0.21825448052E-01  0.64557068932E-02  0.23810421645E-01  0.00000000000E+00 0. -1.
     999901    1    3    3    0    0  0.45191360020E-01 -0.91344999495E-01 -0.48125338694E-01  0.88718781336E+00  0.88000000000E+00 0. -1.
        -11    1    4    4    0    0 -0.14403151249E-01  0.40483914641E-01  0.52933182610E-02  0.43297557088E-01  0.51100000000E-03 0.  1.
         11    1    4    4    0    0 -0.37781766148E-01  0.72686532905E-01  0.36376313540E-01  0.89634207905E-01  0.51100000000E-03 0. -1.
</event>
<event>
 8    1  0.1086235E+005  0.1043930E+01  0.7957747E-01            NaN
         13   -1    0    0    0    0  0.00000000000E+00  0.00000000000E+00  0.74505805969E-08  0.10566000000E+00  0.10566000000E+00 0. -1.
     999900   -1    0    0    0    0 -0.00000000000E+00 -0.00000000000E+00 -0.74505805969E-08  0.93827000000E+00  0.93827000000E+00 0. -1.
     999902    2    1    2    0    0  0.22367627368E-01  0.13394043942E-03 -0.31316676788E-02  0.10213438087E+01  0.10210940405E+01 0.  0.
     999903    2    3    3    0    0 -0.21876011810E-01 -0.28524681445E-01 -0.12479924628E+00  0.13141020676E+00  0.20039291972E-01 0.  0.
         14    1    1    2    0    0 -0.22367627368E-01 -0.13394043942E-03  0.31316676788E-02  0.22586191281E-01  0.00000000000E+00 0. -1.
     999901    1    3    3    0    0  0.44243639179E-01  0.28658621885E-01  0.12166757861E+00  0.88993360196E+00  0.88000000000E+00 0.  1.
        -11    1    4    4    0    0 -0.10377243873E-01 -0.25545562025E-01 -0.67988105318E-01  0.73368293665E-01  0.51100000000E-03 0.  1.
         11    1    4    4    0    0 -0.11498767937E-01 -0.29791194201E-02 -0.56811140967E-01  0.58041913093E-01  0.51100000000E-03 0. -1.
</event>
<event>
 8    1  0.1086235E+005  0.1043930E+01  0.7957747E-01            NaN
         13   -1    0    0    0    0  0.00000000000E+00  0.00000000000E+00  0.74505805969E-08  0.10566000000E+00  0.10566000000E+00 0. -1.
     999900   -1    0    0    0    0 -0.00000000000E+00 -0.00000000000E+00 -0.74505805969E-08  0.93827000000E+00  0.93827000000E+00 0.  1.
     999902    2    1    2    0    0 -0.38406255597E-02  0.20189058128E-01  0.92924116351E-02  0.10213756792E+01  0.10211266232E+01 0.  0.
     999903    2    3    3    0    0 -0.12739261078E+00  0.30741943112E-01  0.32343072405E-02  0.13266135105E+00  0.20362440229E-01 0.  0.
         14    1    1    2    0    0  0.38406255597E-02 -0.20189058128E-01 -0.92924116351E-02  0.22554320801E-01  0.00000000000E+00 0. -1.
     999901    1    3    3    0    0  0.12355198522E+00 -0.10552884984E-01  0.60581043946E-02  0.88871432815E+00  0.88000000000E+00 0.  1.
        -11    1    4    4    0    0 -0.91247233542E-01  0.14500367506E-01  0.80315498607E-02  0.92742035782E-01  0.51100000000E-03 0.  1.
         11    1    4    4    0    0 -0.36145377234E-01  0.16241575607E-01 -0.47972426202E-02  0.39919315266E-01  0.51100000000E-03 0. -1.
</event>
<event>
 8    1  0.1086235E+005  0.1043930E+01  0.7957747E-01            NaN
         13   -1    0    0    0    0  0.00000000000E+00  0.00000000000E+00  0.74505805969E-08  0.10566000000E+00  0.10566000000E+00 0. -1.
     999900   -1    0    0    0    0 -0.00000000000E+00 -0.00000000000E+00 -0.74505805969E-08  0.93827000000E+00  0.93827000000E+00 0. -1.
     999902    2    1    2    0    0 -0.12126324844E-01  0.14798223147E-02  0.21436403681E-01  0.10192569979E+01  0.10189583263E+01 0.  0.
     999903    2    3    3    0    0 -0.10919632594E+00  0.11338942556E-01 -0.65795271932E-01  0.12957775652E+00  0.20222956225E-01 0.  0.
         14    1    1    2    0    0  0.12126324844E-01 -0.14798223147E-02 -0.21436403681E-01  0.24673002069E-01  0.00000000000E+00 0.  1.
     999901    1    3    3    0    0  0.97070001100E-01 -0.98591202413E-02  0.87231675614E-01  0.88967924141E+00  0.88000000000E+00 0.  1.
        -11    1    4    4    0    0 -0.26430516305E-01 -0.40124395284E-02 -0.22348066165E-01  0.34847798287E-01  0.51100000000E-03 0.  1.
         11    1    4    4    0    0 -0.82765809639E-01  0.15351382084E-01 -0.43447205767E-01  0.94729958234E-01  0.51100000000E-03 0. -1.
</event>
<event>
 8    1  0.1086235E+005  0.1043930E+01  0.7957747E-01            NaN
         13   -1    0    0    0    0  0.00000000000E+00  0.00000000000E+00  0.74505805969E-08  0.10566000000E+00  0.10566000000E+00 0.  1.
     999900   -1    0    0    0    0 -0.00000000000E+00 -0.00000000000E+00 -0.74505805969E-08  0.93827000000E+00  0.93827000000E+00 0. -1.
     999902    2    1    2    0    0 -0.53063332471E-02 -0.23014183386E-01 -0.28369311835E-02  0.10201422303E+01  0.10198648499E+01 0.  0.
     999903    2    3    3    0    0 -0.92234980735E-01  0.74449563242E-01 -0.47938488607E-01  0.12936171740E+00  0.19655179973E-01 0.  0.
         14    1    1    2    0    0  0.53063332471E-02  0.23014183386E-01  0.28369311835E-02  0.23787769714E-01  0.00000000000E+00 0. -1.
     999901    1    3    3    0    0  0.86928647488E-01 -0.97463746628E-01  0.45101557424E-01  0.89078051289E+00  0.88000000000E+00 0.  1.
        -11    1    4    4    0    0 -0.79738855769E-01  0.66471810137E-01 -0.48354208266E-01  0.11452151431E+00  0.51100000000E-03 0.  1.
         11    1    4    4    0    0 -0.12496124966E-01  0.79777531050E-02  0.41571965867E-03  0.14840203085E-01  0.51100000000E-03 0. -1.
</event>
<event>
 8    1  0.1086235E+005  0.1043930E+01  0.7957747E-01            NaN
         13   -1    0    0    0    0  0.00000000000E+00  0.00000000000E+00  0.74505805969E-08  0.10566000000E+00  0.10566000000E+00 0.  1.
     999900   -1    0    0    0    0 -0.00000000000E+00 -0.00000000000E+00 -0.74505805969E-08  0.93827000000E+00  0.93827000000E+00 0. -1.
     999902    2    1    2    0    0  0.74234743551E-02 -0.10225736457E-01  0.19648045465E-01  0.10205693633E+01  0.10203019680E+01 0.  0.
     999903    2    3    3    0    0 -0.86278174336E-02 -0.59361402829E-01 -0.11255019346E+00  0.12919495706E+00  0.20629481379E-01 0.  0.
         14    1    1    2    0    0 -0.74234743551E-02  0.10225736457E-01 -0.19648045465E-01  0.23360636724E-01  0.00000000000E+00 0. -1.
     999901    1    3    3    0    0  0.16051291789E-01  0.49135666373E-01  0.13219823893E+00  0.89137440621E+00  0.88000000000E+00 0.  1.
        -11    1    4    4    0    0  0.41906522823E-02 -0.20744462191E-02 -0.93121306014E-02  0.10432726921E-01  0.51100000000E-03 0. -1.
         11    1    4    4    0    0 -0.12818469716E-01 -0.57286956610E-01 -0.10323806286E+00  0.11876223014E+00  0.51100000000E-03 0.  1.
</event>
<event>
 8    1  0.1086235E+005  0.1043930E+01  0.7957747E-01            NaN
         13   -1    0    0    0    0  0.00000000000E+00  0.00000000000E+00  0.74505805969E-08  0.10566000000E+00  0.10566000000E+00 0. -1.
     999900   -1    0    0    0    0 -0.00000000000E+00 -0.00000000000E+00 -0.74505805969E-08  0.93827000000E+00  0.93827000000E+00 0. -1.
     999902    2    1    2    0    0 -0.14897251732E-01 -0.15145667662E-01 -0.12585198556E-01  0.10192377627E+01  0.10189386196E+01 0.  0.
     999903    2    3    3    0    0 -0.12424186601E+00 -0.16865312173E-01 -0.36590592022E-01  0.13214393413E+00  0.20066586117E-01 0.  0.
         14    1    1    2    0    0  0.14897251732E-01  0.15145667662E-01  0.12585198556E-01  0.24692237258E-01  0.00000000000E+00 0. -1.
     999901    1    3    3    0    0  0.10934461428E+00  0.17196445113E-02  0.24005393465E-01  0.88709382861E+00  0.88000000000E+00 0. -1.
        -11    1    4    4    0    0 -0.33793396620E-01 -0.13438920724E-01 -0.82369976826E-02  0.37292190834E-01  0.51100000000E-03 0.  1.
         11    1    4    4    0    0 -0.90448469389E-01 -0.34263914493E-02 -0.28353594339E-01  0.94851743295E-01  0.51100000000E-03 0. -1.
</event>
<event>
 8    1  0.1086235E+005  0.1043930E+01  0.7957747E-01            NaN
         13   -1    0    0    0    0  0.00000000000E+00  0.00000000000E+00  0.74505805969E-08  0.10566000000E+00  0.10566000000E+00 0. -1.
     999900   -1    0    0    0    0 -0.00000000000E+00 -0.00000000000E+00 -0.74505805969E-08  0.93827000000E+00  0.93827000000E+00 0.  1.
     999902    2    1    2    0    0 -0.10347548349E-01  0.19276149417E-01 -0.14572313687E-01  0.10176432349E+01  0.10173036712E+01 0.  0.
     999903    2    3    3    0    0  0.12069022215E-01 -0.91664811572E-01 -0.85516881746E-01  0.12756260305E+00  0.20272682487E-01 0.  0.
         14    1    1    2    0    0  0.10347548349E-01 -0.19276149417E-01  0.14572313687E-01  0.26286765099E-01  0.00000000000E+00 0. -1.
     999901    1    3    3    0    0 -0.22416570563E-01  0.11094096099E+00  0.70944568059E-01  0.89008063185E+00  0.88000000000E+00 0. -1.
        -11    1    4    4    0    0 -0.29749785801E-02 -0.31914466817E-01 -0.20854003035E-01  0.38243094192E-01  0.51100000000E-03 0.  1.
         11    1    4    4    0    0  0.15044000795E-01 -0.59750344755E-01 -0.64662878711E-01  0.89319508857E-01  0.51100000000E-03 0. -1.
</event>
<event>
 8    1  0.1086235E+005  0.1043930E+01  0.7957747E-01            NaN
         13   -1    0    0    0    0  0.00000000000E+00  0.00000000000E+00  0.74505805969E-08  0.10566000000E+00  0.10566000000E+00 0.  1.
     999900   -1    0    0    0    0 -0.00000000000E+00 -0.00000000000E+00 -0.74505805969E-08  0.93827000000E+00  0.93827000000E+00 0. -1.
     999902    2    1    2    0    0 -0.15728934843E-01  0.15539505317E-01 -0.10112231701E-01  0.10196167763E+01  0.10193268552E+01 0.  0.
     999903    2    3    3    0    0  0.84899715531E-01 -0.87790767912E-01 -0.32074076041E-01  0.12760467254E+00  0.18412644374E-01 0.  0.
         14    1    1    2    0    0  0.15728934843E-01 -0.15539505317E-01  0.10112231701E-01  0.24313223702E-01  0.00000000000E+00 0. -1.
     999901    1    3    3    0    0 -0.10062865037E+00  0.10333027323E+00  0.21961844340E-01  0.89201210376E+00  0.88000000000E+00 0. -1.
        -11    1    4    4    0    0  0.50956645543E-01 -0.44613826777E-01 -0.10234985065E-01  0.68498097090E-01  0.51100000000E-03 0. -1.
         11    1    4    4    0    0  0.33943069988E-01 -0.43176941135E-01 -0.21839090976E-01  0.59106575452E-01  0.51100000000E-03 0.  1.
</event>
<event>
 8    1  0.1086235E+005  0.1043930E+01  0.7957747E-01            NaN
         13   -1    0    0    0    0  0.00000000000E+00  0.00000000000E+00  0.74505805969E-08  0.10566000000E+00  0.10566000000E+00 0.  1.
     999900   -1    0    0    0    0 -0.00000000000E+00 -0.00000000000E+00 -0.74505805969E-08  0.93827000000E+00  0.93827000000E+00 0. -1.
     999902    2    1    2    0    0 -0.60947771477E-02 -0.10369399952E-01 -0.18601014874E-01  0.10217789612E+01  0.10215388280E+01 0.  0.
     999903    2    3    3    0    0  0.58041462691E-02  0.12599015347E+00  0.26989315161E-01  0.13003124446E+00  0.16507407942E-01 0.  0.
         14    1    1    2    0    0  0.60947771477E-02  0.10369399952E-01  0.18601014874E-01  0.22151038760E-01  0.00000000000E+00 0.  1.
     999901    1    3    3    0    0 -0.11898923417E-01 -0.13635955342E+00 -0.45590330034E-01  0.89174771678E+00  0.88000000000E+00 0. -1.
        -11    1    4    4    0    0 -0.31581248982E-02  0.83283269375E-01  0.21286476942E-01  0.86020067033E-01  0.51100000000E-03 0. -1.
         11    1    4    4    0    0  0.89622711673E-02  0.42706884098E-01  0.57028382191E-02  0.44011177428E-01  0.51100000000E-03 0.  1.
</event>
<event>
 8    1  0.1086235E+005  0.1043930E+01  0.7957747E-01            NaN
         13   -1    0    0    0    0  0.00000000000E+00  0.00000000000E+00  0.74505805969E-08  0.10566000000E+00  0.10566000000E+00 0.  1.
     999900   -1    0    0    0    0 -0.00000000000E+00 -0.00000000000E+00 -0.74505805969E-08  0.93827000000E+00  0.93827000000E+00 0. -1.
     999902    2    1    2    0    0 -0.20487371048E-01 -0.88231580490E-02 -0.18227727181E-02  0.10215491378E+01  0.10213039401E+01 0.  0.
     999903    2    3    3    0    0  0.10436638133E+00 -0.58420789912E-01  0.46829929259E-01  0.13002489814E+00  0.20201525120E-01 0.  0.
         14    1    1    2    0    0  0.20487371048E-01  0.88231580490E-02  0.18227727181E-02  0.22380862155E-01  0.00000000000E+00 0.  1.
     999901    1    3    3    0    0 -0.12485375237E+00  0.49597631863E-01 -0.48652701977E-01  0.89152423970E+00  0.88000000000E+00 0. -1.
        -11    1    4    4    0    0  0.96865594375E-01 -0.47162596940E-01  0.40797281074E-01  0.11520387662E+00  0.51100000000E-03 0.  1.
         11    1    4    4    0    0  0.75007869520E-02 -0.11258192972E-01  0.60326481851E-02  0.14821021524E-01  0.51100000000E-03 0. -1.
</event>
<event>
 8    1  0.1086235E+005  0.1043930E+01  0.7957747E-01            NaN
         13   -1    0    0    0    0  0.00000000000E+00  0.00000000000E+00  0.74505805969E-08  0.10566000000E+00  0.10566000000E+00 0.  1.
     999900   -1    0    0    0    0 -0.00000000000E+00 -0.00000000000E+00 -0.74505805969E-08  0.93827000000E+00  0.93827000000E+00 0. -1.
     999902    2    1    2    0    0  0.20038542395E-01 -0.15840702718E-01  0.44506342919E-02  0.10180016528E+01  0.10176714037E+01 0.  0.
     999903    2    3    3    0    0 -0.54587405918E-02 -0.41715808212E-01 -0.11984551262E+00  0.12852474771E+00  0.19638161169E-01 0.  0.
         14    1    1    2    0    0 -0.20038542395E-01  0.15840702718E-01 -0.44506342919E-02  0.25928347219E-01  0.00000000000E+00 0. -1.
     999901    1    3    3    0    0  0.25497282987E-01  0.25875105494E-01  0.12429614691E+00  0.88947690507E+00  0.88000000000E+00 0.  1.
        -11    1    4    4    0    0  0.12738921708E-02 -0.17077775425E-01 -0.74822594727E-01  0.76759071239E-01  0.51100000000E-03 0. -1.
         11    1    4    4    0    0 -0.67326327626E-02 -0.24638032787E-01 -0.45022917894E-01  0.51765676468E-01  0.51100000000E-03 0.  1.
</event>
<event>
 8    1  0.1086235E+005  0.1043930E+01  0.7957747E-01            NaN
         13   -1    0    0    0    0  0.00000000000E+00  0.00000000000E+00  0.74505805969E-08  0.10566000000E+00  0.10566000000E+00 0. -1.
     999900   -1    0    0    0    0 -0.00000000000E+00 -0.00000000000E+00 -0.74505805969E-08  0.93827000000E+00  0.93827000000E+00 0. -1.
     999902    2    1    2    0    0 -0.17099524391E-01  0.11217812967E-01 -0.10681168946E-01  0.10208579296E+01  0.10205971742E+01 0.  0.
     999903    2    3    3    0    0 -0.11341324778E+00 -0.21033422233E-01 -0.64609599911E-01  0.13337567561E+00  0.17598318739E-01 0.  0.
         14    1    1    2    0    0  0.17099524391E-01 -0.11217812967E-01  0.10681168946E-01  0.23072070393E-01  0.00000000000E+00 0.  1.
     999901    1    3    3    0    0  0.96313723388E-01  0.32251235200E-01  0.53928430965E-01  0.88748225399E+00  0.88000000000E+00 0.  1.
        -11    1    4    4    0    0 -0.77552742377E-01 -0.18610491681E-01 -0.52325870527E-01  0.95388867789E-01  0.51100000000E-03 0. -1.
         11    1    4    4    0    0 -0.35860505403E-01 -0.24229305518E-02 -0.12283729384E-01  0.37986807826E-01  0.51100000000E-03 0.  1.
</event>
<event>
 8    1  0.1086235E+005  0.1043930E+01  0.7957747E-01            NaN
         13   -1    0    0    0    0  0.00000000000E+00  0.00000000000E+00  0.74505805969E-08  0.10566000000E+00  0.10566000000E+00 0.  1.
     999900   -1    0    0    0    0 -0.00000000000E+00 -0.00000000000E+00 -0.74505805969E-08  0.93827000000E+00  0.93827000000E+00 0.  1.
     999902    2    1    2    0    0  0.11881546716E-01  0.18297549612E-01 -0.41287996333E-02  0.10217259810E+01  0.10214846850E+01 0.  0.
     999903    2    3    3    0    0  0.31080960817E-01 -0.11673952832E+00  0.43542097772E-01  0.12994341534E+00  0.19880475701E-01 0.  0.
         14    1    1    2    0    0 -0.11881546716E-01 -0.18297549612E-01  0.41287996333E-02  0.22204019019E-01  0.00000000000E+00 0. -1.
     999901    1    3    3    0    0 -0.19199414101E-01  0.13503707793E+00 -0.47670897406E-01  0.89178256564E+00  0.88000000000E+00 0. -1.
        -11    1    4    4    0    0  0.25462606993E-01 -0.75154135158E-01  0.20036348179E-01  0.81842560784E-01  0.51100000000E-03 0.  1.
         11    1    4    4    0    0  0.56183538238E-02 -0.41585393164E-01  0.23505749593E-01  0.48100854558E-01  0.51100000000E-03 0. -1.
</event>
<event>
 8    1  0.1086235E+005  0.1043930E+01  0.7957747E-01            NaN
         13   -1    0    0    0    0  0.00000000000E+00  0.00000000000E+00  0.74505805969E-08  0.10566000000E+00  0.10566000000E+00 0.  1.
     999900   -1    0    0    0    0 -0.00000000000E+00 -0.00000000000E+00 -0.74505805969E-08  0.93827000000E+00  0.93827000000E+00 0. -1.
     999902    2    1    2    0    0 -0.18755728769E-01  0.18843836551E-02 -0.13313974780E-01  0.10208520844E+01  0.10205911954E+01 0.  0.
     999903    2    3    3    0    0 -0.23141603601E-01 -0.92980530171E-01  0.85755100680E-01  0.13021564372E+00  0.20524711190E-01 0.  0.
         14    1    1    2    0    0  0.18755728769E-01 -0.18843836551E-02  0.13313974780E-01  0.23077915587E-01  0.00000000000E+00 0. -1.
     999901    1    3    3    0    0  0.43858748327E-02  0.94864913826E-01 -0.99069075460E-01  0.89063644069E+00  0.88000000000E+00 0. -1.
        -11    1    4    4    0    0 -0.19425831180E-01 -0.43742862846E-01  0.34205496938E-01  0.58830928165E-01  0.51100000000E-03 0. -1.
         11    1    4    4    0    0 -0.37157724207E-02 -0.49237667325E-01  0.51549603742E-01  0.71384715557E-01  0.51100000000E-03 0.  1.
</event>
<event>
 8    1  0.1086235E+005  0.1043930E+01  0.7957747E-01            NaN
         13   -1    0    0    0    0  0.00000000000E+00  0.00000000000E+00  0.74505805969E-08  0.10566000000E+00  0.10566000000E+00 0. -1.
     999900   -1    0    0    0    0 -0.00000000000E+00 -0.00000000000E+00 -0.74505805969E-08  0.93827000000E+00  0.93827000000E+00 0. -1.
     999902    2    1    2    0    0 -0.17237203355E-02 -0.23756844103E-01 -0.24831963885E-03  0.10201094098E+01  0.10198312544E+01 0.  0.
     999903    2    3    3    0    0  0.10582434275E+00 -0.27000281331E-01 -0.69013650389E-01  0.13089302645E+00  0.21030780326E-01 0.  0.
         14    1    1    2    0    0  0.17237203355E-02  0.23756844103E-01  0.24831963885E-03  0.23820590172E-01  0.00000000000E+00 0. -1.
     999901    1    3    3    0    0 -0.10754806309E+00  0.32434372287E-02  0.68765330750E-01  0.88921638338E+00  0.88000000000E+00 0.  1.
        -11    1    4    4    0    0  0.23887019721E-01 -0.11239025314E-01 -0.25840426851E-01  0.36944474309E-01  0.51100000000E-03 0.  1.
         11    1    4    4    0    0  0.81937323033E-01 -0.15761256017E-01 -0.43173223538E-01  0.93948552138E-01  0.51100000000E-03 0. -1.
</event>
<event>
 8    1  0.1086235E+005  0.1043930E+01  0.7957747E-01            NaN
         13   -1    0    0    0    0  0.00000000000E+00  0.00000000000E+00  0.74505805969E-08  0.10566000000E+00  0.10566000000E+00 0.  1.
     999900   -1    0    0    0    0 -0.00000000000E+00 -0.00000000000E+00 -0.74505805969E-08  0.93827000000E+00  0.93827000000E+00 0.  1.
     999902    2    1    2    0    0 -0.18286914959E-01 -0.13120822099E-02 -0.16569397841E-01  0.10192181048E+01  0.10189184793E+01 0.  0.
     999903    2    3    3    0    0  0.84591973704E-01  0.84167251745E-01 -0.43496371706E-01  0.12870373426E+00  0.20803571284E-01 0.  0.
         14    1    1    2    0    0  0.18286914959E-01  0.13120822099E-02  0.16569397841E-01  0.24711895177E-01  0.00000000000E+00 0.  1.
     999901    1    3    3    0    0 -0.10287888866E+00 -0.85479333955E-01  0.26926973866E-01  0.89051437057E+00  0.88000000000E+00 0. -1.
        -11    1    4    4    0    0  0.52550960011E-01  0.37738622220E-01 -0.22145612160E-01  0.68384912547E-01  0.51100000000E-03 0.  1.
         11    1    4    4    0    0  0.32041013693E-01  0.46428629525E-01 -0.21350759547E-01  0.60318821708E-01  0.51100000000E-03 0. -1.
</event>
<event>
 8    1  0.1282691E+005  0.1043930E+01  0.7957747E-01            NaN
         13   -1    0    0    0    0  0.00000000000E+00  0.00000000000E+00  0.74505805969E-08  0.10566000000E+00  0.10566000000E+00 0.  1.
     999900   -1    0    0    0    0 -0.00000000000E+00 -0.00000000000E+00 -0.74505805969E-08  0.93827000000E+00  0.93827000000E+00 0. -1.
     999902    2    1    2    0    0 -0.32757387018E-01  0.11178157015E-02  0.26285804162E-02  0.10110483128E+01  0.10105134762E+01 0.  0.
     999903    2    3    3    0    0  0.91304141131E-01  0.17868631100E-02 -0.73881348014E-01  0.11905869431E+00  0.19413398468E-01 0.  0.
         14    1    1    2    0    0  0.32757387018E-01 -0.11178157015E-02 -0.26285804162E-02  0.32881687170E-01  0.00000000000E+00 0. -1.
     999901    1    3    3    0    0 -0.12406152815E+00 -0.66904740843E-03  0.76509928430E-01  0.89198961852E+00  0.88000000000E+00 0.  1.
        -11    1    4    4    0    0  0.46626164067E-01  0.83825718792E-02 -0.29934074591E-01  0.56040847866E-01  0.51100000000E-03 0.  1.
         11    1    4    4    0    0  0.44677977063E-01 -0.65957087692E-02 -0.43947273423E-01  0.63017846448E-01  0.51100000000E-03 0. -1.
</event>
<event>
 8    1  0.1086235E+005  0.1043930E+01  0.7957747E-01            NaN
         13   -1    0    0    0    0  0.00000000000E+00  0.00000000000E+00  0.74505805969E-08  0.10566000000E+00  0.10566000000E+00 0.  1.
     999900   -1    0    0    0    0 -0.00000000000E+00 -0.00000000000E+00 -0.74505805969E-08  0.93827000000E+00  0.93827000000E+00 0. -1.
     999902    2    1    2    0    0  0.20364089377E-02  0.17871208628E-01  0.16756227760E-01  0.10193475219E+01  0.10190510646E+01 0.  0.
     999903    2    3    3    0    0 -0.90669429444E-01 -0.16154449442E-01  0.90928389984E-01  0.13072295130E+00  0.18401255935E-01 0.  0.
         14    1    1    2    0    0 -0.20364089377E-02 -0.17871208628E-01 -0.16756227760E-01  0.24582478067E-01  0.00000000000E+00 0.  1.
     999901    1    3    3    0    0  0.92705838382E-01  0.34025658071E-01 -0.74172162224E-01  0.88862457063E+00  0.88000000000E+00 0. -1.
        -11    1    4    4    0    0 -0.11708091165E-01 -0.79584882405E-02  0.18152516750E-01  0.23025896707E-01  0.51100000000E-03 0.  1.
         11    1    4    4    0    0 -0.78961338279E-01 -0.81959612020E-02  0.72775873234E-01  0.10769705460E+00  0.51100000000E-03 0. -1.
</event>
<event>
 8    1  0.1086235E+005  0.1043930E+01  0.7957747E-01            NaN
         13   -1    0    0    0    0  0.00000000000E+00  0.00000000000E+00  0.74505805969E-08  0.10566000000E+00  0.10566000000E+00 0. -1.
     999900   -1    0    0    0    0 -0.00000000000E+00 -0.00000000000E+00 -0.74505805969E-08  0.93827000000E+00  0.93827000000E+00 0.  1.
     999902    2    1    2    0    0 -0.90865662219E-02  0.21391939860E-01 -0.49606450293E-02  0.10201647149E+01  0.10198878648E+01 0.  0.
     999903    2    3    3    0    0 -0.93028945685E-01  0.80740013148E-01  0.45099321726E-01  0.13276710552E+00  0.20489534611E-01 0.  0.
         14    1    1    2    0    0  0.90865662219E-02 -0.21391939860E-01  0.49606450293E-02  0.23765285098E-01  0.00000000000E+00 0. -1.
     999901    1    3    3    0    0  0.83942379463E-01 -0.59348073287E-01 -0.50059966755E-01  0.88739760939E+00  0.88000000000E+00 0. -1.
        -11    1    4    4    0    0 -0.83250034305E-01  0.73680202843E-01  0.33714022008E-01  0.11617330547E+00  0.51100000000E-03 0. -1.
         11    1    4    4    0    0 -0.97789113804E-02  0.70598103045E-02  0.11385299718E-01  0.16593800047E-01  0.51100000000E-03 0.  1.
</event>
<event>
 8    1  0.1086235E+005  0.1043930E+01  0.7957747E-01            NaN
         13   -1    0    0    0    0  0.00000000000E+00  0.00000000000E+00  0.74505805969E-08  0.10566000000E+00  0.10566000000E+00 0. -1.
     999900   -1    0    0    0    0 -0.00000000000E+00 -0.00000000000E+00 -0.74505805969E-08  0.93827000000E+00  0.93827000000E+00 0. -1.
     999902    2    1    2    0    0 -0.15881750996E-01  0.17180303062E-01 -0.41436267698E-02  0.10201694766E+01  0.10198927388E+01 0.  0.
     999903    2    3    3    0    0  0.95203940775E-02 -0.31850393089E-01 -0.12435837398E+00  0.13028135805E+00  0.20078387195E-01 0.  0.
         14    1    1    2    0    0  0.15881750996E-01 -0.17180303062E-01  0.41436267698E-02  0.23760523370E-01  0.00000000000E+00 0.  1.
     999901    1    3    3    0    0 -0.25402145074E-01  0.49030696151E-01  0.12021474721E+00  0.88988811858E+00  0.88000000000E+00 0.  1.
        -11    1    4    4    0    0  0.12916597798E-01 -0.13396135308E-01 -0.79566258863E-01  0.81715026833E-01  0.51100000000E-03 0.  1.
         11    1    4    4    0    0 -0.33962037208E-02 -0.18454257781E-01 -0.44792115121E-01  0.48566331218E-01  0.51100000000E-03 0. -1.
</event>
<event>
 8    1  0.1086235E+005  0.1043930E+01  0.7957747E-01            NaN
         13   -1    0    0    0    0  0.00000000000E+00  0.00000000000E+00  0.74505805969E-08  0.10566000000E+00  0.10566000000E+00 0. -1.
     999900   -1    0    0    0    0 -0.00000000000E+00 -0.00000000000E+00 -0.74505805969E-08  0.93827000000E+00  0.93827000000E+00 0.  1.
     999902    2    1    2    0    0 -0.16365572656E-01 -0.11680640468E-01  0.11171623853E-01  0.10209283803E+01  0.10206692330E+01 0.  0.
     999903    2    3    3    0    0 -0.46790512394E-01 -0.13334691933E-01 -0.11942563305E+00  0.13076881237E+00  0.21698718862E-01 0.  0.
         14    1    1    2    0    0  0.16365572656E-01  0.11680640468E-01 -0.11171623853E-01  0.23001619717E-01  0.00000000000E+00 0.  1.
     999901    1    3    3    0    0  0.30424939738E-01  0.16540514646E-02  0.13059725690E+00  0.89015956792E+00  0.88000000000E+00 0. -1.
        -11    1    4    4    0    0 -0.28087264685E-01  0.31482139683E-02 -0.66788256506E-01  0.72524051299E-01  0.51100000000E-03 0.  1.
         11    1    4    4    0    0 -0.18703247709E-01 -0.16482905901E-01 -0.52637376539E-01  0.58244761067E-01  0.51100000000E-03 0. -1.
</event>
<event>
 8    1  0.1086235E+005  0.1043930E+01  0.7957747E-01            NaN
         13   -1    0    0    0    0  0.00000000000E+00  0.00000000000E+00  0.74505805969E-08  0.10566000000E+00  0.10566000000E+00 0.  1.
     999900   -1    0    0    0    0 -0.00000000000E+00 -0.00000000000E+00 -0.74505805969E-08  0.93827000000E+00  0.93827000000E+00 0. -1.
     999902    2    1    2    0    0  0.13306401321E-01  0.18503051070E-01  0.74364245686E-02  0.10199566059E+01  0.10196748277E+01 0.  0.
     999903    2    3    3    0    0 -0.52805592951E-01 -0.10357970914E+00  0.49400166793E-01  0.12808444476E+00  0.21167468401E-01 0.  0.
         14    1    1    2    0    0 -0.13306401321E-01 -0.18503051070E-01 -0.74364245686E-02  0.23973394115E-01  0.00000000000E+00 0. -1.
     999901    1    3    3    0    0  0.66111994272E-01  0.12208276021E+00 -0.41963742225E-01  0.89187216112E+00  0.88000000000E+00 0. -1.
        -11    1    4    4    0    0 -0.10825453396E-01 -0.15346484348E-01  0.16434268831E-01  0.24960996296E-01  0.51100000000E-03 0.  1.
         11    1    4    4    0    0 -0.41980139555E-01 -0.88233224790E-01  0.32965897962E-01  0.10312344847E+00  0.51100000000E-03 0. -1.
</event>
<event>
 8    1  0.1086235E+005  0.1043930E+01  0.7957747E-01            NaN
         13   -1    0    0    0    0  0.00000000000E+00  0.00000000000E+00  0.74505805969E-08  0.10566000000E+00  0.10566000000E+00 0.  1.
     999900   -1    0    0    0    0 -0.00000000000E+00 -0.00000000000E+00 -0.74505805969E-08  0.93827000000E+00  0.93827000000E+00 0.  1.
     999902    2    1    2    0    0  0.39779893700E-02  0.20546473293E-01  0.19715089796E-01  0.10151781874E+01  0.10147709522E+01 0.  0.
     999903    2    3    3    0    0 -0.12009490279E-01  0.79421029282E-01  0.99451239287E-01  0.12946961995E+00  0.20491601844E-01 0.  0.
         14    1    1    2    0    0 -0.39779893700E-02 -0.20546473293E-01 -0.19715089796E-01  0.28751812636E-01  0.00000000000E+00 0. -1.
     999901    1    3    3    0    0  0.15987479649E-01 -0.58874555989E-01 -0.79736149491E-01  0.88570856741E+00  0.88000000000E+00 0.  1.
        -11    1    4    4    0    0 -0.12754833492E-01  0.28564580871E-01  0.29673498089E-01  0.43120745212E-01  0.51100000000E-03 0.  1.
         11    1    4    4    0    0  0.74534321259E-03  0.50856448411E-01  0.69777741198E-01  0.86348874742E-01  0.51100000000E-03 0. -1.
</event>
<event>
 8    1  0.1086235E+005  0.1043930E+01  0.7957747E-01            NaN
         13   -1    0    0    0    0  0.00000000000E+00  0.00000000000E+00  0.74505805969E-08  0.10566000000E+00  0.10566000000E+00 0.  1.
     999900   -1    0    0    0    0 -0.00000000000E+00 -0.00000000000E+00 -0.74505805969E-08  0.93827000000E+00  0.93827000000E+00 0. -1.
     999902    2    1    2    0    0  0.69308219402E-02  0.21053157006E-01 -0.80679989951E-02  0.10203426237E+01  0.10200699512E+01 0.  0.
     999903    2    3    3    0    0 -0.10299328440E+00 -0.38232010953E-01  0.63651146764E-01  0.12863545419E+00  0.20647234611E-01 0.  0.
         14    1    1    2    0    0 -0.69308219402E-02 -0.21053157006E-01  0.80679989951E-02  0.23587376294E-01  0.00000000000E+00 0.  1.
     999901    1    3    3    0    0  0.10992410634E+00  0.59285167959E-01 -0.71719145759E-01  0.89170716951E+00  0.88000000000E+00 0.  1.
        -11    1    4    4    0    0 -0.23553066379E-01 -0.30735717142E-02  0.64418933171E-02  0.24616110364E-01  0.51100000000E-03 0. -1.
         11    1    4    4    0    0 -0.79440218023E-01 -0.35158439239E-01  0.57209253446E-01  0.10401934383E+00  0.51100000000E-03 0.  1.
</event>
<event>
 8    1  0.1086235E+005  0.1043930E+01  0.7957747E-01            NaN
         13   -1    0    0    0    0  0.00000000000E+00  0.00000000000E+00  0.74505805969E-08  0.10566000000E+00  0.10566000000E+00 0.  1.
     999900   -1    0    0    0    0 -0.00000000000E+00 -0.00000000000E+00 -0.74505805969E-08  0.93827000000E+00  0.93827000000E+00 0. -1.
     999902    2    1    2    0    0 -0.89992409449E-02 -0.27288324400E-02 -0.23008633209E-01  0.10190738123E+01  0.10187706341E+01 0.  0.
     999903    2    3    3    0    0  0.80097100035E-02  0.12735345427E+00 -0.41240002949E-02  0.12914834629E+00  0.19473833771E-01 0.  0.
         14    1    1    2    0    0  0.89992409449E-02  0.27288324400E-02  0.23008633209E-01  0.24856187685E-01  0.00000000000E+00 0.  1.
     999901    1    3    3    0    0 -0.17008950948E-01 -0.13008228671E+00 -0.18884632914E-01  0.88992546603E+00  0.88000000000E+00 0.  1.
        -11    1    4    4    0    0  0.68481021904E-02  0.52672703363E-01  0.71967059048E-02  0.53603767405E-01  0.51100000000E-03 0.  1.
         11    1    4    4    0    0  0.11616078131E-02  0.74680750905E-01 -0.11320706200E-01  0.75544578881E-01  0.51100000000E-03 0. -1.
</event>
<event>
 7    1  0.1114155E+005  0.1043930E+01  0.7957747E-01            NaN
         13   -1    0    0    0    0  0.00000000000E+00  0.00000000000E+00  0.74505805969E-08  0.10566000000E+00  0.10566000000E+00 0.  1.
     999900   -1    0    0    0    0 -0.00000000000E+00 -0.00000000000E+00 -0.74505805969E-08  0.93827000000E+00  0.93827000000E+00 0. -1.
     999903    2    1    2    0    0  0.56053279053E-01 -0.64281933361E-01 -0.18509760848E-01  0.89478817552E-01  0.19741086463E-01 0.  0.
         14    1    1    2    0    0  0.35032543031E-01 -0.13494259655E-01  0.53838667356E-01  0.65635175155E-01  0.00000000000E+00 0.  1.
     999901    1    1    2    0    0 -0.91085822084E-01  0.77776193016E-01 -0.35328906508E-01  0.88881600729E+00  0.88000000000E+00 0.  1.
        -11    1    3    3    0    0  0.22263820276E-01 -0.28352935738E-01  0.18896908542E-02  0.36102613628E-01  0.51100000000E-03 0.  1.
         11    1    3    3    0    0  0.33789458777E-01 -0.35928997623E-01 -0.20399451702E-01  0.53376203924E-01  0.51100000000E-03 0. -1.
</event>
<event>
 8    1  0.1086235E+005  0.1043930E+01  0.7957747E-01            NaN
         13   -1    0    0    0    0  0.00000000000E+00  0.00000000000E+00  0.74505805969E-08  0.10566000000E+00  0.10566000000E+00 0. -1.
     999900   -1    0    0    0    0 -0.00000000000E+00 -0.00000000000E+00 -0.74505805969E-08  0.93827000000E+00  0.93827000000E+00 0. -1.
     999902    2    1    2    0    0 -0.18686479824E-01 -0.92799219575E-02 -0.92470578311E-02  0.10211087477E+01  0.10208536942E+01 0.  0.
     999903    2    3    3    0    0  0.88151289565E-01  0.13225221869E-01 -0.93126210885E-01  0.13040312694E+00  0.19670485932E-01 0.  0.
         14    1    1    2    0    0  0.18686479824E-01  0.92799219575E-02  0.92470578311E-02  0.22821252338E-01  0.00000000000E+00 0. -1.
     999901    1    3    3    0    0 -0.10683776939E+00 -0.22505143826E-01  0.83879153054E-01  0.89070562072E+00  0.88000000000E+00 0.  1.
        -11    1    4    4    0    0  0.60254040195E-01  0.20999163311E-02 -0.52976142499E-01  0.80260150782E-01  0.51100000000E-03 0. -1.
         11    1    4    4    0    0  0.27897249369E-01  0.11125305537E-01 -0.40150068387E-01  0.50142976159E-01  0.51100000000E-03 0.  1.
</event>
<event>
 8    1  0.1086235E+005  0.1043930E+01  0.7957747E-01            NaN
         13   -1    0    0    0    0  0.00000000000E+00  0.00000000000E+00  0.74505805969E-08  0.10566000000E+00  0.10566000000E+00 0. -1.
     999900   -1    0    0    0    0 -0.00000000000E+00 -0.00000000000E+00 -0.74505805969E-08  0.93827000000E+00  0.93827000000E+00 0. -1.
     999902    2    1    2    0    0 -0.22369372817E-01  0.49298555133E-02 -0.32706622787E-02  0.10207915137E+01  0.10205292377E+01 0.  0.
     999903    2    3    3    0    0  0.65911381311E-01  0.77284175552E-01 -0.78231608494E-01  0.13025921075E+00  0.23024409660E-01 0.  0.
         14    1    1    2    0    0  0.22369372817E-01 -0.49298555133E-02  0.32706622787E-02  0.23138486280E-01  0.00000000000E+00 0. -1.
     999901    1    3    3    0    0 -0.88280754128E-01 -0.72354320038E-01  0.74960946216E-01  0.89053230297E+00  0.88000000000E+00 0.  1.
        -11    1    4    4    0    0  0.29612016513E-01  0.41401771877E-01 -0.25741473156E-01  0.57042640172E-01  0.51100000000E-03 0. -1.
         11    1    4    4    0    0  0.36299364798E-01  0.35882403675E-01 -0.52490135338E-01  0.73216570577E-01  0.51100000000E-03 0.  1.
</event>
<event>
 8    1  0.1086235E+005  0.1043930E+01  0.7957747E-01            NaN
         13   -1    0    0    0    0  0.00000000000E+00  0.00000000000E+00  0.74505805969E-08  0.10566000000E+00  0.10566000000E+00 0.  1.
     999900   -1    0    0    0    0 -0.00000000000E+00 -0.00000000000E+00 -0.74505805969E-08  0.93827000000E+00  0.93827000000E+00 0. -1.
     999902    2    1    2    0    0  0.20025249509E-01  0.38815890656E-02 -0.12481850854E-01  0.10200161138E+01  0.10197357493E+01 0.  0.
     999903    2    3    3    0    0 -0.40556731830E-01 -0.85065670391E-01  0.84497431748E-01  0.12817152384E+00  0.20176887134E-01 0.  0.
         14    1    1    2    0    0 -0.20025249509E-01 -0.38815890656E-02  0.12481850854E-01  0.23913886182E-01  0.00000000000E+00 0.  1.
     999901    1    3    3    0    0  0.60581981340E-01  0.88947259457E-01 -0.96979282602E-01  0.89184458998E+00  0.88000000000E+00 0.  1.
        -11    1    4    4    0    0 -0.23196019688E-01 -0.64473524903E-01  0.68252484369E-01  0.96713770924E-01  0.51100000000E-03 0.  1.
         11    1    4    4    0    0 -0.17360712142E-01 -0.20592145488E-01  0.16244947379E-01  0.31457752911E-01  0.51100000000E-03 0. -1.
</event>
<event>
 8    1  0.1086235E+005  0.1043930E+01  0.7957747E-01            NaN
         13   -1    0    0    0    0  0.00000000000E+00  0.00000000000E+00  0.74505805969E-08  0.10566000000E+00  0.10566000000E+00 0. -1.
     999900   -1    0    0    0    0 -0.00000000000E+00 -0.00000000000E+00 -0.74505805969E-08  0.93827000000E+00  0.93827000000E+00 0.  1.
     999902    2    1    2    0    0  0.34133708545E-02 -0.13622544163E-02  0.23769804459E-01  0.10198777560E+01  0.10195940990E+01 0.  0.
     999903    2    3    3    0    0  0.12434559118E-02 -0.97692676484E-01  0.86684492141E-01  0.13238549311E+00  0.21594267480E-01 0.  0.
         14    1    1    2    0    0 -0.34133708545E-02  0.13622544163E-02 -0.23769804459E-01  0.24052244006E-01  0.00000000000E+00 0.  1.
     999901    1    3    3    0    0  0.21699149427E-02  0.96330422068E-01 -0.62914687681E-01  0.88749226288E+00  0.88000000000E+00 0.  1.
        -11    1    4    4    0    0 -0.14510128358E-03 -0.23824308869E-01  0.98326899660E-02  0.25779093476E-01  0.51100000000E-03 0.  1.
         11    1    4    4    0    0  0.13885571954E-02 -0.73868367614E-01  0.76851802175E-01  0.10660639964E+00  0.51100000000E-03 0. -1.
</event>
<event>
 8    1  0.1086235E+005  0.1043930E+01  0.7957747E-01            NaN
         13   -1    0    0    0    0  0.00000000000E+00  0.00000000000E+00  0.74505805969E-08  0.10566000000E+00  0.10566000000E+00 0. -1.
     999900   -1    0    0    0    0 -0.00000000000E+00 -0.00000000000E+00 -0.74505805969E-08  0.93827000000E+00  0.93827000000E+00 0. -1.
     999902    2    1    2    0    0  0.91731632827E-02  0.20556002705E-01 -0.20265388864E-02  0.10213290480E+01  0.10210789496E+01 0.  0.
     999903    2    3    3    0    0 -0.94744158539E-01 -0.76167686804E-01 -0.36115730351E-01  0.12929970158E+00  0.25220919084E-01 0.  0.
         14    1    1    2    0    0 -0.91731632827E-02 -0.20556002705E-01  0.20265388864E-02  0.22600952008E-01  0.00000000000E+00 0. -1.
     999901    1    3    3    0    0  0.10391732182E+00  0.96723689509E-01  0.34089191465E-01  0.89202934641E+00  0.88000000000E+00 0.  1.
        -11    1    4    4    0    0 -0.55471663049E-01 -0.52620547633E-01 -0.11535820901E-01  0.77326345571E-01  0.51100000000E-03 0.  1.
         11    1    4    4    0    0 -0.39272495490E-01 -0.23547139171E-01 -0.24579909450E-01  0.51973356008E-01  0.51100000000E-03 0. -1.
</event>
<event>
 8    1  0.1086235E+005  0.1043930E+01  0.7957747E-01            NaN
         13   -1    0    0    0    0  0.00000000000E+00  0.00000000000E+00  0.74505805969E-08  0.10566000000E+00  0.10566000000E+00 0. -1.
     999900   -1    0    0    0    0 -0.00000000000E+00 -0.00000000000E+00 -0.74505805969E-08  0.93827000000E+00  0.93827000000E+00 0. -1.
     999902    2    1    2    0    0 -0.30924651136E-02  0.23024983327E-01 -0.74309271876E-02  0.10195387746E+01  0.10192469676E+01 0.  0.
     999903    2    3    3    0    0 -0.69257519860E-02 -0.11389315536E+00  0.51890346047E-01  0.12696929033E+00  0.20223149983E-01 0.  0.
         14    1    1    2    0    0  0.30924651136E-02 -0.23024983327E-01  0.74309271876E-02  0.24391225401E-01  0.00000000000E+00 0. -1.
     999901    1    3    3    0    0  0.38332868723E-02  0.13691813869E+00 -0.59321273235E-01  0.89256948427E+00  0.88000000000E+00 0. -1.
        -11    1    4    4    0    0 -0.13977612132E-01 -0.75178243003E-01  0.36157162732E-01  0.84585716287E-01  0.51100000000E-03 0.  1.
         11    1    4    4    0    0  0.70518601460E-02 -0.38714912358E-01  0.15733183315E-01  0.42383574042E-01  0.51100000000E-03 0. -1.
</event>
<event>
 8    1  0.1086235E+005  0.1043930E+01  0.7957747E-01            NaN
         13   -1    0    0    0    0  0.00000000000E+00  0.00000000000E+00  0.74505805969E-08  0.10566000000E+00  0.10566000000E+00 0. -1.
     999900   -1    0    0    0    0 -0.00000000000E+00 -0.00000000000E+00 -0.74505805969E-08  0.93827000000E+00  0.93827000000E+00 0.  1.
     999902    2    1    2    0    0  0.15081996436E-02 -0.15520952231E-01 -0.17433113582E-01  0.10205400861E+01  0.10202720124E+01 0.  0.
     999903    2    3    3    0    0 -0.12260271850E+00 -0.11698955504E-01 -0.41529918433E-01  0.13149633931E+00  0.19956477178E-01 0.  0.
         14    1    1    2    0    0 -0.15081996436E-02  0.15520952231E-01  0.17433113582E-01  0.23389913926E-01  0.00000000000E+00 0. -1.
     999901    1    3    3    0    0  0.12411091815E+00 -0.38219967267E-02  0.24096804851E-01  0.88904374677E+00  0.88000000000E+00 0.  1.
        -11    1    4    4    0    0 -0.55427118650E-01 -0.73826564501E-02 -0.29116731466E-01  0.63045335040E-01  0.51100000000E-03 0. -1.
         11    1    4    4    0    0 -0.67175599854E-01 -0.43162990543E-02 -0.12413186967E-01  0.68451004266E-01  0.51100000000E-03 0.  1.
</event>
<event>
 8    1  0.1086235E+005  0.1043930E+01  0.7957747E-01            NaN
         13   -1    0    0    0    0  0.00000000000E+00  0.00000000000E+00  0.74505805969E-08  0.10566000000E+00  0.10566000000E+00 0.  1.
     999900   -1    0    0    0    0 -0.00000000000E+00 -0.00000000000E+00 -0.74505805969E-08  0.93827000000E+00  0.93827000000E+00 0.  1.
     999902    2    1    2    0    0 -0.42016479273E-02  0.19518357426E-01 -0.11752202797E-01  0.10207624712E+01  0.10204995287E+01 0.  0.
     999903    2    3    3    0    0 -0.86585534916E-01 -0.58159731616E-01  0.72747743971E-01  0.12949302180E+00  0.24425380341E-01 0.  0.
         14    1    1    2    0    0  0.42016479273E-02 -0.19518357426E-01  0.11752202797E-01  0.23167528839E-01  0.00000000000E+00 0.  1.
     999901    1    3    3    0    0  0.82383886988E-01  0.77678089042E-01 -0.84499946769E-01  0.89126944936E+00  0.88000000000E+00 0.  1.
        -11    1    4    4    0    0 -0.53835956752E-01 -0.27025338873E-01  0.30040721427E-01  0.67315564659E-01  0.51100000000E-03 0. -1.
         11    1    4    4    0    0 -0.32749578164E-01 -0.31134392744E-01  0.42707022544E-01  0.62177457145E-01  0.51100000000E-03 0.  1.
</event>
<event>
 8    1  0.1086235E+005  0.1043930E+01  0.7957747E-01            NaN
         13   -1    0    0    0    0  0.00000000000E+00  0.00000000000E+00  0.74505805969E-08  0.10566000000E+00  0.10566000000E+00 0. -1.
     999900   -1    0    0    0    0 -0.00000000000E+00 -0.00000000000E+00 -0.74505805969E-08  0.93827000000E+00  0.93827000000E+00 0. -1.
     999902    2    1    2    0    0  0.97503469424E-02  0.21472422202E-01 -0.14340484141E-02  0.10203039408E+01  0.10200303627E+01 0.  0.
     999903    2    3    3    0    0 -0.48174366356E-01 -0.10510055397E+00 -0.51349376511E-01  0.12796570293E+00  0.19276063853E-01 0.  0.
         14    1    1    2    0    0 -0.97503469424E-02 -0.21472422202E-01  0.14340484141E-02  0.23626059247E-01  0.00000000000E+00 0. -1.
     999901    1    3    3    0    0  0.57924713299E-01  0.12657297618E+00  0.49915328097E-01  0.89233823783E+00  0.88000000000E+00 0. -1.
        -11    1    4    4    0    0 -0.24281902491E-01 -0.60348622149E-01 -0.18898943226E-01  0.67742144636E-01  0.51100000000E-03 0.  1.
         11    1    4    4    0    0 -0.23892463865E-01 -0.44751931826E-01 -0.32450433285E-01  0.60223558290E-01  0.51100000000E-03 0. -1.
</event>
<event>
 8    1  0.1086235E+005  0.1043930E+01  0.7957747E-01            NaN
         13   -1    0    0    0    0  0.00000000000E+00  0.00000000000E+00  0.74505805969E-08  0.10566000000E+00  0.10566000000E+00 0.  1.
     999900   -1    0    0    0    0 -0.00000000000E+00 -0.00000000000E+00 -0.74505805969E-08  0.93827000000E+00  0.93827000000E+00 0. -1.
     999902    2    1    2    0    0  0.17615167164E-01 -0.16936995633E-01  0.37006246197E-02  0.10192146089E+01  0.10189148975E+01 0.  0.
     999903    2    3    3    0    0  0.17355695250E-01  0.11788550307E+00 -0.41575550531E-01  0.12779601725E+00  0.20126689496E-01 0.  0.
         14    1    1    2    0    0 -0.17615167164E-01  0.16936995633E-01 -0.37006246197E-02  0.24715391112E-01  0.00000000000E+00 0.  1.
     999901    1    3    3    0    0  0.25947191350E-03 -0.13482249871E+00  0.45276175151E-01  0.89141859164E+00  0.88000000000E+00 0. -1.
        -11    1    4    4    0    0  0.43645003109E-02  0.30775087859E-01 -0.20488272452E-01  0.37231509837E-01  0.51100000000E-03 0. -1.
         11    1    4    4    0    0  0.12991194939E-01  0.87110415215E-01 -0.21087278079E-01  0.90564507411E-01  0.51100000000E-03 0.  1.
</event>
<event>
 8    1  0.1086235E+005  0.1043930E+01  0.7957747E-01            NaN
         13   -1    0    0    0    0  0.00000000000E+00  0.00000000000E+00  0.74505805969E-08  0.10566000000E+00  0.10566000000E+00 0.  1.
     999900   -1    0    0    0    0 -0.00000000000E+00 -0.00000000000E+00 -0.74505805969E-08  0.93827000000E+00  0.93827000000E+00 0.  1.
     999902    2    1    2    0    0 -0.12597482765E-01 -0.64519928689E-02 -0.19042914814E-01  0.10202032769E+01  0.10199273351E+01 0.  0.
     999903    2    3    3    0    0 -0.84587928087E-01 -0.24726150254E-01  0.92834796819E-01  0.13001611041E+00  0.22790115853E-01 0.  0.
         14    1    1    2    0    0  0.12597482765E-01  0.64519928689E-02  0.19042914814E-01  0.23726723090E-01  0.00000000000E+00 0.  1.
     999901    1    3    3    0    0  0.71990445322E-01  0.18274157386E-01 -0.11187771163E+00  0.89018716650E+00  0.88000000000E+00 0.  1.
        -11    1    4    4    0    0 -0.31426169263E-01 -0.20659973434E-01  0.41339150141E-01  0.55889400357E-01  0.51100000000E-03 0.  1.
         11    1    4    4    0    0 -0.53161758824E-01 -0.40661768206E-02  0.51495646678E-01  0.74126710051E-01  0.51100000000E-03 0. -1.
</event>
<event>
 8    1  0.1086235E+005  0.1043930E+01  0.7957747E-01            NaN
         13   -1    0    0    0    0  0.00000000000E+00  0.00000000000E+00  0.74505805969E-08  0.10566000000E+00  0.10566000000E+00 0.  1.
     999900   -1    0    0    0    0 -0.00000000000E+00 -0.00000000000E+00 -0.74505805969E-08  0.93827000000E+00  0.93827000000E+00 0.  1.
     999902    2    1    2    0    0 -0.13038743047E-01  0.62331215708E-02  0.18820145491E-01  0.10202011462E+01  0.10199251543E+01 0.  0.
     999903    2    3    3    0    0  0.18251232584E-01  0.93207419039E-01 -0.85177230369E-01  0.12926958591E+00  0.20850295276E-01 0.  0.
         14    1    1    2    0    0  0.13038743047E-01 -0.62331215708E-02 -0.18820145491E-01  0.23728853767E-01  0.00000000000E+00 0. -1.
     999901    1    3    3    0    0 -0.31289975631E-01 -0.86974297468E-01  0.10399737586E+00  0.89093156032E+00  0.88000000000E+00 0.  1.
        -11    1    4    4    0    0  0.11214176208E-01  0.82191631071E-01 -0.65764421200E-01  0.10586048452E+00  0.51100000000E-03 0.  1.
         11    1    4    4    0    0  0.70370563761E-02  0.11015787968E-01 -0.19412809170E-01  0.23409101389E-01  0.51100000000E-03 0. -1.
</event>
<event>
 8    1  0.1086235E+005  0.1043930E+01  0.7957747E-01            NaN
         13   -1    0    0    0    0  0.00000000000E+00  0.00000000000E+00  0.74505805969E-08  0.10566000000E+00  0.10566000000E+00 0.  1.
     999900   -1    0    0    0    0 -0.00000000000E+00 -0.00000000000E+00 -0.74505805969E-08  0.93827000000E+00  0.93827000000E+00 0.  1.
     999902    2    1    2    0    0  0.19549189545E-01 -0.11351444530E-01  0.52746302585E-02  0.10207169039E+01  0.10204529142E+01 0.  0.
     999903    2    3    3    0    0  0.87198639406E-01 -0.58417614084E-01 -0.79076126293E-01  0.13285051617E+00  0.19493730984E-01 0.  0.
         14    1    1    2    0    0 -0.19549189545E-01  0.11351444530E-01 -0.52746302585E-02  0.23213096070E-01  0.00000000000E+00 0.  1.
     999901    1    3    3    0    0 -0.67649449861E-01  0.47066169554E-01  0.84350756551E-01  0.88786638776E+00  0.88000000000E+00 0. -1.
        -11    1    4    4    0    0  0.79346295390E-01 -0.52071527575E-01 -0.77681608161E-01  0.12264571718E+00  0.51100000000E-03 0.  1.
         11    1    4    4    0    0  0.78523440159E-02 -0.63460865095E-02 -0.13945181317E-02  0.10204798986E-01  0.51100000000E-03 0. -1.
</event>
<event>
 8    1  0.1086235E+005  0.1043930E+01  0.7957747E-01            NaN
         13   -1    0    0    0    0  0.00000000000E+00  0.00000000000E+00  0.74505805969E-08  0.10566000000E+00  0.10566000000E+00 0. -1.
     999900   -1    0    0    0    0 -0.00000000000E+00 -0.00000000000E+00 -0.74505805969E-08  0.93827000000E+00  0.93827000000E+00 0.  1.
     999902    2    1    2    0    0  0.20733253697E-01  0.12208952319E-01 -0.11555861964E-01  0.10172379736E+01  0.10168877179E+01 0.  0.
     999903    2    3    3    0    0  0.97531659658E-01  0.53310713891E-01  0.64003190399E-01  0.12971528640E+00  0.19369829480E-01 0.  0.
         14    1    1    2    0    0 -0.20733253697E-01 -0.12208952319E-01  0.11555861964E-01  0.26692026362E-01  0.00000000000E+00 0. -1.
     999901    1    3    3    0    0 -0.76798405962E-01 -0.41101761572E-01 -0.75559052364E-01  0.88752268723E+00  0.88000000000E+00 0.  1.
        -11    1    4    4    0    0  0.92041452161E-01  0.51159482341E-01  0.54636459772E-01  0.11863526207E+00  0.51100000000E-03 0.  1.
         11    1    4    4    0    0  0.54902074973E-02  0.21512315495E-02  0.93667306277E-02  0.11080024332E-01  0.51100000000E-03 0. -1.
</event>
<event>
 8    1  0.1086235E+005  0.1043930E+01  0.7957747E-01            NaN
         13   -1    0    0    0    0  0.00000000000E+00  0.00000000000E+00  0.74505805969E-08  0.10566000000E+00  0.10566000000E+00 0.  1.
     999900   -1    0    0    0    0 -0.00000000000E+00 -0.00000000000E+00 -0.74505805969E-08  0.93827000000E+00  0.93827000000E+00 0.  1.
     999902    2    1    2    0    0 -0.82563078067E-02  0.22089218405E-01  0.33583143267E-02  0.10201102925E+01  0.10198321580E+01 0.  0.
     999903    2    3    3    0    0  0.10544043112E+00  0.64523726402E-01 -0.37413788285E-01  0.13084655199E+00  0.20976959502E-01 0.  0.
         14    1    1    2    0    0  0.82563078067E-02 -0.22089218405E-01 -0.33583143267E-02  0.23819707460E-01  0.00000000000E+00 0. -1.
     999901    1    3    3    0    0 -0.11369673892E+00 -0.42434507997E-01  0.40772102612E-01  0.88926374055E+00  0.88000000000E+00 0. -1.
        -11    1    4    4    0    0  0.36618629749E-01  0.17328655426E-01 -0.21589888147E-01  0.45908503948E-01  0.51100000000E-03 0.  1.
         11    1    4    4    0    0  0.68821801369E-01  0.47195070976E-01 -0.15823900138E-01  0.84938048039E-01  0.51100000000E-03 0. -1.
</event>
<event>
 8    1  0.1086235E+005  0.1043930E+01  0.7957747E-01            NaN
         13   -1    0    0    0    0  0.00000000000E+00  0.00000000000E+00  0.74505805969E-08  0.10566000000E+00  0.10566000000E+00 0. -1.
     999900   -1    0    0    0    0 -0.00000000000E+00 -0.00000000000E+00 -0.74505805969E-08  0.93827000000E+00  0.93827000000E+00 0. -1.
     999902    2    1    2    0    0 -0.54184474098E-02  0.11731371626E-01  0.19675527135E-01  0.10203904371E+01  0.10201188819E+01 0.  0.
     999903    2    3    3    0    0 -0.83660536520E-01 -0.80689304399E-01  0.57851436368E-01  0.13127806744E+00  0.19424033738E-01 0.  0.
         14    1    1    2    0    0  0.54184474098E-02 -0.11731371626E-01 -0.19675527135E-01  0.23539562880E-01  0.00000000000E+00 0.  1.
     999901    1    3    3    0    0  0.78242089111E-01  0.92420676025E-01 -0.38175909233E-01  0.88911236968E+00  0.88000000000E+00 0. -1.
        -11    1    4    4    0    0 -0.67994797971E-01 -0.66070895084E-01  0.55129089736E-01  0.10967284707E+00  0.51100000000E-03 0. -1.
         11    1    4    4    0    0 -0.15665738549E-01 -0.14618409316E-01  0.27223466313E-02  0.21605220374E-01  0.51100000000E-03 0.  1.
</event>
<event>
 8    1  0.1086235E+005  0.1043930E+01  0.7957747E-01            NaN
         13   -1    0    0    0    0  0.00000000000E+00  0.00000000000E+00  0.74505805969E-08  0.10566000000E+00  0.10566000000E+00 0.  1.
     999900   -1    0    0    0    0 -0.00000000000E+00 -0.00000000000E+00 -0.74505805969E-08  0.93827000000E+00  0.93827000000E+00 0. -1.
     999902    2    1    2    0    0  0.11878645265E-01 -0.19808549926E-01  0.43435261714E-02  0.10204279345E+01  0.10201572538E+01 0.  0.
     999903    2    3    3    0    0 -0.87313278135E-01 -0.42883847240E-01 -0.83865146818E-01  0.13017388255E+00  0.21195375766E-01 0.  0.
         14    1    1    2    0    0 -0.11878645265E-01  0.19808549926E-01 -0.43435261714E-02  0.23502065508E-01  0.00000000000E+00 0. -1.
     999901    1    3    3    0    0  0.99191923400E-01  0.23075297314E-01  0.88208672989E-01  0.89025405194E+00  0.88000000000E+00 0.  1.
        -11    1    4    4    0    0 -0.35607056601E-01 -0.84905638918E-02 -0.23095950782E-01  0.43285519733E-01  0.51100000000E-03 0.  1.
         11    1    4    4    0    0 -0.51706221534E-01 -0.34393283349E-01 -0.60769196036E-01  0.86888362815E-01  0.51100000000E-03 0. -1.
</event>
<event>
 8    1  0.1086235E+005  0.1043930E+01  0.7957747E-01            NaN
         13   -1    0    0    0    0  0.00000000000E+00  0.00000000000E+00  0.74505805969E-08  0.10566000000E+00  0.10566000000E+00 0.  1.
     999900   -1    0    0    0    0 -0.00000000000E+00 -0.00000000000E+00 -0.74505805969E-08  0.93827000000E+00  0.93827000000E+00 0. -1.
     999902    2    1    2    0    0  0.55152141318E-02  0.22879908061E-01 -0.38576534173E-02  0.10200806967E+01  0.10198018623E+01 0.  0.
     999903    2    3    3    0    0 -0.35508875452E-01  0.11368001636E+00  0.54362119879E-01  0.13254637192E+00  0.20718935222E-01 0.  0.
         14    1    1    2    0    0 -0.55152141318E-02 -0.22879908061E-01  0.38576534173E-02  0.23849303338E-01  0.00000000000E+00 0. -1.
     999901    1    3    3    0    0  0.41024089583E-01 -0.90800108295E-01 -0.58219773297E-01  0.88753432474E+00  0.88000000000E+00 0.  1.
        -11    1    4    4    0    0 -0.26347310041E-02  0.25244704962E-01  0.43344863798E-02  0.25754336125E-01  0.51100000000E-03 0. -1.
         11    1    4    4    0    0 -0.32874144448E-01  0.88435311395E-01  0.50027633499E-01  0.10679203579E+00  0.51100000000E-03 0.  1.
</event>
<event>
 8    1  0.1086235E+005  0.1043930E+01  0.7957747E-01            NaN
         13   -1    0    0    0    0  0.00000000000E+00  0.00000000000E+00  0.74505805969E-08  0.10566000000E+00  0.10566000000E+00 0. -1.
     999900   -1    0    0    0    0 -0.00000000000E+00 -0.00000000000E+00 -0.74505805969E-08  0.93827000000E+00  0.93827000000E+00 0. -1.
     999902    2    1    2    0    0  0.54056767114E-02  0.13852834735E-01  0.18499070108E-01  0.10201952583E+01  0.10199191277E+01 0.  0.
     999903    2    3    3    0    0  0.78667597863E-01 -0.29869467574E-01 -0.95645895439E-01  0.12873128143E+00  0.18515654411E-01 0.  0.
         14    1    1    2    0    0 -0.54056767114E-02 -0.13852834735E-01 -0.18499070108E-01  0.23734741746E-01  0.00000000000E+00 0.  1.
     999901    1    3    3    0    0 -0.73261921151E-01  0.43722302309E-01  0.11414496555E+00  0.89146397682E+00  0.88000000000E+00 0.  1.
        -11    1    4    4    0    0  0.60370413584E-01 -0.14202905746E-01 -0.66969124578E-01  0.91276689991E-01  0.51100000000E-03 0.  1.
         11    1    4    4    0    0  0.18297184279E-01 -0.15666561829E-01 -0.28676770861E-01  0.37454591442E-01  0.51100000000E-03 0. -1.
</event>
<event>
 8    1  0.1086235E+005  0.1043930E+01  0.7957747E-01            NaN
         13   -1    0    0    0    0  0.00000000000E+00  0.00000000000E+00  0.74505805969E-08  0.10566000000E+00  0.10566000000E+00 0.  1.
     999900   -1    0    0    0    0 -0.00000000000E+00 -0.00000000000E+00 -0.74505805969E-08  0.93827000000E+00  0.93827000000E+00 0. -1.
     999902    2    1    2    0    0 -0.58754414975E-02 -0.29943951504E-02  0.23121361127E-01  0.10198866110E+01  0.10196031653E+01 0.  0.
     999903    2    3    3    0    0 -0.33061513588E-01 -0.27655488199E-01  0.12464219507E+00  0.13328989784E+00  0.19303636130E-01 0.  0.
         14    1    1    2    0    0  0.58754414975E-02  0.29943951504E-02 -0.23121361127E-01  0.24043389018E-01  0.00000000000E+00 0. -1.
     999901    1    3    3    0    0  0.27186072090E-01  0.24661093048E-01 -0.10152083394E+00  0.88659671314E+00  0.88000000000E+00 0. -1.
        -11    1    4    4    0    0 -0.22997212756E-01 -0.20960424742E-01  0.60694043415E-01  0.68207325318E-01  0.51100000000E-03 0.  1.
         11    1    4    4    0    0 -0.10064300832E-01 -0.66950634565E-02  0.63948151651E-01  0.65082572525E-01  0.51100000000E-03 0. -1.
</event>
<event>
 8    1  0.1086235E+005  0.1043930E+01  0.7957747E-01            NaN
         13   -1    0    0    0    0  0.00000000000E+00  0.00000000000E+00  0.74505805969E-08  0.10566000000E+00  0.10566000000E+00 0. -1.
     999900   -1    0    0    0    0 -0.00000000000E+00 -0.00000000000E+00 -0.74505805969E-08  0.93827000000E+00  0.93827000000E+00 0. -1.
     999902    2    1    2    0    0  0.51625947180E-02 -0.16396139595E-01  0.18567884818E-01  0.10186267962E+01  0.10183124755E+01 0.  0.
     999903    2    3    3    0    0  0.30595970597E-01  0.26685605768E-01  0.12288253798E+00  0.13105457924E+00  0.20662759426E-01 0.  0.
         14    1    1    2    0    0 -0.51625947180E-02  0.16396139595E-01 -0.18567884818E-01  0.25303203838E-01  0.00000000000E+00 0.  1.
     999901    1    3    3    0    0 -0.25433375879E-01 -0.43081745364E-01 -0.10431465316E+00  0.88757221692E+00  0.88000000000E+00 0.  1.
        -11    1    4    4    0    0  0.92196077218E-02 -0.14211037408E-02  0.37723627802E-01  0.38863272095E-01  0.51100000000E-03 0. -1.
         11    1    4    4    0    0  0.21376362876E-01  0.28106709509E-01  0.85158910177E-01  0.92191307143E-01  0.51100000000E-03 0.  1.
</event>
<event>
 8    1  0.1086235E+005  0.1043930E+01  0.7957747E-01            NaN
         13   -1    0    0    0    0  0.00000000000E+00  0.00000000000E+00  0.74505805969E-08  0.10566000000E+00  0.10566000000E+00 0. -1.
     999900   -1    0    0    0    0 -0.00000000000E+00 -0.00000000000E+00 -0.74505805969E-08  0.93827000000E+00  0.93827000000E+00 0.  1.
     999902    2    1    2    0    0  0.63364849943E-02  0.21344363360E-01  0.96634365275E-02  0.10196583108E+01  0.10193693913E+01 0.  0.
     999903    2    3    3    0    0 -0.28848854791E-01 -0.25856164129E-01 -0.12031456262E+00  0.12816508136E+00  0.21210762737E-01 0.  0.
         14    1    1    2    0    0 -0.63364849943E-02 -0.21344363360E-01 -0.96634365275E-02  0.24271689163E-01  0.00000000000E+00 0. -1.
     999901    1    3    3    0    0  0.35185339786E-01  0.47200527488E-01  0.12997799915E+00  0.89149322947E+00  0.88000000000E+00 0. -1.
        -11    1    4    4    0    0 -0.16614252203E-01 -0.18629051119E-01 -0.44470000634E-01  0.50999186260E-01  0.51100000000E-03 0. -1.
         11    1    4    4    0    0 -0.12234602588E-01 -0.72271130099E-02 -0.75844561989E-01  0.77165895105E-01  0.51100000000E-03 0.  1.
</event>
<event>
 8    1  0.1086235E+005  0.1043930E+01  0.7957747E-01            NaN
         13   -1    0    0    0    0  0.00000000000E+00  0.00000000000E+00  0.74505805969E-08  0.10566000000E+00  0.10566000000E+00 0.  1.
     999900   -1    0    0    0    0 -0.00000000000E+00 -0.00000000000E+00 -0.74505805969E-08  0.93827000000E+00  0.93827000000E+00 0.  1.
     999902    2    1    2    0    0  0.19083025757E-01  0.13564923019E-01  0.53974014318E-02  0.10199029121E+01  0.10196198553E+01 0.  0.
     999903    2    3    3    0    0 -0.48784572566E-01  0.81506975811E-01 -0.86262542429E-01  0.12994579029E+00  0.20527068964E-01 0.  0.
         14    1    1    2    0    0 -0.19083025757E-01 -0.13564923019E-01 -0.53974014318E-02  0.24027087855E-01  0.00000000000E+00 0.  1.
     999901    1    3    3    0    0  0.67867598323E-01 -0.67942052792E-01  0.91659943861E-01  0.88995712186E+00  0.88000000000E+00 0. -1.
        -11    1    4    4    0    0 -0.34888830902E-01  0.44783774715E-01 -0.60585740440E-01  0.83028369038E-01  0.51100000000E-03 0. -1.
         11    1    4    4    0    0 -0.13895741664E-01  0.36723201096E-01 -0.25676801989E-01  0.46917421248E-01  0.51100000000E-03 0.  1.
</event>
<event>
 8    1  0.1086235E+005  0.1043930E+01  0.7957747E-01            NaN
         13   -1    0    0    0    0  0.00000000000E+00  0.00000000000E+00  0.74505805969E-08  0.10566000000E+00  0.10566000000E+00 0. -1.
     999900   -1    0    0    0    0 -0.00000000000E+00 -0.00000000000E+00 -0.74505805969E-08  0.93827000000E+00  0.93827000000E+00 0.  1.
     999902    2    1    2    0    0  0.21457335856E-01  0.12204827920E-01 -0.10470607753E-02  0.10192222801E+01  0.10189227570E+01 0.  0.
     999903    2    3    3    0    0  0.72416813596E-01 -0.30665190583E-01  0.10161490197E+00  0.13075495630E+00  0.24222334529E-01 0.  0.
         14    1    1    2    0    0 -0.21457335856E-01 -0.12204827920E-01  0.10470607753E-02  0.24707719904E-01  0.00000000000E+00 0.  1.
     999901    1    3    3    0    0 -0.50959477740E-01  0.42870018503E-01 -0.10266196274E+00  0.88846732380E+00  0.88000000000E+00 0.  1.
        -11    1    4    4    0    0  0.54453923193E-01 -0.17471981349E-01  0.86944255588E-01  0.10406759623E+00  0.51100000000E-03 0.  1.
         11    1    4    4    0    0  0.17962890403E-01 -0.13193209234E-01  0.14670646381E-01  0.26687360075E-01  0.51100000000E-03 0. -1.
</event>
<event>
 8    1  0.1086235E+005  0.1043930E+01  0.7957747E-01            NaN
         13   -1    0    0    0    0  0.00000000000E+00  0.00000000000E+00  0.74505805969E-08  0.10566000000E+00  0.10566000000E+00 0. -1.
     999900   -1    0    0    0    0 -0.00000000000E+00 -0.00000000000E+00 -0.74505805969E-08  0.93827000000E+00  0.93827000000E+00 0.  1.
     999902    2    1    2    0    0  0.40542491602E-02  0.20508924938E-02 -0.19838936120E-01  0.10235774453E+01  0.10233750828E+01 0.  0.
     999903    2    3    3    0    0  0.25991095491E-01  0.92848236106E-01  0.88001464728E-01  0.13208715658E+00  0.20160038358E-01 0.  0.
         14    1    1    2    0    0 -0.40542491602E-02 -0.20508924938E-02  0.19838936120E-01  0.20352554695E-01  0.00000000000E+00 0. -1.
     999901    1    3    3    0    0 -0.21936846331E-01 -0.90797343612E-01 -0.10784040085E+00  0.89149028872E+00  0.88000000000E+00 0.  1.
        -11    1    4    4    0    0  0.91072789063E-02  0.47767646732E-01  0.56540607403E-01  0.74577422924E-01  0.51100000000E-03 0. -1.
         11    1    4    4    0    0  0.16883816585E-01  0.45080589373E-01  0.31460857325E-01  0.57509733657E-01  0.51100000000E-03 0.  1.
</event>
<event>
 8    1  0.1086235E+005  0.1043930E+01  0.7957747E-01            NaN
         13   -1    0    0    0    0  0.00000000000E+00  0.00000000000E+00  0.74505805969E-08  0.10566000000E+00  0.10566000000E+00 0. -1.
     999900   -1    0    0    0    0 -0.00000000000E+00 -0.00000000000E+00 -0.74505805969E-08  0.93827000000E+00  0.93827000000E+00 0. -1.
     999902    2    1    2    0    0 -0.22636306998E-02  0.25279146938E-01  0.14970876575E-01  0.10144632995E+01  0.10140352556E+01 0.  0.
     999903    2    3    3    0    0 -0.13699578056E-01  0.29728492908E-02  0.12481240024E+00  0.12728039155E+00  0.20631203243E-01 0.  0.
         14    1    1    2    0    0  0.22636306998E-02 -0.25279146938E-01 -0.14970876575E-01  0.29466700516E-01  0.00000000000E+00 0.  1.
     999901    1    3    3    0    0  0.11435947356E-01  0.22306297647E-01 -0.10984152367E+00  0.88718290793E+00  0.88000000000E+00 0. -1.
        -11    1    4    4    0    0 -0.16120332473E-02  0.16206792669E-02  0.95655076236E-01  0.95683749839E-01  0.51100000000E-03 0.  1.
         11    1    4    4    0    0 -0.12087544808E-01  0.13521700239E-02  0.29157324007E-01  0.31596641712E-01  0.51100000000E-03 0. -1.
</event>
<event>
 8    1  0.1086235E+005  0.1043930E+01  0.7957747E-01            NaN
         13   -1    0    0    0    0  0.00000000000E+00  0.00000000000E+00  0.74505805969E-08  0.10566000000E+00  0.10566000000E+00 0. -1.
     999900   -1    0    0    0    0 -0.00000000000E+00 -0.00000000000E+00 -0.74505805969E-08  0.93827000000E+00  0.93827000000E+00 0.  1.
     999902    2    1    2    0    0  0.67887042190E-02 -0.22598354957E-01  0.11928594991E-03  0.10203336787E+01  0.10200607969E+01 0.  0.
     999903    2    3    3    0    0 -0.69250049122E-02 -0.12383582132E+00  0.44643127734E-01  0.13330523329E+00  0.19849685959E-01 0.  0.
         14    1    1    2    0    0 -0.67887042190E-02  0.22598354957E-01 -0.11928594991E-03  0.23596321342E-01  0.00000000000E+00 0. -1.
     999901    1    3    3    0    0  0.13713709131E-01  0.10123746636E+00 -0.44523841785E-01  0.88702844537E+00  0.88000000000E+00 0. -1.
        -11    1    4    4    0    0 -0.11294213038E-01 -0.37830104753E-01  0.13424245174E-01  0.41703088054E-01  0.51100000000E-03 0. -1.
         11    1    4    4    0    0  0.43692081259E-02 -0.86005716565E-01  0.31218882561E-01  0.91602145231E-01  0.51100000000E-03 0.  1.
</event>
<event>
 8    1  0.1086235E+005  0.1043930E+01  0.7957747E-01            NaN
         13   -1    0    0    0    0  0.00000000000E+00  0.00000000000E+00  0.74505805969E-08  0.10566000000E+00  0.10566000000E+00 0.  1.
     999900   -1    0    0    0    0 -0.00000000000E+00 -0.00000000000E+00 -0.74505805969E-08  0.93827000000E+00  0.93827000000E+00 0.  1.
     999902    2    1    2    0    0  0.12879020039E-01 -0.12695038932E-01  0.14785764119E-01  0.10205708050E+01  0.10203034431E+01 0.  0.
     999903    2    3    3    0    0 -0.12462761571E+00 -0.13893117985E-01 -0.21979923305E-01  0.12913307524E+00  0.21614179732E-01 0.  0.
         14    1    1    2    0    0 -0.12879020039E-01  0.12695038932E-01 -0.14785764119E-01  0.23359195004E-01  0.00000000000E+00 0. -1.
     999901    1    3    3    0    0  0.13750663575E+00  0.11980790535E-02  0.36765687424E-01  0.89143772976E+00  0.88000000000E+00 0. -1.
        -11    1    4    4    0    0 -0.95065306765E-01 -0.19673972323E-01 -0.15376033035E-01  0.98291206373E-01  0.51100000000E-03 0.  1.
         11    1    4    4    0    0 -0.29562308948E-01  0.57808543381E-02 -0.66038902701E-02  0.30841868862E-01  0.51100000000E-03 0. -1.
</event>
<event>
 8    1  0.1086235E+005  0.1043930E+01  0.7957747E-01            NaN
         13   -1    0    0    0    0  0.00000000000E+00  0.00000000000E+00  0.74505805969E-08  0.10566000000E+00  0.10566000000E+00 0. -1.
     999900   -1    0    0    0    0 -0.00000000000E+00 -0.00000000000E+00 -0.74505805969E-08  0.93827000000E+00  0.93827000000E+00 0. -1.
     999902    2    1    2    0    0  0.10828580036E-01 -0.36646065045E-02  0.18894869105E-01  0.10218459885E+01  0.10216073221E+01 0.  0.
     999903    2    3    3    0    0  0.21606431824E-01 -0.10028190262E+00  0.84115233920E-01  0.13409334276E+00  0.19553877008E-01 0.  0.
         14    1    1    2    0    0 -0.10828580036E-01  0.36646065045E-02 -0.18894869105E-01  0.22084011523E-01  0.00000000000E+00 0.  1.
     999901    1    3    3    0    0 -0.10777851788E-01  0.96617296111E-01 -0.65220364814E-01  0.88775264572E+00  0.88000000000E+00 0. -1.
        -11    1    4    4    0    0  0.11227518875E-01 -0.56688501388E-01  0.34815044349E-01  0.67468450433E-01  0.51100000000E-03 0. -1.
         11    1    4    4    0    0  0.10378912950E-01 -0.43593401227E-01  0.49300189570E-01  0.66624892324E-01  0.51100000000E-03 0.  1.
</event>
<event>
 8    1  0.1086235E+005  0.1043930E+01  0.7957747E-01            NaN
         13   -1    0    0    0    0  0.00000000000E+00  0.00000000000E+00  0.74505805969E-08  0.10566000000E+00  0.10566000000E+00 0. -1.
     999900   -1    0    0    0    0 -0.00000000000E+00 -0.00000000000E+00 -0.74505805969E-08  0.93827000000E+00  0.93827000000E+00 0.  1.
     999902    2    1    2    0    0 -0.21717932973E-01  0.81087118331E-02 -0.49362751838E-02  0.10202279614E+01  0.10199526002E+01 0.  0.
     999903    2    3    3    0    0  0.11110817524E+00  0.55890085365E-01 -0.24015686039E-01  0.12877417204E+00  0.23179861134E-01 0.  0.
         14    1    1    2    0    0  0.21717932973E-01 -0.81087118331E-02  0.49362751838E-02  0.23702038581E-01  0.00000000000E+00 0.  1.
     999901    1    3    3    0    0 -0.13282610821E+00 -0.47781373532E-01  0.19079410855E-01  0.89145378938E+00  0.88000000000E+00 0.  1.
        -11    1    4    4    0    0  0.95604366474E-01  0.48598910612E-01 -0.28666931929E-01  0.11101397709E+00  0.51100000000E-03 0.  1.
         11    1    4    4    0    0  0.15503808762E-01  0.72911747532E-02  0.46512458902E-02  0.17760194952E-01  0.51100000000E-03 0. -1.
</event>
<event>
 8    1  0.1086235E+005  0.1043930E+01  0.7957747E-01            NaN
         13   -1    0    0    0    0  0.00000000000E+00  0.00000000000E+00  0.74505805969E-08  0.10566000000E+00  0.10566000000E+00 0.  1.
     999900   -1    0    0    0    0 -0.00000000000E+00 -0.00000000000E+00 -0.74505805969E-08  0.93827000000E+00  0.93827000000E+00 0. -1.
     999902    2    1    2    0    0  0.11628972033E-01  0.95613768271E-02  0.16309891141E-01  0.10217339313E+01  0.10214928100E+01 0.  0.
     999903    2    3    3    0    0  0.29538042339E-01  0.68684409095E-03  0.12945324075E+00  0.13426510947E+00  0.19900009572E-01 0.  0.
         14    1    1    2    0    0 -0.11628972033E-01 -0.95613768271E-02 -0.16309891141E-01  0.22196068715E-01  0.00000000000E+00 0. -1.
     999901    1    3    3    0    0 -0.17909070305E-01  0.88745327362E-02 -0.11314334961E+00  0.88746882181E+00  0.88000000000E+00 0. -1.
        -11    1    4    4    0    0  0.59523874972E-02  0.82680928109E-02  0.50297194848E-01  0.51321157491E-01  0.51100000000E-03 0. -1.
         11    1    4    4    0    0  0.23585654841E-01 -0.75812487200E-02  0.79156045901E-01  0.82943951980E-01  0.51100000000E-03 0.  1.
</event>
<event>
 8    1  0.1086235E+005  0.1043930E+01  0.7957747E-01            NaN
         13   -1    0    0    0    0  0.00000000000E+00  0.00000000000E+00  0.74505805969E-08  0.10566000000E+00  0.10566000000E+00 0. -1.
     999900   -1    0    0    0    0 -0.00000000000E+00 -0.00000000000E+00 -0.74505805969E-08  0.93827000000E+00  0.93827000000E+00 0.  1.
     999902    2    1    2    0    0 -0.20802916510E-01  0.78378189375E-02  0.83899243776E-03  0.10216837273E+01  0.10214415020E+01 0.  0.
     999903    2    3    3    0    0 -0.89552480632E-01 -0.87041233843E-01 -0.39542614031E-01  0.13299975008E+00  0.23010693593E-01 0.  0.
         14    1    1    2    0    0  0.20802916510E-01 -0.78378189375E-02 -0.83899243776E-03  0.22246272706E-01  0.00000000000E+00 0.  1.
     999901    1    3    3    0    0  0.68749564123E-01  0.94879052780E-01  0.40381606468E-01  0.88868397722E+00  0.88000000000E+00 0. -1.
        -11    1    4    4    0    0 -0.49200192410E-01 -0.46137545510E-01 -0.33235592220E-01  0.75194399726E-01  0.51100000000E-03 0. -1.
         11    1    4    4    0    0 -0.40352288222E-01 -0.40903688333E-01 -0.63070218103E-02  0.57805350350E-01  0.51100000000E-03 0.  1.
</event>
<event>
 8    1  0.1086235E+005  0.1043930E+01  0.7957747E-01            NaN
         13   -1    0    0    0    0  0.00000000000E+00  0.00000000000E+00  0.74505805969E-08  0.10566000000E+00  0.10566000000E+00 0.  1.
     999900   -1    0    0    0    0 -0.00000000000E+00 -0.00000000000E+00 -0.74505805969E-08  0.93827000000E+00  0.93827000000E+00 0. -1.
     999902    2    1    2    0    0 -0.20015623871E-01  0.55971431929E-02  0.13170710358E-02  0.10231048256E+01  0.10228928567E+01 0.  0.
     999903    2    3    3    0    0 -0.60448654899E-01 -0.16212733917E-01  0.11704974399E+00  0.13433907905E+00  0.20723247131E-01 0.  0.
         14    1    1    2    0    0  0.20015623871E-01 -0.55971431929E-02 -0.13170710358E-02  0.20825174357E-01  0.00000000000E+00 0. -1.
     999901    1    3    3    0    0  0.40433031028E-01  0.21809877110E-01 -0.11573267295E+00  0.88876574660E+00  0.88000000000E+00 0. -1.
        -11    1    4    4    0    0 -0.12664361438E-01  0.49740195627E-02  0.26074134256E-01  0.29415106993E-01  0.51100000000E-03 0.  1.
         11    1    4    4    0    0 -0.47784293461E-01 -0.21186753480E-01  0.90975609730E-01  0.10492397205E+00  0.51100000000E-03 0. -1.
</event>
<event>
 8    1  0.1086235E+005  0.1043930E+01  0.7957747E-01            NaN
         13   -1    0    0    0    0  0.00000000000E+00  0.00000000000E+00  0.74505805969E-08  0.10566000000E+00  0.10566000000E+00 0. -1.
     999900   -1    0    0    0    0 -0.00000000000E+00 -0.00000000000E+00 -0.74505805969E-08  0.93827000000E+00  0.93827000000E+00 0.  1.
     999902    2    1    2    0    0  0.12339963330E-01 -0.20915313510E-02 -0.20967740166E-01  0.10195108410E+01  0.10192183572E+01 0.  0.
     999903    2    3    3    0    0  0.77167822105E-01 -0.78174245555E-01 -0.71241232381E-01  0.13242648499E+00  0.19884046319E-01 0.  0.
         14    1    1    2    0    0 -0.12339963330E-01  0.20915313510E-02  0.20967740166E-01  0.24419158996E-01  0.00000000000E+00 0. -1.
     999901    1    3    3    0    0 -0.64827858774E-01  0.76082714204E-01  0.50273492215E-01  0.88708435602E+00  0.88000000000E+00 0. -1.
        -11    1    4    4    0    0  0.55531936069E-01 -0.53798700622E-01 -0.39080621133E-01  0.86635167116E-01  0.51100000000E-03 0.  1.
         11    1    4    4    0    0  0.21635886036E-01 -0.24375544933E-01 -0.32160611248E-01  0.45791317869E-01  0.51100000000E-03 0. -1.
</event>
<event>
 8    1  0.1086235E+005  0.1043930E+01  0.7957747E-01            NaN
         13   -1    0    0    0    0  0.00000000000E+00  0.00000000000E+00  0.74505805969E-08  0.10566000000E+00  0.10566000000E+00 0.  1.
     999900   -1    0    0    0    0 -0.00000000000E+00 -0.00000000000E+00 -0.74505805969E-08  0.93827000000E+00  0.93827000000E+00 0. -1.
     999902    2    1    2    0    0 -0.12767094430E-01  0.32976700692E-02  0.19667266265E-01  0.10202514297E+01  0.10199766199E+01 0.  0.
     999903    2    3    3    0    0  0.11219568352E+00  0.57715691775E-01 -0.17316482973E-01  0.12899119014E+00  0.20491317014E-01 0.  0.
         14    1    1    2    0    0  0.12767094430E-01 -0.32976700692E-02 -0.19667266265E-01  0.23678570278E-01  0.00000000000E+00 0. -1.
     999901    1    3    3    0    0 -0.12496277795E+00 -0.54418021706E-01  0.36983749238E-01  0.89126023959E+00  0.88000000000E+00 0. -1.
        -11    1    4    4    0    0  0.81725751566E-01  0.31420656904E-01 -0.10981838210E-01  0.88245215399E-01  0.51100000000E-03 0. -1.
         11    1    4    4    0    0  0.30469931953E-01  0.26295034870E-01 -0.63346447633E-02  0.40745974738E-01  0.51100000000E-03 0.  1.
</event>
<event>
 8    1  0.1086235E+005  0.1043930E+01  0.7957747E-01            NaN
         13   -1    0    0    0    0  0.00000000000E+00  0.00000000000E+00  0.74505805969E-08  0.10566000000E+00  0.10566000000E+00 0.  1.
     999900   -1    0    0    0    0 -0.00000000000E+00 -0.00000000000E+00 -0.74505805969E-08  0.93827000000E+00  0.93827000000E+00 0. -1.
     999902    2    1    2    0    0 -0.30838349142E-02 -0.17692669596E-01  0.14919676673E-01  0.10205818235E+01  0.10203147167E+01 0.  0.
     999903    2    3    3    0    0  0.89157434625E-01 -0.68907861806E-01  0.66960857011E-01  0.13275316198E+00  0.21031026500E-01 0.  0.
         14    1    1    2    0    0  0.30838349142E-02  0.17692669596E-01 -0.14919676673E-01  0.23348176529E-01  0.00000000000E+00 0. -1.
     999901    1    3    3    0    0 -0.92241269539E-01  0.51215192210E-01 -0.52041180338E-01  0.88782866149E+00  0.88000000000E+00 0. -1.
        -11    1    4    4    0    0  0.66734307604E-01 -0.40198312142E-01  0.41177658572E-01  0.88120558311E-01  0.51100000000E-03 0. -1.
         11    1    4    4    0    0  0.22423127021E-01 -0.28709549664E-01  0.25783198439E-01  0.44632603666E-01  0.51100000000E-03 0.  1.
</event>
<event>
 8    1  0.1086235E+005  0.1043930E+01  0.7957747E-01            NaN
         13   -1    0    0    0    0  0.00000000000E+00  0.00000000000E+00  0.74505805969E-08  0.10566000000E+00  0.10566000000E+00 0. -1.
     999900   -1    0    0    0    0 -0.00000000000E+00 -0.00000000000E+00 -0.74505805969E-08  0.93827000000E+00  0.93827000000E+00 0.  1.
     999902    2    1    2    0    0 -0.74478940009E-02  0.61777534786E-02  0.20764923221E-01  0.10210210978E+01  0.10207640591E+01 0.  0.
     999903    2    3    3    0    0  0.55763857740E-01 -0.68453318214E-01  0.96552597979E-01  0.13236520599E+00  0.20066862644E-01 0.  0.
         14    1    1    2    0    0  0.74478940009E-02 -0.61777534786E-02 -0.20764923221E-01  0.22908902188E-01  0.00000000000E+00 0.  1.
     999901    1    3    3    0    0 -0.63211751741E-01  0.74631071692E-01 -0.75787674758E-01  0.88865589182E+00  0.88000000000E+00 0.  1.
        -11    1    4    4    0    0  0.39132855617E-01 -0.39165705854E-01  0.48031276675E-01  0.73298005183E-01  0.51100000000E-03 0. -1.
         11    1    4    4    0    0  0.16631002123E-01 -0.29287612360E-01  0.48521321304E-01  0.59067200809E-01  0.51100000000E-03 0.  1.
</event>
<event>
 8    1  0.1086235E+005  0.1043930E+01  0.7957747E-01            NaN
         13   -1    0    0    0    0  0.00000000000E+00  0.00000000000E+00  0.74505805969E-08  0.10566000000E+00  0.10566000000E+00 0.  1.
     999900   -1    0    0    0    0 -0.00000000000E+00 -0.00000000000E+00 -0.74505805969E-08  0.93827000000E+00  0.93827000000E+00 0.  1.
     999902    2    1    2    0    0 -0.15416785562E-01  0.10679462050E-01 -0.14872785729E-01  0.10199940868E+01  0.10197131994E+01 0.  0.
     999903    2    3    3    0    0 -0.38399566640E-01 -0.12123409470E+00 -0.17706869997E-01  0.12986071097E+00  0.19443214068E-01 0.  0.
         14    1    1    2    0    0  0.15416785562E-01 -0.10679462050E-01  0.14872785729E-01  0.23935913229E-01  0.00000000000E+00 0.  1.
     999901    1    3    3    0    0  0.22982781078E-01  0.13191355675E+00  0.28340842681E-02  0.89013337580E+00  0.88000000000E+00 0.  1.
        -11    1    4    4    0    0 -0.15494425701E-01 -0.41989650390E-01 -0.15410912765E-01  0.47338835230E-01  0.51100000000E-03 0.  1.
         11    1    4    4    0    0 -0.22905140939E-01 -0.79244444308E-01 -0.22959572320E-02  0.82521875741E-01  0.51100000000E-03 0. -1.
</event>
<event>
 8    1  0.1086235E+005  0.1043930E+01  0.7957747E-01            NaN
         13   -1    0    0    0    0  0.00000000000E+00  0.00000000000E+00  0.74505805969E-08  0.10566000000E+00  0.10566000000E+00 0. -1.
     999900   -1    0    0    0    0 -0.00000000000E+00 -0.00000000000E+00 -0.74505805969E-08  0.93827000000E+00  0.93827000000E+00 0. -1.
     999902    2    1    2    0    0 -0.69479858617E-02  0.10839994021E-01  0.18979163430E-01  0.10209955582E+01  0.10207379395E+01 0.  0.
     999903    2    3    3    0    0 -0.60479090814E-01 -0.33055270031E-01 -0.10766453896E+00  0.12923830377E+00  0.18987230188E-01 0.  0.
         14    1    1    2    0    0  0.69479858617E-02 -0.10839994021E-01 -0.18979163430E-01  0.22934441838E-01  0.00000000000E+00 0.  1.
     999901    1    3    3    0    0  0.53531104953E-01  0.43895264053E-01  0.12664370239E+00  0.89175725439E+00  0.88000000000E+00 0.  1.
        -11    1    4    4    0    0 -0.80073899140E-02 -0.12640039828E-01 -0.18731768898E-01  0.23979766203E-01  0.51100000000E-03 0. -1.
         11    1    4    4    0    0 -0.52471700900E-01 -0.20415230203E-01 -0.88932770060E-01  0.10525853757E+00  0.51100000000E-03 0.  1.
</event>
<event>
 8    1  0.1086235E+005  0.1043930E+01  0.7957747E-01            NaN
         13   -1    0    0    0    0  0.00000000000E+00  0.00000000000E+00  0.74505805969E-08  0.10566000000E+00  0.10566000000E+00 0. -1.
     999900   -1    0    0    0    0 -0.00000000000E+00 -0.00000000000E+00 -0.74505805969E-08  0.93827000000E+00  0.93827000000E+00 0. -1.
     999902    2    1    2    0    0 -0.92986257123E-02 -0.18166663954E-01 -0.79770795559E-02  0.10220182242E+01  0.10217833062E+01 0.  0.
     999903    2    3    3    0    0 -0.71257455486E-01  0.10632470714E+00  0.11569872497E-01  0.13088463076E+00  0.24786212108E-01 0.  0.
         14    1    1    2    0    0  0.92986257123E-02  0.18166663954E-01  0.79770795559E-02  0.21911775774E-01  0.00000000000E+00 0.  1.
     999901    1    3    3    0    0  0.61958829773E-01 -0.12449137109E+00 -0.19546952053E-01  0.89113359346E+00  0.88000000000E+00 0. -1.
        -11    1    4    4    0    0 -0.66767716264E-01  0.93935121165E-01  0.17239211906E-01  0.11652976646E+00  0.51100000000E-03 0.  1.
         11    1    4    4    0    0 -0.44897392219E-02  0.12389585970E-01 -0.56693394085E-02  0.14354864302E-01  0.51100000000E-03 0. -1.
</event>
<event>
 8    1  0.1086235E+005  0.1043930E+01  0.7957747E-01            NaN
         13   -1    0    0    0    0  0.00000000000E+00  0.00000000000E+00  0.74505805969E-08  0.10566000000E+00  0.10566000000E+00 0. -1.
     999900   -1    0    0    0    0 -0.00000000000E+00 -0.00000000000E+00 -0.74505805969E-08  0.93827000000E+00  0.93827000000E+00 0. -1.
     999902    2    1    2    0    0 -0.15407760589E-01 -0.15980959521E-01 -0.83847752321E-02  0.10202003854E+01  0.10199243755E+01 0.  0.
     999903    2    3    3    0    0 -0.40061001907E-01  0.12062295555E+00 -0.13997642623E-01  0.12930200949E+00  0.19190997359E-01 0.  0.
         14    1    1    2    0    0  0.15407760589E-01  0.15980959521E-01  0.83847752321E-02  0.23729614604E-01  0.00000000000E+00 0. -1.
     999901    1    3    3    0    0  0.24653241318E-01 -0.13660391507E+00  0.56128673908E-02  0.89089837591E+00  0.88000000000E+00 0. -1.
        -11    1    4    4    0    0 -0.24143228349E-01  0.85489095643E-01 -0.18286768970E-02  0.88853171745E-01  0.51100000000E-03 0. -1.
         11    1    4    4    0    0 -0.15917773558E-01  0.35133859902E-01 -0.12168965726E-01  0.40448837740E-01  0.51100000000E-03 0.  1.
</event>
<event>
 8    1  0.1086235E+005  0.1043930E+01  0.7957747E-01            NaN
         13   -1    0    0    0    0  0.00000000000E+00  0.00000000000E+00  0.74505805969E-08  0.10566000000E+00  0.10566000000E+00 0.  1.
     999900   -1    0    0    0    0 -0.00000000000E+00 -0.00000000000E+00 -0.74505805969E-08  0.93827000000E+00  0.93827000000E+00 0.  1.
     999902    2    1    2    0    0  0.65828347165E-02  0.22590662506E-01  0.24753081403E-02  0.10202699304E+01  0.10199955548E+01 0.  0.
     999903    2    3    3    0    0  0.80545967293E-02 -0.95536197882E-01  0.83500526081E-01  0.12868639127E+00  0.19894919120E-01 0.  0.
         14    1    1    2    0    0 -0.65828347165E-02 -0.22590662506E-01 -0.24753081403E-02  0.23660069648E-01  0.00000000000E+00 0. -1.
     999901    1    3    3    0    0 -0.14717620128E-02  0.11812686039E+00 -0.81025217941E-01  0.89158353909E+00  0.88000000000E+00 0.  1.
        -11    1    4    4    0    0 -0.56164157454E-02 -0.13165321864E-01  0.14298952006E-01  0.20238354060E-01  0.51100000000E-03 0. -1.
         11    1    4    4    0    0  0.13671012475E-01 -0.82370876019E-01  0.69201574075E-01  0.10844803721E+00  0.51100000000E-03 0.  1.
</event>
<event>
 8    1  0.1086235E+005  0.1043930E+01  0.7957747E-01            NaN
         13   -1    0    0    0    0  0.00000000000E+00  0.00000000000E+00  0.74505805969E-08  0.10566000000E+00  0.10566000000E+00 0. -1.
     999900   -1    0    0    0    0 -0.00000000000E+00 -0.00000000000E+00 -0.74505805969E-08  0.93827000000E+00  0.93827000000E+00 0. -1.
     999902    2    1    2    0    0 -0.16720562267E-01 -0.86455650020E-02 -0.14569254987E-01  0.10201269290E+01  0.10198491875E+01 0.  0.
     999903    2    3    3    0    0 -0.11948349174E+00 -0.22133236443E-01  0.47150607914E-01  0.13189752261E+00  0.20188900155E-01 0.  0.
         14    1    1    2    0    0  0.16720562267E-01  0.86455650020E-02  0.14569254987E-01  0.23803070970E-01  0.00000000000E+00 0. -1.
     999901    1    3    3    0    0  0.10276292947E+00  0.13487671442E-01 -0.61719862900E-01  0.88822940642E+00  0.88000000000E+00 0. -1.
        -11    1    4    4    0    0 -0.66619746333E-01 -0.22477488343E-01  0.26445021918E-01  0.75120093111E-01  0.51100000000E-03 0.  1.
         11    1    4    4    0    0 -0.52863745408E-01  0.34425189971E-03  0.20705585995E-01  0.56777429498E-01  0.51100000000E-03 0. -1.
</event>
<event>
 8    1  0.1086235E+005  0.1043930E+01  0.7957747E-01            NaN
         13   -1    0    0    0    0  0.00000000000E+00  0.00000000000E+00  0.74505805969E-08  0.10566000000E+00  0.10566000000E+00 0.  1.
     999900   -1    0    0    0    0 -0.00000000000E+00 -0.00000000000E+00 -0.74505805969E-08  0.93827000000E+00  0.93827000000E+00 0. -1.
     999902    2    1    2    0    0  0.97262195684E-02 -0.11031257561E-01 -0.11512460506E-01  0.10252531497E+01  0.10250830192E+01 0.  0.
     999903    2    3    3    0    0  0.10163343104E+00 -0.61580874585E-01 -0.66102999809E-01  0.13734418686E+00  0.19294057632E-01 0.  0.
         14    1    1    2    0    0 -0.97262195684E-02  0.11031257561E-01  0.11512460506E-01  0.18676850306E-01  0.00000000000E+00 0.  1.
     999901    1    3    3    0    0 -0.91907211474E-01  0.50549617024E-01  0.54590539304E-01  0.88790896284E+00  0.88000000000E+00 0. -1.
        -11    1    4    4    0    0  0.93182898126E-01 -0.51021797372E-01 -0.53936924994E-01  0.11914583211E+00  0.51100000000E-03 0.  1.
         11    1    4    4    0    0  0.84505329161E-02 -0.10559077212E-01 -0.12166074815E-01  0.18198354748E-01  0.51100000000E-03 0. -1.
</event>
<event>
 8    1  0.1086235E+005  0.1043930E+01  0.7957747E-01            NaN
         13   -1    0    0    0    0  0.00000000000E+00  0.00000000000E+00  0.74505805969E-08  0.10566000000E+00  0.10566000000E+00 0. -1.
     999900   -1    0    0    0    0 -0.00000000000E+00 -0.00000000000E+00 -0.74505805969E-08  0.93827000000E+00  0.93827000000E+00 0. -1.
     999902    2    1    2    0    0  0.13955000346E-01 -0.15038531684E-01  0.10321031042E-01  0.10209643049E+01  0.10207059756E+01 0.  0.
     999903    2    3    3    0    0  0.77973461093E-01  0.74731648427E-01  0.72890882329E-01  0.13187936247E+00  0.20356954777E-01 0.  0.
         14    1    1    2    0    0 -0.13955000346E-01  0.15038531684E-01 -0.10321031042E-01  0.22965695105E-01  0.00000000000E+00 0.  1.
     999901    1    3    3    0    0 -0.64018460747E-01 -0.89770180111E-01 -0.62569851287E-01  0.88908494242E+00  0.88000000000E+00 0. -1.
        -11    1    4    4    0    0  0.66520933802E-01  0.70707411216E-01  0.59810675782E-01  0.11402697353E+00  0.51100000000E-03 0.  1.
         11    1    4    4    0    0  0.11452527291E-01  0.40242372113E-02  0.13080206547E-01  0.17852388938E-01  0.51100000000E-03 0. -1.
</event>
<event>
 8    1  0.1086235E+005  0.1043930E+01  0.7957747E-01            NaN
         13   -1    0    0    0    0  0.00000000000E+00  0.00000000000E+00  0.74505805969E-08  0.10566000000E+00  0.10566000000E+00 0. -1.
     999900   -1    0    0    0    0 -0.00000000000E+00 -0.00000000000E+00 -0.74505805969E-08  0.93827000000E+00  0.93827000000E+00 0.  1.
     999902    2    1    2    0    0  0.81162359036E-03  0.13850762537E-01  0.18580910116E-01  0.10207405072E+01  0.10204770602E+01 0.  0.
     999903    2    3    3    0    0  0.12335046857E+00 -0.33767323578E-01 -0.15151342368E-01  0.13033547828E+00  0.20055011467E-01 0.  0.
         14    1    1    2    0    0 -0.81162359036E-03 -0.13850762537E-01 -0.18580910116E-01  0.23189492803E-01  0.00000000000E+00 0.  1.
     999901    1    3    3    0    0 -0.12253884498E+00  0.47618086116E-01  0.33732252484E-01  0.89040502891E+00  0.88000000000E+00 0. -1.
        -11    1    4    4    0    0  0.45396683013E-01 -0.21608098310E-01 -0.10039345718E-01  0.51272003321E-01  0.51100000000E-03 0. -1.
         11    1    4    4    0    0  0.77953785561E-01 -0.12159225268E-01 -0.51119966500E-02  0.79063474963E-01  0.51100000000E-03 0.  1.
</event>
<event>
 8    1  0.1086235E+005  0.1043930E+01  0.7957747E-01            NaN
         13   -1    0    0    0    0  0.00000000000E+00  0.00000000000E+00  0.74505805969E-08  0.10566000000E+00  0.10566000000E+00 0. -1.
     999900   -1    0    0    0    0 -0.00000000000E+00 -0.00000000000E+00 -0.74505805969E-08  0.93827000000E+00  0.93827000000E+00 0. -1.
     999902    2    1    2    0    0 -0.79189441999E-02  0.15741195797E-01  0.76630434454E-02  0.10247149757E+01  0.10245348039E+01 0.  0.
     999903    2    3    3    0    0  0.10264490014E-01 -0.86347361363E-01 -0.97773696457E-01  0.13237556896E+00  0.20059136773E-01 0.  0.
         14    1    1    2    0    0  0.79189441999E-02 -0.15741195797E-01 -0.76630434454E-02  0.19215024257E-01  0.00000000000E+00 0.  1.
     999901    1    3    3    0    0 -0.18183434214E-01  0.10208855716E+00  0.10543673990E+00  0.89233940679E+00  0.88000000000E+00 0. -1.
        -11    1    4    4    0    0  0.10752290689E-01 -0.18638827392E-01 -0.24037348623E-01  0.32265661181E-01  0.51100000000E-03 0.  1.
         11    1    4    4    0    0 -0.48780067488E-03 -0.67708533970E-01 -0.73736347834E-01  0.10010990778E+00  0.51100000000E-03 0. -1.
</event>
<event>
 8    1  0.1086235E+005  0.1043930E+01  0.7957747E-01            NaN
         13   -1    0    0    0    0  0.00000000000E+00  0.00000000000E+00  0.74505805969E-08  0.10566000000E+00  0.10566000000E+00 0.  1.
     999900   -1    0    0    0    0 -0.00000000000E+00 -0.00000000000E+00 -0.74505805969E-08  0.93827000000E+00  0.93827000000E+00 0. -1.
     999902    2    1    2    0    0 -0.15392862032E-03  0.12984830329E-01 -0.20264945661E-01  0.10198613994E+01  0.10195773519E+01 0.  0.
     999903    2    3    3    0    0  0.11741332799E+00 -0.38893356995E-01 -0.36400890495E-01  0.13038190279E+00  0.19386411191E-01 0.  0.
         14    1    1    2    0    0  0.15392862032E-03 -0.12984830329E-01  0.20264945661E-01  0.24068600610E-01  0.00000000000E+00 0.  1.
     999901    1    3    3    0    0 -0.11756725661E+00  0.51878187324E-01  0.16135944834E-01  0.88947949660E+00  0.88000000000E+00 0.  1.
        -11    1    4    4    0    0  0.47656256889E-01 -0.15475686373E-01 -0.24725132931E-01  0.55876730477E-01  0.51100000000E-03 0. -1.
         11    1    4    4    0    0  0.69757071104E-01 -0.23417670622E-01 -0.11675757564E-01  0.74505172318E-01  0.51100000000E-03 0.  1.
</event>
<event>
 8    1  0.1086235E+005  0.1043930E+01  0.7957747E-01            NaN
         13   -1    0    0    0    0  0.00000000000E+00  0.00000000000E+00  0.74505805969E-08  0.10566000000E+00  0.10566000000E+00 0.  1.
     999900   -1    0    0    0    0 -0.00000000000E+00 -0.00000000000E+00 -0.74505805969E-08  0.93827000000E+00  0.93827000000E+00 0.  1.
     999902    2    1    2    0    0  0.57740144004E-02  0.17606581960E-01  0.14969393699E-01  0.10201095525E+01  0.10198314005E+01 0.  0.
     999903    2    3    3    0    0 -0.11892029855E+00  0.11128657402E-01 -0.45191921349E-01  0.12926163114E+00  0.20009375467E-01 0.  0.
         14    1    1    2    0    0 -0.57740144004E-02 -0.17606581960E-01 -0.14969393699E-01  0.23820447484E-01  0.00000000000E+00 0. -1.
     999901    1    3    3    0    0  0.12469431295E+00  0.64779245578E-02  0.60161315047E-01  0.89084792137E+00  0.88000000000E+00 0. -1.
        -11    1    4    4    0    0 -0.76722788797E-01  0.15046887882E-01 -0.35050263592E-01  0.85683004468E-01  0.51100000000E-03 0. -1.
         11    1    4    4    0    0 -0.42197509756E-01 -0.39182304798E-02 -0.10141657756E-01  0.43578626673E-01  0.51100000000E-03 0.  1.
</event>
<event>
 8    1  0.1086235E+005  0.1043930E+01  0.7957747E-01            NaN
         13   -1    0    0    0    0  0.00000000000E+00  0.00000000000E+00  0.74505805969E-08  0.10566000000E+00  0.10566000000E+00 0. -1.
     999900   -1    0    0    0    0 -0.00000000000E+00 -0.00000000000E+00 -0.74505805969E-08  0.93827000000E+00  0.93827000000E+00 0. -1.
     999902    2    1    2    0    0  0.44579961492E-02  0.12173081678E-01  0.20160519473E-01  0.10199611829E+01  0.10196795136E+01 0.  0.
     999903    2    3    3    0    0  0.12085344259E+00 -0.23567902201E-01 -0.35983171275E-01  0.12980533594E+00  0.19840262696E-01 0.  0.
         14    1    1    2    0    0 -0.44579961492E-02 -0.12173081678E-01 -0.20160519473E-01  0.23968817089E-01  0.00000000000E+00 0.  1.
     999901    1    3    3    0    0 -0.11639544644E+00  0.35740983879E-01  0.56143690749E-01  0.89015584697E+00  0.88000000000E+00 0.  1.
        -11    1    4    4    0    0  0.81485471869E-01 -0.10384810567E-01 -0.15848375127E-01  0.83660973765E-01  0.51100000000E-03 0.  1.
         11    1    4    4    0    0  0.39367970723E-01 -0.13183091634E-01 -0.20134796148E-01  0.46144362177E-01  0.51100000000E-03 0. -1.
</event>
<event>
 8    1  0.1086235E+005  0.1043930E+01  0.7957747E-01            NaN
         13   -1    0    0    0    0  0.00000000000E+00  0.00000000000E+00  0.74505805969E-08  0.10566000000E+00  0.10566000000E+00 0.  1.
     999900   -1    0    0    0    0 -0.00000000000E+00 -0.00000000000E+00 -0.74505805969E-08  0.93827000000E+00  0.93827000000E+00 0.  1.
     999902    2    1    2    0    0  0.12657778829E-01  0.16798736310E-01  0.10157405679E-01  0.10205721363E+01  0.10203048052E+01 0.  0.
     999903    2    3    3    0    0 -0.88039589863E-01  0.50318271826E-01 -0.78471427435E-01  0.12977553248E+00  0.20025634652E-01 0.  0.
         14    1    1    2    0    0 -0.12657778829E-01 -0.16798736310E-01 -0.10157405679E-01  0.23357863700E-01  0.00000000000E+00 0. -1.
     999901    1    3    3    0    0  0.10069736869E+00 -0.33519535516E-01  0.88628833114E-01  0.89079660382E+00  0.88000000000E+00 0. -1.
        -11    1    4    4    0    0 -0.59396547194E-01  0.28403316857E-01 -0.39992165313E-01  0.77034619715E-01  0.51100000000E-03 0.  1.
         11    1    4    4    0    0 -0.28643042669E-01  0.21914954969E-01 -0.38479262122E-01  0.52740912763E-01  0.51100000000E-03 0. -1.
</event>
<event>
 8    1  0.1086235E+005  0.1043930E+01  0.7957747E-01            NaN
         13   -1    0    0    0    0  0.00000000000E+00  0.00000000000E+00  0.74505805969E-08  0.10566000000E+00  0.10566000000E+00 0. -1.
     999900   -1    0    0    0    0 -0.00000000000E+00 -0.00000000000E+00 -0.74505805969E-08  0.93827000000E+00  0.93827000000E+00 0. -1.
     999902    2    1    2    0    0 -0.57961305113E-02  0.11894412542E-01 -0.20069711235E-01  0.10198911671E+01  0.10196078301E+01 0.  0.
     999903    2    3    3    0    0 -0.14944208111E-01  0.79751428079E-01  0.98719396108E-01  0.12927390142E+00  0.19560234771E-01 0.  0.
         14    1    1    2    0    0  0.57961305113E-02 -0.11894412542E-01  0.20069711235E-01  0.24038832910E-01  0.00000000000E+00 0. -1.
     999901    1    3    3    0    0  0.91480775999E-02 -0.67857015538E-01 -0.11878910734E+00  0.89061726567E+00  0.88000000000E+00 0. -1.
        -11    1    4    4    0    0 -0.54613843926E-02  0.22292452379E-01  0.42624863081E-01  0.48414049884E-01  0.51100000000E-03 0.  1.
         11    1    4    4    0    0 -0.94828237186E-02  0.57458975701E-01  0.56094533027E-01  0.80859851539E-01  0.51100000000E-03 0. -1.
</event>
<event>
 8    1  0.1086235E+005  0.1043930E+01  0.7957747E-01            NaN
         13   -1    0    0    0    0  0.00000000000E+00  0.00000000000E+00  0.74505805969E-08  0.10566000000E+00  0.10566000000E+00 0. -1.
     999900   -1    0    0    0    0 -0.00000000000E+00 -0.00000000000E+00 -0.74505805969E-08  0.93827000000E+00  0.93827000000E+00 0. -1.
     999902    2    1    2    0    0 -0.10465216947E-01  0.49976282929E-02  0.20710373573E-01  0.10201936012E+01  0.10199174316E+01 0.  0.
     999903    2    3    3    0    0  0.10052379677E+00 -0.49105494022E-01  0.64015150487E-01  0.13051893442E+00  0.20515103981E-01 0.  0.
         14    1    1    2    0    0  0.10465216947E-01 -0.49976282929E-02 -0.20710373573E-01  0.23736398797E-01  0.00000000000E+00 0.  1.
     999901    1    3    3    0    0 -0.11098901371E+00  0.54103122315E-01 -0.43304776914E-01  0.88967466678E+00  0.88000000000E+00 0.  1.
        -11    1    4    4    0    0  0.79749992185E-01 -0.36079528423E-01  0.40162269272E-01  0.96307126521E-01  0.51100000000E-03 0. -1.
         11    1    4    4    0    0  0.20773804581E-01 -0.13025965598E-01  0.23852881215E-01  0.34211807901E-01  0.51100000000E-03 0.  1.
</event>
<event>
 8    1  0.1086235E+005  0.1043930E+01  0.7957747E-01            NaN
         13   -1    0    0    0    0  0.00000000000E+00  0.00000000000E+00  0.74505805969E-08  0.10566000000E+00  0.10566000000E+00 0.  1.
     999900   -1    0    0    0    0 -0.00000000000E+00 -0.00000000000E+00 -0.74505805969E-08  0.93827000000E+00  0.93827000000E+00 0.  1.
     999902    2    1    2    0    0  0.13202323628E-01  0.15439430123E-01  0.99137447499E-02  0.10213255826E+01  0.10210754066E+01 0.  0.
     999903    2    3    3    0    0 -0.73005153750E-01 -0.65508617254E-01 -0.81051782685E-01  0.12876799749E+00  0.19765482345E-01 0.  0.
         14    1    1    2    0    0 -0.13202323628E-01 -0.15439430123E-01 -0.99137447499E-02  0.22604417415E-01  0.00000000000E+00 0. -1.
     999901    1    3    3    0    0  0.86207477378E-01  0.80948047377E-01  0.90965527435E-01  0.89255758510E+00  0.88000000000E+00 0. -1.
        -11    1    4    4    0    0 -0.35650774809E-01 -0.42161127229E-01 -0.53032928772E-01  0.76559069018E-01  0.51100000000E-03 0.  1.
         11    1    4    4    0    0 -0.37354378941E-01 -0.23347490025E-01 -0.28018853913E-01  0.52208928472E-01  0.51100000000E-03 0. -1.
</event>
<event>
 8    1  0.1086235E+005  0.1043930E+01  0.7957747E-01            NaN
         13   -1    0    0    0    0  0.00000000000E+00  0.00000000000E+00  0.74505805969E-08  0.10566000000E+00  0.10566000000E+00 0. -1.
     999900   -1    0    0    0    0 -0.00000000000E+00 -0.00000000000E+00 -0.74505805969E-08  0.93827000000E+00  0.93827000000E+00 0. -1.
     999902    2    1    2    0    0  0.18759517461E-01 -0.18743610661E-01  0.26319510036E-02  0.10172809925E+01  0.10169318797E+01 0.  0.
     999903    2    3    3    0    0 -0.86939868067E-01  0.23186182967E-01 -0.85042631786E-01  0.12564356607E+00  0.21398989090E-01 0.  0.
         14    1    1    2    0    0 -0.18759517461E-01  0.18743610661E-01 -0.26319510036E-02  0.26649007525E-01  0.00000000000E+00 0. -1.
     999901    1    3    3    0    0  0.10569938553E+00 -0.41929793629E-01  0.87674582790E-01  0.89163742640E+00  0.88000000000E+00 0.  1.
        -11    1    4    4    0    0 -0.62950387653E-01  0.24430384690E-01 -0.70178330657E-01  0.97390216226E-01  0.51100000000E-03 0.  1.
         11    1    4    4    0    0 -0.23989480414E-01 -0.12442017225E-02 -0.14864301130E-01  0.28253349846E-01  0.51100000000E-03 0. -1.
</event>
<event>
 8    1  0.1086235E+005  0.1043930E+01  0.7957747E-01            NaN
         13   -1    0    0    0    0  0.00000000000E+00  0.00000000000E+00  0.74505805969E-08  0.10566000000E+00  0.10566000000E+00 0. -1.
     999900   -1    0    0    0    0 -0.00000000000E+00 -0.00000000000E+00 -0.74505805969E-08  0.93827000000E+00  0.93827000000E+00 0. -1.
     999902    2    1    2    0    0 -0.12538074708E-02 -0.13890653491E-01 -0.18990190892E-01  0.10203683864E+01  0.10200963162E+01 0.  0.
     999903    2    3    3    0    0 -0.14822188327E-01 -0.12481016736E+00 -0.38564889375E-01  0.13308578856E+00  0.20671267049E-01 0.  0.
         14    1    1    2    0    0  0.12538074708E-02  0.13890653491E-01  0.18990190892E-01  0.23561613648E-01  0.00000000000E+00 0. -1.
     999901    1    3    3    0    0  0.13568380856E-01  0.11091951387E+00  0.19574698483E-01  0.88728259779E+00  0.88000000000E+00 0.  1.
        -11    1    4    4    0    0 -0.92815360541E-02 -0.91625788249E-01 -0.18583132454E-01  0.93952253388E-01  0.51100000000E-03 0.  1.
         11    1    4    4    0    0 -0.55406522725E-02 -0.33184379113E-01 -0.19981756922E-01  0.39133535176E-01  0.51100000000E-03 0. -1.
</event>
<event>
 8    1  0.1086235E+005  0.1043930E+01  0.7957747E-01            NaN
         13   -1    0    0    0    0  0.00000000000E+00  0.00000000000E+00  0.74505805969E-08  0.10566000000E+00  0.10566000000E+00 0. -1.
     999900   -1    0    0    0    0 -0.00000000000E+00 -0.00000000000E+00 -0.74505805969E-08  0.93827000000E+00  0.93827000000E+00 0.  1.
     999902    2    1    2    0    0 -0.22269670962E-01  0.44363568767E-02  0.43107218425E-02  0.10208171934E+01  0.10205555058E+01 0.  0.
     999903    2    3    3    0    0 -0.78430189530E-02 -0.12458468496E+00  0.33994773705E-01  0.13079713717E+00  0.19219515584E-01 0.  0.
         14    1    1    2    0    0  0.22269670962E-01 -0.44363568767E-02 -0.43107218425E-02  0.23112806621E-01  0.00000000000E+00 0. -1.
     999901    1    3    3    0    0 -0.14426652009E-01  0.12902104184E+00 -0.29684051862E-01  0.89002005621E+00  0.88000000000E+00 0. -1.
        -11    1    4    4    0    0 -0.10096493376E-01 -0.11487089575E+00  0.26521916426E-01  0.11832554686E+00  0.51100000000E-03 0.  1.
         11    1    4    4    0    0  0.22534744230E-02 -0.97137892094E-02  0.74728572786E-02  0.12471590303E-01  0.51100000000E-03 0. -1.
</event>
<event>
 8    1  0.1086235E+005  0.1043930E+01  0.7957747E-01            NaN
         13   -1    0    0    0    0  0.00000000000E+00  0.00000000000E+00  0.74505805969E-08  0.10566000000E+00  0.10566000000E+00 0.  1.
     999900   -1    0    0    0    0 -0.00000000000E+00 -0.00000000000E+00 -0.74505805969E-08  0.93827000000E+00  0.93827000000E+00 0. -1.
     999902    2    1    2    0    0 -0.20402556921E-01 -0.62367095733E-02 -0.96811694330E-02  0.10205016856E+01  0.10202327207E+01 0.  0.
     999903    2    3    3    0    0  0.39083466034E-01 -0.75179808144E-01 -0.98488317022E-01  0.13135690140E+00  0.19369204549E-01 0.  0.
         14    1    1    2    0    0  0.20402556921E-01  0.62367095733E-02  0.96811694330E-02  0.23428314425E-01  0.00000000000E+00 0.  1.
     999901    1    3    3    0    0 -0.59486022955E-01  0.68943098571E-01  0.88807147589E-01  0.88914478418E+00  0.88000000000E+00 0.  1.
        -11    1    4    4    0    0 -0.43681358471E-03 -0.12475327898E-01 -0.10586179390E-01  0.16375375640E-01  0.51100000000E-03 0.  1.
         11    1    4    4    0    0  0.39520279619E-01 -0.62704480246E-01 -0.87902137632E-01  0.11498152576E+00  0.51100000000E-03 0. -1.
</event>
<event>
 8    1  0.1086235E+005  0.1043930E+01  0.7957747E-01            NaN
         13   -1    0    0    0    0  0.00000000000E+00  0.00000000000E+00  0.74505805969E-08  0.10566000000E+00  0.10566000000E+00 0.  1.
     999900   -1    0    0    0    0 -0.00000000000E+00 -0.00000000000E+00 -0.74505805969E-08  0.93827000000E+00  0.93827000000E+00 0. -1.
     999902    2    1    2    0    0  0.21155998360E-01  0.12647951752E-01 -0.86162523790E-02  0.10178189534E+01  0.10174839729E+01 0.  0.
     999903    2    3    3    0    0 -0.79471831346E-01 -0.44227521088E-01  0.84122912457E-01  0.12542815771E+00  0.19588587145E-01 0.  0.
         14    1    1    2    0    0 -0.21155998360E-01 -0.12647951752E-01  0.86162523790E-02  0.26111046612E-01  0.00000000000E+00 0.  1.
     999901    1    3    3    0    0  0.10062782971E+00  0.56875472840E-01 -0.92739164836E-01  0.89239079568E+00  0.88000000000E+00 0. -1.
        -11    1    4    4    0    0 -0.32412465647E-01 -0.21377188140E-01  0.23649245691E-01  0.45465371931E-01  0.51100000000E-03 0.  1.
         11    1    4    4    0    0 -0.47059365699E-01 -0.22850332948E-01  0.60473666766E-01  0.79962785775E-01  0.51100000000E-03 0. -1.
</event>
<event>
 8    1  0.1086235E+005  0.1043930E+01  0.7957747E-01            NaN
         13   -1    0    0    0    0  0.00000000000E+00  0.00000000000E+00  0.74505805969E-08  0.10566000000E+00  0.10566000000E+00 0.  1.
     999900   -1    0    0    0    0 -0.00000000000E+00 -0.00000000000E+00 -0.74505805969E-08  0.93827000000E+00  0.93827000000E+00 0.  1.
     999902    2    1    2    0    0 -0.15907574124E-01  0.13132403458E-01  0.77953471936E-02  0.10218782796E+01  0.10216403183E+01 0.  0.
     999903    2    3    3    0    0 -0.10019431040E+00 -0.71125259807E-01  0.46366693636E-01  0.13300744730E+00  0.21057263372E-01 0.  0.
         14    1    1    2    0    0  0.15907574124E-01 -0.13132403458E-01 -0.77953471936E-02  0.22051720408E-01  0.00000000000E+00 0.  1.
     999901    1    3    3    0    0  0.84286736271E-01  0.84257663265E-01 -0.38571346442E-01  0.88887083229E+00  0.88000000000E+00 0.  1.
        -11    1    4    4    0    0 -0.76690363940E-01 -0.63151344104E-01  0.32253786261E-01  0.10445129024E+00  0.51100000000E-03 0. -1.
         11    1    4    4    0    0 -0.23503946455E-01 -0.79739157031E-02  0.14112907375E-01  0.28556157063E-01  0.51100000000E-03 0.  1.
</event>
<event>
 8    1  0.1086235E+005  0.1043930E+01  0.7957747E-01            NaN
         13   -1    0    0    0    0  0.00000000000E+00  0.00000000000E+00  0.74505805969E-08  0.10566000000E+00  0.10566000000E+00 0. -1.
     999900   -1    0    0    0    0 -0.00000000000E+00 -0.00000000000E+00 -0.74505805969E-08  0.93827000000E+00  0.93827000000E+00 0. -1.
     999902    2    1    2    0    0 -0.14710604061E-01  0.43449493984E-02 -0.13899808816E-01  0.10232301173E+01  0.10230207172E+01 0.  0.
     999903    2    3    3    0    0 -0.81865750978E-01  0.27072368515E-01  0.99624196172E-01  0.13310987319E+00  0.18929964524E-01 0.  0.
         14    1    1    2    0    0  0.14710604061E-01 -0.43449493984E-02  0.13899808816E-01  0.20699882662E-01  0.00000000000E+00 0. -1.
     999901    1    3    3    0    0  0.67155146917E-01 -0.22727419116E-01 -0.11352400499E+00  0.89012024415E+00  0.88000000000E+00 0. -1.
        -11    1    4    4    0    0 -0.14098687606E-01  0.30950719299E-02  0.28680568897E-01  0.32112125680E-01  0.51100000000E-03 0. -1.
         11    1    4    4    0    0 -0.67767063372E-01  0.23977296585E-01  0.70943627276E-01  0.10099774751E+00  0.51100000000E-03 0.  1.
</event>
<event>
 8    1  0.1086235E+005  0.1043930E+01  0.7957747E-01            NaN
         13   -1    0    0    0    0  0.00000000000E+00  0.00000000000E+00  0.74505805969E-08  0.10566000000E+00  0.10566000000E+00 0.  1.
     999900   -1    0    0    0    0 -0.00000000000E+00 -0.00000000000E+00 -0.74505805969E-08  0.93827000000E+00  0.93827000000E+00 0.  1.
     999902    2    1    2    0    0 -0.13666324754E-01  0.83281362314E-02  0.17122461129E-01  0.10204927442E+01  0.10202235716E+01 0.  0.
     999903    2    3    3    0    0 -0.53492959947E-01 -0.70866990418E-01 -0.91901959486E-01  0.12934497122E+00  0.20013103903E-01 0.  0.
         14    1    1    2    0    0  0.13666324754E-01 -0.83281362314E-02 -0.17122461129E-01  0.23437255822E-01  0.00000000000E+00 0. -1.
     999901    1    3    3    0    0  0.39826635192E-01  0.79195126649E-01  0.10902442062E+00  0.89114777296E+00  0.88000000000E+00 0. -1.
        -11    1    4    4    0    0 -0.20622896256E-01 -0.31542128585E-01 -0.52826860356E-01  0.64893358842E-01  0.51100000000E-03 0.  1.
         11    1    4    4    0    0 -0.32870063690E-01 -0.39324861833E-01 -0.39075099130E-01  0.64451612378E-01  0.51100000000E-03 0. -1.
</event>
<event>
 8    1  0.1086235E+005  0.1043930E+01  0.7957747E-01            NaN
         13   -1    0    0    0    0  0.00000000000E+00  0.00000000000E+00  0.74505805969E-08  0.10566000000E+00  0.10566000000E+00 0.  1.
     999900   -1    0    0    0    0 -0.00000000000E+00 -0.00000000000E+00 -0.74505805969E-08  0.93827000000E+00  0.93827000000E+00 0.  1.
     999902    2    1    2    0    0  0.17188694415E-01  0.25730251786E-01  0.18512890791E-01  0.10078713783E+01  0.10072261370E+01 0.  0.
     999903    2    3    3    0    0 -0.10293231730E+00  0.26670628426E-01 -0.45408405027E-01  0.11741314020E+00  0.20433743616E-01 0.  0.
         14    1    1    2    0    0 -0.17188694415E-01 -0.25730251786E-01 -0.18512890791E-01  0.36058621689E-01  0.00000000000E+00 0.  1.
     999901    1    3    3    0    0  0.12012101172E+00 -0.94037664028E-03  0.63921295818E-01  0.89045823811E+00  0.88000000000E+00 0.  1.
        -11    1    4    4    0    0 -0.61844181794E-01  0.14298174028E-01 -0.16230329959E-01  0.65519656088E-01  0.51100000000E-03 0. -1.
         11    1    4    4    0    0 -0.41088135509E-01  0.12372454398E-01 -0.29178075068E-01  0.51893484110E-01  0.51100000000E-03 0.  1.
</event>
<event>
 8    1  0.1086235E+005  0.1043930E+01  0.7957747E-01            NaN
         13   -1    0    0    0    0  0.00000000000E+00  0.00000000000E+00  0.74505805969E-08  0.10566000000E+00  0.10566000000E+00 0.  1.
     999900   -1    0    0    0    0 -0.00000000000E+00 -0.00000000000E+00 -0.74505805969E-08  0.93827000000E+00  0.93827000000E+00 0. -1.
     999902    2    1    2    0    0  0.17985459180E-01  0.15252524401E-01 -0.54560084293E-02  0.10197249536E+01  0.10194376375E+01 0.  0.
     999903    2    3    3    0    0  0.12061705159E+00 -0.42323422334E-01  0.23135048202E-01  0.13143126236E+00  0.19980016485E-01 0.  0.
         14    1    1    2    0    0 -0.17985459180E-01 -0.15252524401E-01  0.54560084293E-02  0.24205046385E-01  0.00000000000E+00 0. -1.
     999901    1    3    3    0    0 -0.10263159241E+00  0.57575946734E-01 -0.28591056631E-01  0.88829369125E+00  0.88000000000E+00 0. -1.
        -11    1    4    4    0    0  0.76290737795E-01 -0.21301797146E-01  0.22583809832E-01  0.82367061514E-01  0.51100000000E-03 0. -1.
         11    1    4    4    0    0  0.44326313793E-01 -0.21021625188E-01  0.55123837008E-03  0.49064200847E-01  0.51100000000E-03 0.  1.
</event>
<event>
 8    1  0.1086235E+005  0.1043930E+01  0.7957747E-01            NaN
         13   -1    0    0    0    0  0.00000000000E+00  0.00000000000E+00  0.74505805969E-08  0.10566000000E+00  0.10566000000E+00 0.  1.
     999900   -1    0    0    0    0 -0.00000000000E+00 -0.00000000000E+00 -0.74505805969E-08  0.93827000000E+00  0.93827000000E+00 0. -1.
     999902    2    1    2    0    0 -0.14696164448E-01 -0.97662732200E-02 -0.17964965018E-01  0.10187487111E+01  0.10184374498E+01 0.  0.
     999903    2    3    3    0    0 -0.11709633652E+00  0.48735910410E-01 -0.25302042561E-01  0.13085111936E+00  0.19876646869E-01 0.  0.
         14    1    1    2    0    0  0.14696164448E-01  0.97662732200E-02  0.17964965018E-01  0.25181288891E-01  0.00000000000E+00 0.  1.
     999901    1    3    3    0    0  0.10240017207E+00 -0.58502183630E-01  0.73370775427E-02  0.88789759175E+00  0.88000000000E+00 0.  1.
        -11    1    4    4    0    0 -0.66290670067E-01  0.17793251361E-01 -0.94505020111E-02  0.69286548775E-01  0.51100000000E-03 0. -1.
         11    1    4    4    0    0 -0.50805666450E-01  0.30942659049E-01 -0.15851540549E-01  0.61564570584E-01  0.51100000000E-03 0.  1.
</event>
<event>
 8    1  0.1086235E+005  0.1043930E+01  0.7957747E-01            NaN
         13   -1    0    0    0    0  0.00000000000E+00  0.00000000000E+00  0.74505805969E-08  0.10566000000E+00  0.10566000000E+00 0. -1.
     999900   -1    0    0    0    0 -0.00000000000E+00 -0.00000000000E+00 -0.74505805969E-08  0.93827000000E+00  0.93827000000E+00 0. -1.
     999902    2    1    2    0    0  0.77169048294E-02  0.13115786439E-01  0.11028488289E-01  0.10251363301E+01  0.10249640449E+01 0.  0.
     999903    2    3    3    0    0 -0.11476126430E-01 -0.90520409984E-01 -0.94116537013E-01  0.13263181471E+00  0.20189839843E-01 0.  0.
         14    1    1    2    0    0 -0.77169048294E-02 -0.13115786439E-01 -0.11028488289E-01  0.18793669892E-01  0.00000000000E+00 0.  1.
     999901    1    3    3    0    0  0.19193031259E-01  0.10363619642E+00  0.10514502530E+00  0.89250451540E+00  0.88000000000E+00 0.  1.
        -11    1    4    4    0    0  0.35705669713E-02 -0.38438088629E-01 -0.31670416221E-01  0.49935077756E-01  0.51100000000E-03 0.  1.
         11    1    4    4    0    0 -0.15046693401E-01 -0.52082321355E-01 -0.62446120792E-01  0.82696736955E-01  0.51100000000E-03 0. -1.
</event>
<event>
 8    1  0.1086235E+005  0.1043930E+01  0.7957747E-01            NaN
         13   -1    0    0    0    0  0.00000000000E+00  0.00000000000E+00  0.74505805969E-08  0.10566000000E+00  0.10566000000E+00 0. -1.
     999900   -1    0    0    0    0 -0.00000000000E+00 -0.00000000000E+00 -0.74505805969E-08  0.93827000000E+00  0.93827000000E+00 0.  1.
     999902    2    1    2    0    0 -0.22296563534E-01  0.18490206682E-02  0.76961438228E-02  0.10202701975E+01  0.10199958283E+01 0.  0.
     999903    2    3    3    0    0  0.26278607313E-01 -0.10929618962E+00  0.62303863419E-01  0.13027311438E+00  0.21285926475E-01 0.  0.
         14    1    1    2    0    0  0.22296563534E-01 -0.18490206682E-02 -0.76961438228E-02  0.23659802464E-01  0.00000000000E+00 0.  1.
     999901    1    3    3    0    0 -0.48575170847E-01  0.11114521028E+00 -0.54607719596E-01  0.88999708316E+00  0.88000000000E+00 0. -1.
        -11    1    4    4    0    0  0.70561048398E-02 -0.18786231294E-01  0.28171011227E-02  0.20270872736E-01  0.51100000000E-03 0.  1.
         11    1    4    4    0    0  0.19222502473E-01 -0.90509958322E-01  0.59486762296E-01  0.11000224164E+00  0.51100000000E-03 0. -1.
</event>
<event>
 8    1  0.1086235E+005  0.1043930E+01  0.7957747E-01            NaN
         13   -1    0    0    0    0  0.00000000000E+00  0.00000000000E+00  0.74505805969E-08  0.10566000000E+00  0.10566000000E+00 0.  1.
     999900   -1    0    0    0    0 -0.00000000000E+00 -0.00000000000E+00 -0.74505805969E-08  0.93827000000E+00  0.93827000000E+00 0. -1.
     999902    2    1    2    0    0 -0.77343183194E-02 -0.23486909508E-01  0.46531566695E-02  0.10187683930E+01  0.10184576241E+01 0.  0.
     999903    2    3    3    0    0 -0.10473682908E+00 -0.71233287101E-01  0.29915302984E-01  0.13179185462E+00  0.20740854243E-01 0.  0.
         14    1    1    2    0    0  0.77343183194E-02  0.23486909508E-01 -0.46531566695E-02  0.25161606965E-01  0.00000000000E+00 0. -1.
     999901    1    3    3    0    0  0.97002510757E-01  0.47746377593E-01 -0.25262146315E-01  0.88697653842E+00  0.88000000000E+00 0.  1.
        -11    1    4    4    0    0 -0.50397474977E-01 -0.37874163824E-01  0.25061909856E-01  0.67843335826E-01  0.51100000000E-03 0.  1.
         11    1    4    4    0    0 -0.54339354099E-01 -0.33359123277E-01  0.48533931285E-02  0.63948518791E-01  0.51100000000E-03 0. -1.
</event>
<event>
 8    1  0.1086235E+005  0.1043930E+01  0.7957747E-01            NaN
         13   -1    0    0    0    0  0.00000000000E+00  0.00000000000E+00  0.74505805969E-08  0.10566000000E+00  0.10566000000E+00 0.  1.
     999900   -1    0    0    0    0 -0.00000000000E+00 -0.00000000000E+00 -0.74505805969E-08  0.93827000000E+00  0.93827000000E+00 0.  1.
     999902    2    1    2    0    0 -0.77289213217E-02 -0.36661473851E-02  0.22403571780E-01  0.10199488222E+01  0.10196668588E+01 0.  0.
     999903    2    3    3    0    0  0.49972848343E-01 -0.11539313725E+00 -0.24852822709E-01  0.12975469654E+00  0.20143405410E-01 0.  0.
         14    1    1    2    0    0  0.77289213217E-02  0.36661473851E-02 -0.22403571780E-01  0.23981177826E-01  0.00000000000E+00 0. -1.
     999901    1    3    3    0    0 -0.57701769664E-01  0.11172698987E+00  0.47256394489E-01  0.89019412563E+00  0.88000000000E+00 0. -1.
        -11    1    4    4    0    0  0.32668567021E-01 -0.78980799788E-01 -0.73059565775E-02  0.85783682183E-01  0.51100000000E-03 0.  1.
         11    1    4    4    0    0  0.17304281321E-01 -0.36412337466E-01 -0.17546866131E-01  0.43971014360E-01  0.51100000000E-03 0. -1.
</event>
<event>
 8    1  0.1086235E+005  0.1043930E+01  0.7957747E-01            NaN
         13   -1    0    0    0    0  0.00000000000E+00  0.00000000000E+00  0.74505805969E-08  0.10566000000E+00  0.10566000000E+00 0. -1.
     999900   -1    0    0    0    0 -0.00000000000E+00 -0.00000000000E+00 -0.74505805969E-08  0.93827000000E+00  0.93827000000E+00 0. -1.
     999902    2    1    2    0    0 -0.17844114381E-02  0.71247265866E-02  0.22384361478E-01  0.10203714455E+01  0.10200994467E+01 0.  0.
     999903    2    3    3    0    0  0.42992383523E-01 -0.96782898420E-01 -0.69637007274E-01  0.12836825701E+00  0.20342619259E-01 0.  0.
         14    1    1    2    0    0  0.17844114381E-02 -0.71247265866E-02 -0.22384361478E-01  0.23558554537E-01  0.00000000000E+00 0.  1.
     999901    1    3    3    0    0 -0.44776794961E-01  0.10390762501E+00  0.92021368752E-01  0.89200318845E+00  0.88000000000E+00 0.  1.
        -11    1    4    4    0    0  0.13685662674E-01 -0.15556645486E-01 -0.19811082169E-01  0.28671356426E-01  0.51100000000E-03 0.  1.
         11    1    4    4    0    0  0.29306720849E-01 -0.81226252934E-01 -0.49825925105E-01  0.99696900585E-01  0.51100000000E-03 0. -1.
</event>
<event>
 8    1  0.1086235E+005  0.1043930E+01  0.7957747E-01            NaN
         13   -1    0    0    0    0  0.00000000000E+00  0.00000000000E+00  0.74505805969E-08  0.10566000000E+00  0.10566000000E+00 0. -1.
     999900   -1    0    0    0    0 -0.00000000000E+00 -0.00000000000E+00 -0.74505805969E-08  0.93827000000E+00  0.93827000000E+00 0. -1.
     999902    2    1    2    0    0  0.46755721125E-02 -0.36759396285E-02 -0.25425010076E-01  0.10178186108E+01  0.10174836215E+01 0.  0.
     999903    2    3    3    0    0  0.25868693549E-01  0.12230917180E+00  0.11194582816E-01  0.12783973958E+00  0.24268447006E-01 0.  0.
         14    1    1    2    0    0 -0.46755721125E-02  0.36759396285E-02  0.25425010076E-01  0.26111389164E-01  0.00000000000E+00 0. -1.
     999901    1    3    3    0    0 -0.21193121437E-01 -0.12598511142E+00 -0.36619592892E-01  0.88997887126E+00  0.88000000000E+00 0.  1.
        -11    1    4    4    0    0  0.76037966950E-02  0.44522138588E-01  0.15669216982E-01  0.47810292098E-01  0.51100000000E-03 0.  1.
         11    1    4    4    0    0  0.18264896854E-01  0.77787033208E-01 -0.44746341667E-02  0.80029447482E-01  0.51100000000E-03 0. -1.
</event>
<event>
 8    1  0.1086235E+005  0.1043930E+01  0.7957747E-01            NaN
         13   -1    0    0    0    0  0.00000000000E+00  0.00000000000E+00  0.74505805969E-08  0.10566000000E+00  0.10566000000E+00 0. -1.
     999900   -1    0    0    0    0 -0.00000000000E+00 -0.00000000000E+00 -0.74505805969E-08  0.93827000000E+00  0.93827000000E+00 0. -1.
     999902    2    1    2    0    0 -0.86916676724E-02  0.90596565888E-03 -0.21396083752E-01  0.10208181359E+01  0.10205564700E+01 0.  0.
     999903    2    3    3    0    0  0.97758002208E-01  0.71297257159E-01 -0.46834306849E-01  0.13124881917E+00  0.19821058521E-01 0.  0.
         14    1    1    2    0    0  0.86916676724E-02 -0.90596565888E-03  0.21396083752E-01  0.23111864067E-01  0.00000000000E+00 0. -1.
     999901    1    3    3    0    0 -0.10644966988E+00 -0.70391291500E-01  0.25438223097E-01  0.88956931677E+00  0.88000000000E+00 0. -1.
        -11    1    4    4    0    0  0.55554497029E-01  0.43307528831E-01 -0.37324374387E-01  0.79719597578E-01  0.51100000000E-03 0.  1.
         11    1    4    4    0    0  0.42203505179E-01  0.27989728328E-01 -0.95099324622E-02  0.51529221590E-01  0.51100000000E-03 0. -1.
</event>
<event>
 8    1  0.1086235E+005  0.1043930E+01  0.7957747E-01            NaN
         13   -1    0    0    0    0  0.00000000000E+00  0.00000000000E+00  0.74505805969E-08  0.10566000000E+00  0.10566000000E+00 0.  1.
     999900   -1    0    0    0    0 -0.00000000000E+00 -0.00000000000E+00 -0.74505805969E-08  0.93827000000E+00  0.93827000000E+00 0.  1.
     999902    2    1    2    0    0  0.66770719375E-02 -0.36632094626E-02 -0.22230911491E-01  0.10204307273E+01  0.10201601116E+01 0.  0.
     999903    2    3    3    0    0  0.27220154768E-01  0.81428277774E-01 -0.99114561102E-01  0.13275191428E+00  0.20685097903E-01 0.  0.
         14    1    1    2    0    0 -0.66770719375E-02  0.36632094626E-02  0.22230911491E-01  0.23499272732E-01  0.00000000000E+00 0.  1.
     999901    1    3    3    0    0 -0.20543082830E-01 -0.85091487237E-01  0.76883649611E-01  0.88767881299E+00  0.88000000000E+00 0.  1.
        -11    1    4    4    0    0  0.50976189200E-02  0.43525307347E-01 -0.57236895660E-01  0.72088566667E-01  0.51100000000E-03 0.  1.
         11    1    4    4    0    0  0.22122535848E-01  0.37902970427E-01 -0.41877665442E-01  0.60663347611E-01  0.51100000000E-03 0. -1.
</event>
<event>
 8    1  0.1086235E+005  0.1043930E+01  0.7957747E-01            NaN
         13   -1    0    0    0    0  0.00000000000E+00  0.00000000000E+00  0.74505805969E-08  0.10566000000E+00  0.10566000000E+00 0. -1.
     999900   -1    0    0    0    0 -0.00000000000E+00 -0.00000000000E+00 -0.74505805969E-08  0.93827000000E+00  0.93827000000E+00 0.  1.
     999902    2    1    2    0    0 -0.11265023531E-01 -0.86417861260E-02  0.19170760054E-01  0.10200741985E+01  0.10197952104E+01 0.  0.
     999903    2    3    3    0    0  0.14608869862E-01 -0.12766332444E+00  0.20818075791E-01  0.13168335066E+00  0.19893945677E-01 0.  0.
         14    1    1    2    0    0  0.11265023531E-01  0.86417861260E-02 -0.19170760054E-01  0.23855801467E-01  0.00000000000E+00 0.  1.
     999901    1    3    3    0    0 -0.25873893394E-01  0.11902153831E+00 -0.16473157376E-02  0.88839084788E+00  0.88000000000E+00 0. -1.
        -11    1    4    4    0    0 -0.66476706283E-03 -0.36877321878E-01  0.13687096580E-01  0.39344332729E-01  0.51100000000E-03 0. -1.
         11    1    4    4    0    0  0.15273636925E-01 -0.90786002562E-01  0.71309792115E-02  0.92339017927E-01  0.51100000000E-03 0.  1.
</event>
<event>
 8    1  0.1086235E+005  0.1043930E+01  0.7957747E-01            NaN
         13   -1    0    0    0    0  0.00000000000E+00  0.00000000000E+00  0.74505805969E-08  0.10566000000E+00  0.10566000000E+00 0.  1.
     999900   -1    0    0    0    0 -0.00000000000E+00 -0.00000000000E+00 -0.74505805969E-08  0.93827000000E+00  0.93827000000E+00 0. -1.
     999902    2    1    2    0    0 -0.23978560382E-01 -0.91447639174E-03  0.97007168685E-02  0.10180473507E+01  0.10177182797E+01 0.  0.
     999903    2    3    3    0    0  0.62684092697E-01  0.24061226086E-01 -0.10475838499E+00  0.12606355764E+00  0.20235198593E-01 0.  0.
         14    1    1    2    0    0  0.23978560382E-01  0.91447639174E-03 -0.97007168685E-02  0.25882649262E-01  0.00000000000E+00 0. -1.
     999901    1    3    3    0    0 -0.86662653078E-01 -0.24975702478E-01  0.11445910185E+00  0.89198379310E+00  0.88000000000E+00 0.  1.
        -11    1    4    4    0    0  0.47979684383E-01  0.26043623787E-01 -0.74535755250E-01  0.92391343670E-01  0.51100000000E-03 0. -1.
         11    1    4    4    0    0  0.14704408313E-01 -0.19823977010E-02 -0.30222629736E-01  0.33672213970E-01  0.51100000000E-03 0.  1.
</event>
<event>
 8    1  0.1086235E+005  0.1043930E+01  0.7957747E-01            NaN
         13   -1    0    0    0    0  0.00000000000E+00  0.00000000000E+00  0.74505805969E-08  0.10566000000E+00  0.10566000000E+00 0. -1.
     999900   -1    0    0    0    0 -0.00000000000E+00 -0.00000000000E+00 -0.74505805969E-08  0.93827000000E+00  0.93827000000E+00 0.  1.
     999902    2    1    2    0    0 -0.22815698643E-01  0.82942276290E-03  0.68128273913E-02  0.10201044116E+01  0.10198261381E+01 0.  0.
     999903    2    3    3    0    0  0.10498064752E+00 -0.70337490182E-01 -0.11193267281E-01  0.12784836366E+00  0.15862407781E-01 0.  0.
         14    1    1    2    0    0  0.22815698643E-01 -0.82942276290E-03 -0.68128273913E-02  0.23825588424E-01  0.00000000000E+00 0.  1.
     999901    1    3    3    0    0 -0.12779634616E+00  0.71166912945E-01  0.18006094672E-01  0.89225604791E+00  0.88000000000E+00 0.  1.
        -11    1    4    4    0    0  0.54602185558E-01 -0.30909070128E-01 -0.11924441400E-01  0.63868792909E-01  0.51100000000E-03 0. -1.
         11    1    4    4    0    0  0.50378461961E-01 -0.39428420054E-01  0.73117411901E-03  0.63979570756E-01  0.51100000000E-03 0.  1.
</event>
<event>
 8    1  0.1086235E+005  0.1043930E+01  0.7957747E-01            NaN
         13   -1    0    0    0    0  0.00000000000E+00  0.00000000000E+00  0.74505805969E-08  0.10566000000E+00  0.10566000000E+00 0.  1.
     999900   -1    0    0    0    0 -0.00000000000E+00 -0.00000000000E+00 -0.74505805969E-08  0.93827000000E+00  0.93827000000E+00 0.  1.
     999902    2    1    2    0    0  0.98655994430E-03  0.22038518796E-01 -0.10187827871E-01  0.10196305875E+01  0.10193409996E+01 0.  0.
     999903    2    3    3    0    0 -0.64725786028E-02 -0.10619340395E+00 -0.69003422788E-01  0.12836276077E+00  0.19914634809E-01 0.  0.
         14    1    1    2    0    0 -0.98655994430E-03 -0.22038518796E-01  0.10187827871E-01  0.24299412502E-01  0.00000000000E+00 0.  1.
     999901    1    3    3    0    0  0.74591385471E-02  0.12823192274E+00  0.58815594917E-01  0.89126782673E+00  0.88000000000E+00 0.  1.
        -11    1    4    4    0    0 -0.46468778532E-02 -0.43255265310E-01 -0.17046578262E-01  0.46727490862E-01  0.51100000000E-03 0.  1.
         11    1    4    4    0    0 -0.18257007496E-02 -0.62938138638E-01 -0.51956844526E-01  0.81635269906E-01  0.51100000000E-03 0. -1.
</event>
<event>
 8    1  0.1086235E+005  0.1043930E+01  0.7957747E-01            NaN
         13   -1    0    0    0    0  0.00000000000E+00  0.00000000000E+00  0.74505805969E-08  0.10566000000E+00  0.10566000000E+00 0. -1.
     999900   -1    0    0    0    0 -0.00000000000E+00 -0.00000000000E+00 -0.74505805969E-08  0.93827000000E+00  0.93827000000E+00 0.  1.
     999902    2    1    2    0    0  0.12272098385E-01 -0.57885014409E-02  0.20056292298E-01  0.10197150045E+01  0.10194274493E+01 0.  0.
     999903    2    3    3    0    0 -0.14173796230E-01  0.56889232427E-01 -0.11139721073E+00  0.12735414298E+00  0.19299168655E-01 0.  0.
         14    1    1    2    0    0 -0.12272098385E-01  0.57885014409E-02 -0.20056292298E-01  0.24214995529E-01  0.00000000000E+00 0.  1.
     999901    1    3    3    0    0  0.26445894616E-01 -0.62677733868E-01  0.13145350302E+00  0.89236086149E+00  0.88000000000E+00 0. -1.
        -11    1    4    4    0    0 -0.16938945519E-01  0.36567923890E-01 -0.83581088368E-01  0.92791165456E-01  0.51100000000E-03 0.  1.
         11    1    4    4    0    0  0.27651492886E-02  0.20321308537E-01 -0.27816122358E-01  0.34562977523E-01  0.51100000000E-03 0. -1.
</event>
<event>
 8    1  0.1086235E+005  0.1043930E+01  0.7957747E-01            NaN
         13   -1    0    0    0    0  0.00000000000E+00  0.00000000000E+00  0.74505805969E-08  0.10566000000E+00  0.10566000000E+00 0. -1.
     999900   -1    0    0    0    0 -0.00000000000E+00 -0.00000000000E+00 -0.74505805969E-08  0.93827000000E+00  0.93827000000E+00 0.  1.
     999902    2    1    2    0    0 -0.15475156685E-01  0.16217286978E-01  0.84617314440E-02  0.10199699964E+01  0.10196885367E+01 0.  0.
     999903    2    3    3    0    0 -0.92481181278E-03  0.16509345319E-01 -0.12695373851E+00  0.12949307516E+00  0.19436847328E-01 0.  0.
         14    1    1    2    0    0  0.15475156685E-01 -0.16217286978E-01 -0.84617314440E-02  0.23960003556E-01  0.00000000000E+00 0. -1.
     999901    1    3    3    0    0 -0.14550344872E-01 -0.29205834060E-03  0.13541546995E+00  0.89047692128E+00  0.88000000000E+00 0. -1.
        -11    1    4    4    0    0  0.64642781869E-02 -0.61203782739E-03 -0.24282008281E-01  0.25140376488E-01  0.51100000000E-03 0. -1.
         11    1    4    4    0    0 -0.73890899997E-02  0.17121383146E-01 -0.10267173023E+00  0.10435269867E+00  0.51100000000E-03 0.  1.
</event>
<event>
 8    1  0.1086235E+005  0.1043930E+01  0.7957747E-01            NaN
         13   -1    0    0    0    0  0.00000000000E+00  0.00000000000E+00  0.74505805969E-08  0.10566000000E+00  0.10566000000E+00 0.  1.
     999900   -1    0    0    0    0 -0.00000000000E+00 -0.00000000000E+00 -0.74505805969E-08  0.93827000000E+00  0.93827000000E+00 0. -1.
     999902    2    1    2    0    0 -0.11243165519E-01 -0.23849855167E-01 -0.47864559615E-02  0.10171319679E+01  0.10167788873E+01 0.  0.
     999903    2    3    3    0    0 -0.60960219813E-01  0.27963548386E-01 -0.10753066037E+00  0.12824908148E+00  0.19669152090E-01 0.  0.
         14    1    1    2    0    0  0.11243165519E-01  0.23849855167E-01  0.47864559615E-02  0.26798032074E-01  0.00000000000E+00 0.  1.
     999901    1    3    3    0    0  0.49717054294E-01 -0.51813403553E-01  0.10274420441E+00  0.88888288644E+00  0.88000000000E+00 0.  1.
        -11    1    4    4    0    0 -0.18011593380E-01  0.15407239566E-01 -0.50240925325E-01  0.55553687777E-01  0.51100000000E-03 0.  1.
         11    1    4    4    0    0 -0.42948626433E-01  0.12556308820E-01 -0.57289735042E-01  0.72695393704E-01  0.51100000000E-03 0. -1.
</event>
<event>
 8    1  0.1086235E+005  0.1043930E+01  0.7957747E-01            NaN
         13   -1    0    0    0    0  0.00000000000E+00  0.00000000000E+00  0.74505805969E-08  0.10566000000E+00  0.10566000000E+00 0. -1.
     999900   -1    0    0    0    0 -0.00000000000E+00 -0.00000000000E+00 -0.74505805969E-08  0.93827000000E+00  0.93827000000E+00 0.  1.
     999902    2    1    2    0    0 -0.18416922917E-01  0.16828553439E-01 -0.35601632982E-02  0.10187296424E+01  0.10184179036E+01 0.  0.
     999903    2    3    3    0    0 -0.93202939441E-01 -0.52568971057E-01 -0.71514406107E-01  0.13023274100E+00  0.19899042929E-01 0.  0.
         14    1    1    2    0    0  0.18416922917E-01 -0.16828553439E-01  0.35601632982E-02  0.25200357603E-01  0.00000000000E+00 0.  1.
     999901    1    3    3    0    0  0.74786016524E-01  0.69397524496E-01  0.67954242809E-01  0.88849690140E+00  0.88000000000E+00 0. -1.
        -11    1    4    4    0    0 -0.48591627080E-01 -0.26139974812E-01 -0.48641313188E-01  0.73557344807E-01  0.51100000000E-03 0. -1.
         11    1    4    4    0    0 -0.44611312361E-01 -0.26428996245E-01 -0.22873092919E-01  0.56675396195E-01  0.51100000000E-03 0.  1.
</event>
<event>
 8    1  0.1086235E+005  0.1043930E+01  0.7957747E-01            NaN
         13   -1    0    0    0    0  0.00000000000E+00  0.00000000000E+00  0.74505805969E-08  0.10566000000E+00  0.10566000000E+00 0. -1.
     999900   -1    0    0    0    0 -0.00000000000E+00 -0.00000000000E+00 -0.74505805969E-08  0.93827000000E+00  0.93827000000E+00 0.  1.
     999902    2    1    2    0    0  0.17658891007E-01  0.13518864307E-01 -0.25480001286E-02  0.10215449955E+01  0.10212997059E+01 0.  0.
     999903    2    3    3    0    0  0.48241116446E-01 -0.35293991320E-02 -0.12202495754E+00  0.13278143908E+00  0.20028937199E-01 0.  0.
         14    1    1    2    0    0 -0.17658891007E-01 -0.13518864307E-01  0.25480001286E-02  0.22385004543E-01  0.00000000000E+00 0.  1.
     999901    1    3    3    0    0 -0.30582225438E-01  0.17048263439E-01  0.11947695741E+00  0.88876355638E+00  0.88000000000E+00 0.  1.
        -11    1    4    4    0    0  0.42976086667E-01 -0.46747468178E-02 -0.11893586249E+00  0.12654958629E+00  0.51100000000E-03 0. -1.
         11    1    4    4    0    0  0.52650297786E-02  0.11453476858E-02 -0.30890950542E-02  0.62318527859E-02  0.51100000000E-03 0.  1.
</event>
<event>
 8    1  0.1086235E+005  0.1043930E+01  0.7957747E-01            NaN
         13   -1    0    0    0    0  0.00000000000E+00  0.00000000000E+00  0.74505805969E-08  0.10566000000E+00  0.10566000000E+00 0. -1.
     999900   -1    0    0    0    0 -0.00000000000E+00 -0.00000000000E+00 -0.74505805969E-08  0.93827000000E+00  0.93827000000E+00 0. -1.
     999902    2    1    2    0    0  0.45954040012E-02  0.21031372476E-01 -0.13165730665E-01  0.10186956419E+01  0.10183830507E+01 0.  0.
     999903    2    3    3    0    0  0.10072251636E+00 -0.35437242439E-01  0.67696098845E-01  0.12798370097E+00  0.19905839887E-01 0.  0.
         14    1    1    2    0    0 -0.45954040012E-02 -0.21031372476E-01  0.13165730665E-01  0.25234358128E-01  0.00000000000E+00 0. -1.
     999901    1    3    3    0    0 -0.96127112354E-01  0.56468614916E-01 -0.80861829510E-01  0.89071194091E+00  0.88000000000E+00 0. -1.
        -11    1    4    4    0    0  0.75466849287E-01 -0.26655059578E-01  0.39975532706E-01  0.89465311035E-01  0.51100000000E-03 0. -1.
         11    1    4    4    0    0  0.25255667069E-01 -0.87821828609E-02  0.27720566139E-01  0.38518389932E-01  0.51100000000E-03 0.  1.
</event>
<event>
 8    1  0.1086235E+005  0.1043930E+01  0.7957747E-01            NaN
         13   -1    0    0    0    0  0.00000000000E+00  0.00000000000E+00  0.74505805969E-08  0.10566000000E+00  0.10566000000E+00 0.  1.
     999900   -1    0    0    0    0 -0.00000000000E+00 -0.00000000000E+00 -0.74505805969E-08  0.93827000000E+00  0.93827000000E+00 0.  1.
     999902    2    1    2    0    0 -0.20408479585E-01 -0.86441728370E-02  0.80129625941E-02  0.10203623244E+01  0.10200901126E+01 0.  0.
     999903    2    3    3    0    0 -0.54063367398E-01 -0.68667162328E-01  0.98224336079E-01  0.13307798293E+00  0.20584034230E-01 0.  0.
         14    1    1    2    0    0  0.20408479585E-01  0.86441728370E-02 -0.80129625941E-02  0.23567675586E-01  0.00000000000E+00 0. -1.
     999901    1    3    3    0    0  0.33654887814E-01  0.60022989491E-01 -0.90211373485E-01  0.88728434149E+00  0.88000000000E+00 0.  1.
        -11    1    4    4    0    0 -0.15614720524E-01 -0.34235347332E-01  0.34308531063E-01  0.50923618574E-01  0.51100000000E-03 0.  1.
         11    1    4    4    0    0 -0.38448646875E-01 -0.34431814996E-01  0.63915805016E-01  0.82154364353E-01  0.51100000000E-03 0. -1.
</event>
<event>
 8    1  0.1086235E+005  0.1043930E+01  0.7957747E-01            NaN
         13   -1    0    0    0    0  0.00000000000E+00  0.00000000000E+00  0.74505805969E-08  0.10566000000E+00  0.10566000000E+00 0.  1.
     999900   -1    0    0    0    0 -0.00000000000E+00 -0.00000000000E+00 -0.74505805969E-08  0.93827000000E+00  0.93827000000E+00 0.  1.
     999902    2    1    2    0    0  0.13106031488E-01 -0.17889051857E-01  0.63032037907E-02  0.10208753559E+01  0.10206149987E+01 0.  0.
     999903    2    3    3    0    0  0.37249225103E-01  0.11586378001E+00 -0.38554055439E-01  0.12931218507E+00  0.20574394971E-01 0.  0.
         14    1    1    2    0    0 -0.13106031488E-01  0.17889051857E-01 -0.63032037907E-02  0.23054644125E-01  0.00000000000E+00 0.  1.
     999901    1    3    3    0    0 -0.24143193615E-01 -0.13375283186E+00  0.44857259230E-01  0.89156317080E+00  0.88000000000E+00 0. -1.
        -11    1    4    4    0    0  0.28717880285E-01  0.86670420866E-01 -0.37974883347E-01  0.98887973927E-01  0.51100000000E-03 0. -1.
         11    1    4    4    0    0  0.85313448180E-02  0.29193359141E-01 -0.57917209178E-03  0.30424211143E-01  0.51100000000E-03 0.  1.
</event>
<event>
 8    1  0.1086235E+005  0.1043930E+01  0.7957747E-01            NaN
         13   -1    0    0    0    0  0.00000000000E+00  0.00000000000E+00  0.74505805969E-08  0.10566000000E+00  0.10566000000E+00 0.  1.
     999900   -1    0    0    0    0 -0.00000000000E+00 -0.00000000000E+00 -0.74505805969E-08  0.93827000000E+00  0.93827000000E+00 0. -1.
     999902    2    1    2    0    0  0.17536143236E-01 -0.84194571837E-02  0.56460786955E-02  0.10236745863E+01  0.10234741701E+01 0.  0.
     999903    2    3    3    0    0  0.23723808753E-01 -0.13000644497E+00  0.20093475321E-01  0.13517562173E+00  0.20104878104E-01 0.  0.
         14    1    1    2    0    0 -0.17536143236E-01  0.84194571837E-02 -0.56460786955E-02  0.20255413684E-01  0.00000000000E+00 0. -1.
     999901    1    3    3    0    0 -0.61876655173E-02  0.12158698779E+00 -0.14447396626E-01  0.88849896459E+00  0.88000000000E+00 0.  1.
        -11    1    4    4    0    0  0.11442910500E-02 -0.38410031046E-01 -0.12530560375E-02  0.38450892804E-01  0.51100000000E-03 0. -1.
         11    1    4    4    0    0  0.22579517703E-01 -0.91596413925E-01  0.21346531359E-01  0.96724728925E-01  0.51100000000E-03 0.  1.
</event>
<event>
 8    1  0.1086235E+005  0.1043930E+01  0.7957747E-01            NaN
         13   -1    0    0    0    0  0.00000000000E+00  0.00000000000E+00  0.74505805969E-08  0.10566000000E+00  0.10566000000E+00 0. -1.
     999900   -1    0    0    0    0 -0.00000000000E+00 -0.00000000000E+00 -0.74505805969E-08  0.93827000000E+00  0.93827000000E+00 0. -1.
     999902    2    1    2    0    0  0.27199628849E-04  0.21933171059E-01  0.81998789561E-02  0.10205141347E+01  0.10202454589E+01 0.  0.
     999903    2    3    3    0    0  0.53047146215E-01 -0.23227532066E-01 -0.11396631867E+00  0.12934906376E+00  0.19731713963E-01 0.  0.
         14    1    1    2    0    0 -0.27199628849E-04 -0.21933171059E-01 -0.81998789561E-02  0.23415865293E-01  0.00000000000E+00 0.  1.
     999901    1    3    3    0    0 -0.53019946586E-01  0.45160703125E-01  0.12216619763E+00  0.89116507095E+00  0.88000000000E+00 0.  1.
        -11    1    4    4    0    0  0.23769732488E-01 -0.35468095020E-04 -0.41798723661E-01  0.48087377359E-01  0.51100000000E-03 0.  1.
         11    1    4    4    0    0  0.29277413727E-01 -0.23192063971E-01 -0.72167595008E-01  0.81261686396E-01  0.51100000000E-03 0. -1.
</event>
<event>
 8    1  0.1086235E+005  0.1043930E+01  0.7957747E-01            NaN
         13   -1    0    0    0    0  0.00000000000E+00  0.00000000000E+00  0.74505805969E-08  0.10566000000E+00  0.10566000000E+00 0. -1.
     999900   -1    0    0    0    0 -0.00000000000E+00 -0.00000000000E+00 -0.74505805969E-08  0.93827000000E+00  0.93827000000E+00 0. -1.
     999902    2    1    2    0    0  0.20277258112E-01 -0.93315502375E-02 -0.76280344971E-02  0.10203411904E+01  0.10200684844E+01 0.  0.
     999903    2    3    3    0    0  0.49206942273E-01  0.90089830446E-01 -0.79552991451E-01  0.13135596165E+00  0.19703032634E-01 0.  0.
         14    1    1    2    0    0 -0.20277258112E-01  0.93315502375E-02  0.76280344971E-02  0.23588809565E-01  0.00000000000E+00 0. -1.
     999901    1    3    3    0    0 -0.28929684161E-01 -0.99421380683E-01  0.71924956954E-01  0.88898522878E+00  0.88000000000E+00 0.  1.
        -11    1    4    4    0    0  0.11010264572E-01  0.16165791436E-01 -0.25455164419E-01  0.32105844567E-01  0.51100000000E-03 0. -1.
         11    1    4    4    0    0  0.38196677701E-01  0.73924039009E-01 -0.54097827032E-01  0.99250117085E-01  0.51100000000E-03 0.  1.
</event>
<event>
 8    1  0.1086235E+005  0.1043930E+01  0.7957747E-01            NaN
         13   -1    0    0    0    0  0.00000000000E+00  0.00000000000E+00  0.74505805969E-08  0.10566000000E+00  0.10566000000E+00 0.  1.
     999900   -1    0    0    0    0 -0.00000000000E+00 -0.00000000000E+00 -0.74505805969E-08  0.93827000000E+00  0.93827000000E+00 0.  1.
     999902    2    1    2    0    0 -0.10509657611E-01 -0.15279455645E-01  0.13023090030E-01  0.10212691187E+01  0.10210176772E+01 0.  0.
     999903    2    3    3    0    0  0.82327478946E-01  0.82908407375E-01 -0.49887525428E-01  0.12873489755E+00  0.20791605283E-01 0.  0.
         14    1    1    2    0    0  0.10509657611E-01  0.15279455645E-01 -0.13023090030E-01  0.22660881312E-01  0.00000000000E+00 0. -1.
     999901    1    3    3    0    0 -0.92837136557E-01 -0.98187863020E-01  0.62910615458E-01  0.89253422114E+00  0.88000000000E+00 0. -1.
        -11    1    4    4    0    0  0.19149492250E-01  0.32422700003E-01 -0.12927715705E-01  0.39816095781E-01  0.51100000000E-03 0.  1.
         11    1    4    4    0    0  0.63177986697E-01  0.50485707372E-01 -0.36959809723E-01  0.88918801767E-01  0.51100000000E-03 0. -1.
</event>
<event>
 8    1  0.1086235E+005  0.1043930E+01  0.7957747E-01            NaN
         13   -1    0    0    0    0  0.00000000000E+00  0.00000000000E+00  0.74505805969E-08  0.10566000000E+00  0.10566000000E+00 0.  1.
     999900   -1    0    0    0    0 -0.00000000000E+00 -0.00000000000E+00 -0.74505805969E-08  0.93827000000E+00  0.93827000000E+00 0.  1.
     999902    2    1    2    0    0 -0.88965058661E-02  0.70927833544E-02 -0.19043095042E-01  0.10217467888E+01  0.10215059498E+01 0.  0.
     999903    2    3    3    0    0 -0.29188156801E-01 -0.11496374730E+00 -0.55054532260E-01  0.13236139907E+00  0.20492114372E-01 0.  0.
         14    1    1    2    0    0  0.88965058661E-02 -0.70927833544E-02  0.19043095042E-01  0.22183211245E-01  0.00000000000E+00 0.  1.
     999901    1    3    3    0    0  0.20291650935E-01  0.12205653065E+00  0.36011437218E-01  0.88938538968E+00  0.88000000000E+00 0.  1.
        -11    1    4    4    0    0 -0.20269602752E-01 -0.10365306228E+00 -0.45093138121E-01  0.11484104816E+00  0.51100000000E-03 0.  1.
         11    1    4    4    0    0 -0.89185540496E-02 -0.11310685022E-01 -0.99613941397E-02  0.17520350916E-01  0.51100000000E-03 0. -1.
</event>
<event>
 8    1  0.1086235E+005  0.1043930E+01  0.7957747E-01            NaN
         13   -1    0    0    0    0  0.00000000000E+00  0.00000000000E+00  0.74505805969E-08  0.10566000000E+00  0.10566000000E+00 0. -1.
     999900   -1    0    0    0    0 -0.00000000000E+00 -0.00000000000E+00 -0.74505805969E-08  0.93827000000E+00  0.93827000000E+00 0.  1.
     999902    2    1    2    0    0 -0.75337074732E-02  0.21666760463E-01  0.58823169393E-02  0.10202486379E+01  0.10199737625E+01 0.  0.
     999903    2    3    3    0    0 -0.30758997826E-01 -0.12276199632E+00  0.44862014915E-02  0.12817183123E+00  0.19780511345E-01 0.  0.
         14    1    1    2    0    0  0.75337074732E-02 -0.21666760463E-01 -0.58823169393E-02  0.23681362077E-01  0.00000000000E+00 0. -1.
     999901    1    3    3    0    0  0.23225290353E-01  0.14442875679E+00  0.13961154478E-02  0.89207680669E+00  0.88000000000E+00 0. -1.
        -11    1    4    4    0    0 -0.19838236869E-01 -0.73462024863E-01  0.12268964538E-01  0.77077969296E-01  0.51100000000E-03 0.  1.
         11    1    4    4    0    0 -0.10920760957E-01 -0.49299971460E-01 -0.77827630467E-02  0.51093861936E-01  0.51100000000E-03 0. -1.
</event>
<event>
 8    1  0.1086235E+005  0.1043930E+01  0.7957747E-01            NaN
         13   -1    0    0    0    0  0.00000000000E+00  0.00000000000E+00  0.74505805969E-08  0.10566000000E+00  0.10566000000E+00 0. -1.
     999900   -1    0    0    0    0 -0.00000000000E+00 -0.00000000000E+00 -0.74505805969E-08  0.93827000000E+00  0.93827000000E+00 0. -1.
     999902    2    1    2    0    0  0.12138918923E-01  0.10745579168E-01 -0.17038359696E-01  0.10204113579E+01  0.10201402908E+01 0.  0.
     999903    2    3    3    0    0 -0.48292375974E-02 -0.99785215358E-01 -0.82316219620E-01  0.13093613405E+00  0.19695188453E-01 0.  0.
         14    1    1    2    0    0 -0.12138918923E-01 -0.10745579168E-01  0.17038359696E-01  0.23518642082E-01  0.00000000000E+00 0. -1.
     999901    1    3    3    0    0  0.16968156520E-01  0.11053079453E+00  0.65277859925E-01  0.88947522387E+00  0.88000000000E+00 0.  1.
        -11    1    4    4    0    0  0.16082977377E-02 -0.39372400624E-01 -0.21160223299E-01  0.44730176878E-01  0.51100000000E-03 0.  1.
         11    1    4    4    0    0 -0.64375353351E-02 -0.60412814735E-01 -0.61155996321E-01  0.86205957174E-01  0.51100000000E-03 0. -1.
</event>
<event>
 8    1  0.1086235E+005  0.1043930E+01  0.7957747E-01            NaN
         13   -1    0    0    0    0  0.00000000000E+00  0.00000000000E+00  0.74505805969E-08  0.10566000000E+00  0.10566000000E+00 0. -1.
     999900   -1    0    0    0    0 -0.00000000000E+00 -0.00000000000E+00 -0.74505805969E-08  0.93827000000E+00  0.93827000000E+00 0. -1.
     999902    2    1    2    0    0 -0.62653994005E-02  0.89595876294E-02 -0.20441515099E-01  0.10207484345E+01  0.10204851697E+01 0.  0.
     999903    2    3    3    0    0 -0.28385202510E-01  0.11610330178E+00  0.50098283620E-01  0.13117273542E+00  0.20267019723E-01 0.  0.
         14    1    1    2    0    0  0.62653994005E-02 -0.89595876294E-02  0.20441515099E-01  0.23181565514E-01  0.00000000000E+00 0. -1.
     999901    1    3    3    0    0  0.22119803109E-01 -0.10714371415E+00 -0.70539798720E-01  0.88957569907E+00  0.88000000000E+00 0. -1.
        -11    1    4    4    0    0 -0.28132655915E-03  0.32258389201E-01  0.18944719383E-01  0.37414520336E-01  0.51100000000E-03 0.  1.
         11    1    4    4    0    0 -0.28103875951E-01  0.83844912582E-01  0.31153564237E-01  0.93758215080E-01  0.51100000000E-03 0. -1.
</event>
<event>
 8    1  0.1250433E+005  0.1043930E+01  0.7957747E-01            NaN
         13   -1    0    0    0    0  0.00000000000E+00  0.00000000000E+00  0.74505805969E-08  0.10566000000E+00  0.10566000000E+00 0.  1.
     999900   -1    0    0    0    0 -0.00000000000E+00 -0.00000000000E+00 -0.74505805969E-08  0.93827000000E+00  0.93827000000E+00 0.  1.
     999902    2    1    2    0    0 -0.75974455627E-02 -0.76350614079E-02  0.22226963078E-01  0.10192307444E+01  0.10189314290E+01 0.  0.
     999903    2    3    3    0    0  0.54996505828E-01  0.47279711251E-01  0.10745228373E+00  0.13120090798E+00  0.20191538482E-01 0.  0.
         14    1    1    2    0    0  0.75974455627E-02  0.76350614079E-02 -0.22226963078E-01  0.24699255645E-01  0.00000000000E+00 0. -1.
     999901    1    3    3    0    0 -0.62593951391E-01 -0.54914772659E-01 -0.85225320657E-01  0.88802983637E+00  0.88000000000E+00 0.  1.
        -11    1    4    4    0    0  0.36169282542E-01  0.41091078317E-01  0.70420600870E-01  0.89196501416E-01  0.51100000000E-03 0.  1.
         11    1    4    4    0    0  0.18827223286E-01  0.61886329349E-02  0.37031682864E-01  0.42004406566E-01  0.51100000000E-03 0. -1.
</event>
<event>
 8    1  0.1086235E+005  0.1043930E+01  0.7957747E-01            NaN
         13   -1    0    0    0    0  0.00000000000E+00  0.00000000000E+00  0.74505805969E-08  0.10566000000E+00  0.10566000000E+00 0.  1.
     999900   -1    0    0    0    0 -0.00000000000E+00 -0.00000000000E+00 -0.74505805969E-08  0.93827000000E+00  0.93827000000E+00 0. -1.
     999902    2    1    2    0    0 -0.16046799325E-02  0.16993639632E-01 -0.16721444380E-01  0.10200351159E+01  0.10197552021E+01 0.  0.
     999903    2    3    3    0    0 -0.76521446969E-01 -0.47412389004E-01  0.89056979031E-01  0.12821129169E+00  0.20087890019E-01 0.  0.
         14    1    1    2    0    0  0.16046799325E-02 -0.16993639632E-01  0.16721444380E-01  0.23894884134E-01  0.00000000000E+00 0.  1.
     999901    1    3    3    0    0  0.74916767037E-01  0.64406028636E-01 -0.10577842341E+00  0.89182382418E+00  0.88000000000E+00 0. -1.
        -11    1    4    4    0    0 -0.56387922885E-02 -0.76329536366E-02  0.17518573887E-01  0.19930366573E-01  0.51100000000E-03 0.  1.
         11    1    4    4    0    0 -0.70882654681E-01 -0.39779435367E-01  0.71538405144E-01  0.10828092512E+00  0.51100000000E-03 0. -1.
</event>
<event>
 8    1  0.1086235E+005  0.1043930E+01  0.7957747E-01            NaN
         13   -1    0    0    0    0  0.00000000000E+00  0.00000000000E+00  0.74505805969E-08  0.10566000000E+00  0.10566000000E+00 0. -1.
     999900   -1    0    0    0    0 -0.00000000000E+00 -0.00000000000E+00 -0.74505805969E-08  0.93827000000E+00  0.93827000000E+00 0.  1.
     999902    2    1    2    0    0  0.16345781066E-01  0.14983453704E-01  0.27388523245E-02  0.10215874452E+01  0.10213430953E+01 0.  0.
     999903    2    3    3    0    0 -0.71351766541E-01  0.55977402152E-01 -0.92105785951E-01  0.13121287846E+00  0.22556585015E-01 0.  0.
         14    1    1    2    0    0 -0.16345781066E-01 -0.14983453704E-01 -0.27388523245E-02  0.22342554814E-01  0.00000000000E+00 0.  1.
     999901    1    3    3    0    0  0.87697547607E-01 -0.40993948448E-01  0.94844638275E-01  0.89037456673E+00  0.88000000000E+00 0. -1.
        -11    1    4    4    0    0 -0.30988090010E-01  0.14035106654E-01 -0.24089096406E-01  0.41686827991E-01  0.51100000000E-03 0.  1.
         11    1    4    4    0    0 -0.40363676531E-01  0.41942295498E-01 -0.68016689545E-01  0.89526050468E-01  0.51100000000E-03 0. -1.
</event>
<event>
 8    1  0.1086235E+005  0.1043930E+01  0.7957747E-01            NaN
         13   -1    0    0    0    0  0.00000000000E+00  0.00000000000E+00  0.74505805969E-08  0.10566000000E+00  0.10566000000E+00 0. -1.
     999900   -1    0    0    0    0 -0.00000000000E+00 -0.00000000000E+00 -0.74505805969E-08  0.93827000000E+00  0.93827000000E+00 0.  1.
     999902    2    1    2    0    0  0.16847258812E-01  0.13145604166E-01 -0.69396415920E-02  0.10214623418E+01  0.10212152173E+01 0.  0.
     999903    2    3    3    0    0  0.50736160432E-01  0.11252868731E+00  0.47359953385E-01  0.13355812352E+00  0.18919400916E-01 0.  0.
         14    1    1    2    0    0 -0.16847258812E-01 -0.13145604166E-01  0.69396415920E-02  0.22467658173E-01  0.00000000000E+00 0. -1.
     999901    1    3    3    0    0 -0.33888901620E-01 -0.99383083144E-01 -0.54299594977E-01  0.88790421830E+00  0.88000000000E+00 0.  1.
        -11    1    4    4    0    0  0.59716870774E-02  0.17368993976E-01  0.38142147509E-03  0.18377965111E-01  0.51100000000E-03 0. -1.
         11    1    4    4    0    0  0.44764473354E-01  0.95159693334E-01  0.46978531910E-01  0.11518015841E+00  0.51100000000E-03 0.  1.
</event>
<event>
 8    1  0.1086235E+005  0.1043930E+01  0.7957747E-01            NaN
         13   -1    0    0    0    0  0.00000000000E+00  0.00000000000E+00  0.74505805969E-08  0.10566000000E+00  0.10566000000E+00 0. -1.
     999900   -1    0    0    0    0 -0.00000000000E+00 -0.00000000000E+00 -0.74505805969E-08  0.93827000000E+00  0.93827000000E+00 0.  1.
     999902    2    1    2    0    0  0.56118262091E-02  0.21878418149E-01  0.45612382261E-02  0.10208873728E+01  0.10206272901E+01 0.  0.
     999903    2    3    3    0    0  0.14760228721E-01  0.17114978884E-01  0.12869692358E+00  0.13211515676E+00  0.19512294891E-01 0.  0.
         14    1    1    2    0    0 -0.56118262091E-02 -0.21878418149E-01 -0.45612382261E-02  0.23042627200E-01  0.00000000000E+00 0. -1.
     999901    1    3    3    0    0 -0.91484025114E-02  0.47634392651E-02 -0.12413568536E+00  0.88877221604E+00  0.88000000000E+00 0.  1.
        -11    1    4    4    0    0  0.15317630675E-01  0.15795363069E-01  0.69561374175E-01  0.72960052098E-01  0.51100000000E-03 0. -1.
         11    1    4    4    0    0 -0.55740195456E-03  0.13196158158E-02  0.59135549409E-01  0.59155104664E-01  0.51100000000E-03 0.  1.
</event>
<event>
 8    1  0.1086235E+005  0.1043930E+01  0.7957747E-01            NaN
         13   -1    0    0    0    0  0.00000000000E+00  0.00000000000E+00  0.74505805969E-08  0.10566000000E+00  0.10566000000E+00 0.  1.
     999900   -1    0    0    0    0 -0.00000000000E+00 -0.00000000000E+00 -0.74505805969E-08  0.93827000000E+00  0.93827000000E+00 0.  1.
     999902    2    1    2    0    0  0.22444963201E-01  0.22300763542E-02 -0.43469249767E-02  0.10209594673E+01  0.10207010280E+01 0.  0.
     999903    2    3    3    0    0  0.45062667376E-01 -0.10219314952E+00 -0.67300601468E-01  0.13226439252E+00  0.22145310319E-01 0.  0.
         14    1    1    2    0    0 -0.22444963201E-01 -0.22300763542E-02  0.43469249767E-02  0.22970532653E-01  0.00000000000E+00 0. -1.
     999901    1    3    3    0    0 -0.22617704176E-01  0.10442322588E+00  0.62953676492E-01  0.88869507483E+00  0.88000000000E+00 0. -1.
        -11    1    4    4    0    0  0.85505801920E-02 -0.46234841633E-01 -0.26534760126E-01  0.53991921788E-01  0.51100000000E-03 0.  1.
         11    1    4    4    0    0  0.36512087184E-01 -0.55958307890E-01 -0.40765841343E-01  0.78272470728E-01  0.51100000000E-03 0. -1.
</event>
<event>
 8    1  0.1086235E+005  0.1043930E+01  0.7957747E-01            NaN
         13   -1    0    0    0    0  0.00000000000E+00  0.00000000000E+00  0.74505805969E-08  0.10566000000E+00  0.10566000000E+00 0.  1.
     999900   -1    0    0    0    0 -0.00000000000E+00 -0.00000000000E+00 -0.74505805969E-08  0.93827000000E+00  0.93827000000E+00 0.  1.
     999902    2    1    2    0    0 -0.12345880018E-01  0.53160233957E-02  0.18688054329E-01  0.10209099168E+01  0.10206503485E+01 0.  0.
     999903    2    3    3    0    0  0.12369956875E+00 -0.43822171959E-02  0.35045877606E-01  0.13025285683E+00  0.20415828139E-01 0.  0.
         14    1    1    2    0    0  0.12345880018E-01 -0.53160233957E-02 -0.18688054329E-01  0.23020083248E-01  0.00000000000E+00 0. -1.
     999901    1    3    3    0    0 -0.13604544877E+00  0.96982405916E-02 -0.16357823277E-01  0.89065705992E+00  0.88000000000E+00 0.  1.
        -11    1    4    4    0    0  0.14121819550E-01  0.32642938647E-02 -0.12730605397E-02  0.14558956211E-01  0.51100000000E-03 0.  1.
         11    1    4    4    0    0  0.10957774920E+00 -0.76465110605E-02  0.36318938146E-01  0.11569390062E+00  0.51100000000E-03 0. -1.
</event>
<event>
 8    1  0.1086235E+005  0.1043930E+01  0.7957747E-01            NaN
         13   -1    0    0    0    0  0.00000000000E+00  0.00000000000E+00  0.74505805969E-08  0.10566000000E+00  0.10566000000E+00 0. -1.
     999900   -1    0    0    0    0 -0.00000000000E+00 -0.00000000000E+00 -0.74505805969E-08  0.93827000000E+00  0.93827000000E+00 0.  1.
     999902    2    1    2    0    0  0.18331180798E-01  0.55391922351E-02  0.15199654502E-01  0.10194811895E+01  0.10191879863E+01 0.  0.
     999903    2    3    3    0    0 -0.55549310394E-01  0.59673819074E-01  0.10011316650E+00  0.13066220377E+00  0.20081703562E-01 0.  0.
         14    1    1    2    0    0 -0.18331180798E-01 -0.55391922351E-02 -0.15199654502E-01  0.24448810545E-01  0.00000000000E+00 0.  1.
     999901    1    3    3    0    0  0.73880491192E-01 -0.54134626839E-01 -0.84913512000E-01  0.88881898569E+00  0.88000000000E+00 0.  1.
        -11    1    4    4    0    0 -0.14381004408E-01  0.29479531682E-01  0.36028398049E-01  0.48725380070E-01  0.51100000000E-03 0.  1.
         11    1    4    4    0    0 -0.41168305985E-01  0.30194287392E-01  0.64084768452E-01  0.81936823696E-01  0.51100000000E-03 0. -1.
</event>
<event>
 8    1  0.1086235E+005  0.1043930E+01  0.7957747E-01            NaN
         13   -1    0    0    0    0  0.00000000000E+00  0.00000000000E+00  0.74505805969E-08  0.10566000000E+00  0.10566000000E+00 0. -1.
     999900   -1    0    0    0    0 -0.00000000000E+00 -0.00000000000E+00 -0.74505805969E-08  0.93827000000E+00  0.93827000000E+00 0.  1.
     999902    2    1    2    0    0 -0.39357385374E-02  0.23171656762E-01  0.71724256404E-04  0.10204263650E+01  0.10201556477E+01 0.  0.
     999903    2    3    3    0    0  0.11299471635E+00 -0.46128478513E-01  0.37267399189E-01  0.12921440463E+00  0.20294355578E-01 0.  0.
         14    1    1    2    0    0  0.39357385374E-02 -0.23171656762E-01 -0.71724256404E-04  0.23503635023E-01  0.00000000000E+00 0.  1.
     999901    1    3    3    0    0 -0.11693045489E+00  0.69300135275E-01 -0.37195674932E-01  0.89121196035E+00  0.88000000000E+00 0. -1.
        -11    1    4    4    0    0  0.67009284247E-01 -0.29590407421E-01  0.12110191761E-01  0.74247924228E-01  0.51100000000E-03 0.  1.
         11    1    4    4    0    0  0.45985432106E-01 -0.16538071092E-01  0.25157207427E-01  0.54966480403E-01  0.51100000000E-03 0. -1.
</event>
<event>
 8    1  0.1086235E+005  0.1043930E+01  0.7957747E-01            NaN
         13   -1    0    0    0    0  0.00000000000E+00  0.00000000000E+00  0.74505805969E-08  0.10566000000E+00  0.10566000000E+00 0. -1.
     999900   -1    0    0    0    0 -0.00000000000E+00 -0.00000000000E+00 -0.74505805969E-08  0.93827000000E+00  0.93827000000E+00 0. -1.
     999902    2    1    2    0    0 -0.10472927393E-01 -0.21827251469E-01  0.12972157256E-02  0.10196855391E+01  0.10193972753E+01 0.  0.
     999903    2    3    3    0    0 -0.67490440922E-01  0.46302266724E-01  0.98704814331E-01  0.12986484462E+00  0.20576150640E-01 0.  0.
         14    1    1    2    0    0  0.10472927393E-01  0.21827251469E-01 -0.12972157256E-02  0.24244460883E-01  0.00000000000E+00 0.  1.
     999901    1    3    3    0    0  0.57017513529E-01 -0.68129518192E-01 -0.97407598606E-01  0.88982069450E+00  0.88000000000E+00 0. -1.
        -11    1    4    4    0    0 -0.33791811411E-01  0.17795614252E-01  0.31746020599E-01  0.49665293213E-01  0.51100000000E-03 0.  1.
         11    1    4    4    0    0 -0.33698629511E-01  0.28506652472E-01  0.66958793732E-01  0.80199551402E-01  0.51100000000E-03 0. -1.
</event>
<event>
 8    1  0.1086235E+005  0.1043930E+01  0.7957747E-01            NaN
         13   -1    0    0    0    0  0.00000000000E+00  0.00000000000E+00  0.74505805969E-08  0.10566000000E+00  0.10566000000E+00 0. -1.
     999900   -1    0    0    0    0 -0.00000000000E+00 -0.00000000000E+00 -0.74505805969E-08  0.93827000000E+00  0.93827000000E+00 0. -1.
     999902    2    1    2    0    0 -0.66792630134E-02  0.20191233283E-01 -0.94656694391E-02  0.10206513112E+01  0.10203858102E+01 0.  0.
     999903    2    3    3    0    0  0.75205556750E-01 -0.90622785240E-01  0.46358449634E-01  0.12818215053E+00  0.20327146689E-01 0.  0.
         14    1    1    2    0    0  0.66792630134E-02 -0.20191233283E-01  0.94656694391E-02  0.23278688833E-01  0.00000000000E+00 0. -1.
     999901    1    3    3    0    0 -0.81884819763E-01  0.11081401852E+00 -0.55824119073E-01  0.89246916063E+00  0.88000000000E+00 0. -1.
        -11    1    4    4    0    0  0.44019724823E-01 -0.37661465783E-01  0.25218641501E-01  0.63185149984E-01  0.51100000000E-03 0.  1.
         11    1    4    4    0    0  0.31185831926E-01 -0.52961319457E-01  0.21139808133E-01  0.64997000550E-01  0.51100000000E-03 0. -1.
</event>
<event>
 8    1  0.1086235E+005  0.1043930E+01  0.7957747E-01            NaN
         13   -1    0    0    0    0  0.00000000000E+00  0.00000000000E+00  0.74505805969E-08  0.10566000000E+00  0.10566000000E+00 0.  1.
     999900   -1    0    0    0    0 -0.00000000000E+00 -0.00000000000E+00 -0.74505805969E-08  0.93827000000E+00  0.93827000000E+00 0. -1.
     999902    2    1    2    0    0  0.11086947369E-02 -0.13122658318E-01 -0.19126042764E-01  0.10207084825E+01  0.10204442990E+01 0.  0.
     999903    2    3    3    0    0  0.41438058295E-02 -0.10631670276E+00 -0.78741749734E-01  0.13377648149E+00  0.19377085328E-01 0.  0.
         14    1    1    2    0    0 -0.11086947369E-02  0.13122658318E-01  0.19126042764E-01  0.23221517547E-01  0.00000000000E+00 0.  1.
     999901    1    3    3    0    0 -0.30351110926E-02  0.93194044441E-01  0.59615706970E-01  0.88693200097E+00  0.88000000000E+00 0.  1.
        -11    1    4    4    0    0 -0.50634099513E-02 -0.73948427492E-01 -0.59165368231E-01  0.94840971989E-01  0.51100000000E-03 0. -1.
         11    1    4    4    0    0  0.92072157808E-02 -0.32368275268E-01 -0.19576381503E-01  0.38935509499E-01  0.51100000000E-03 0.  1.
</event>
<event>
 8    1  0.1086235E+005  0.1043930E+01  0.7957747E-01            NaN
         13   -1    0    0    0    0  0.00000000000E+00  0.00000000000E+00  0.74505805969E-08  0.10566000000E+00  0.10566000000E+00 0. -1.
     999900   -1    0    0    0    0 -0.00000000000E+00 -0.00000000000E+00 -0.74505805969E-08  0.93827000000E+00  0.93827000000E+00 0. -1.
     999902    2    1    2    0    0 -0.23899770492E-01  0.41332526684E-02 -0.13080436630E-02  0.10196402123E+01  0.10193508566E+01 0.  0.
     999903    2    3    3    0    0 -0.11419730514E+00 -0.37849968781E-02  0.64230355605E-01  0.13255981844E+00  0.19779185524E-01 0.  0.
         14    1    1    2    0    0  0.23899770492E-01 -0.41332526684E-02  0.13080436630E-02  0.24289787677E-01  0.00000000000E+00 0.  1.
     999901    1    3    3    0    0  0.90297534649E-01  0.79182495465E-02 -0.65538399268E-01  0.88708039389E+00  0.88000000000E+00 0. -1.
        -11    1    4    4    0    0 -0.76999119981E-01  0.40289593150E-03  0.52986255053E-01  0.93471017693E-01  0.51100000000E-03 0.  1.
         11    1    4    4    0    0 -0.37198185159E-01 -0.41878928096E-02  0.11244100552E-01  0.39088800743E-01  0.51100000000E-03 0. -1.
</event>
<event>
 8    1  0.1086235E+005  0.1043930E+01  0.7957747E-01            NaN
         13   -1    0    0    0    0  0.00000000000E+00  0.00000000000E+00  0.74505805969E-08  0.10566000000E+00  0.10566000000E+00 0. -1.
     999900   -1    0    0    0    0 -0.00000000000E+00 -0.00000000000E+00 -0.74505805969E-08  0.93827000000E+00  0.93827000000E+00 0. -1.
     999902    2    1    2    0    0  0.34902305335E-02 -0.19020924396E-01  0.13108187331E-01  0.10205675975E+01  0.10203001614E+01 0.  0.
     999903    2    3    3    0    0  0.84470985533E-01 -0.80883864684E-01  0.60613629824E-01  0.13341390559E+00  0.21159185246E-01 0.  0.
         14    1    1    2    0    0 -0.34902305335E-02  0.19020924396E-01 -0.13108187331E-01  0.23362402470E-01  0.00000000000E+00 0. -1.
     999901    1    3    3    0    0 -0.80980755000E-01  0.61862940288E-01 -0.47505442493E-01  0.88715369194E+00  0.88000000000E+00 0. -1.
        -11    1    4    4    0    0  0.74539045152E-01 -0.60335600352E-01  0.51302377875E-01  0.10875959277E+00  0.51100000000E-03 0. -1.
         11    1    4    4    0    0  0.99319403814E-02 -0.20548264333E-01  0.93112519489E-02  0.24654312821E-01  0.51100000000E-03 0.  1.
</event>
<event>
 8    1  0.1086235E+005  0.1043930E+01  0.7957747E-01            NaN
         13   -1    0    0    0    0  0.00000000000E+00  0.00000000000E+00  0.74505805969E-08  0.10566000000E+00  0.10566000000E+00 0. -1.
     999900   -1    0    0    0    0 -0.00000000000E+00 -0.00000000000E+00 -0.74505805969E-08  0.93827000000E+00  0.93827000000E+00 0. -1.
     999902    2    1    2    0    0 -0.20377715151E-01 -0.11655764998E-01  0.20920215156E-02  0.10203612774E+01  0.10200890410E+01 0.  0.
     999903    2    3    3    0    0  0.19436810715E-01 -0.75787580201E-01  0.10359996898E+00  0.13131575008E+00  0.19731338608E-01 0.  0.
         14    1    1    2    0    0  0.20377715151E-01  0.11655764998E-01 -0.20920215156E-02  0.23568722632E-01  0.00000000000E+00 0.  1.
     999901    1    3    3    0    0 -0.39814525866E-01  0.64131815202E-01 -0.10150794746E+00  0.88904552729E+00  0.88000000000E+00 0. -1.
        -11    1    4    4    0    0  0.30951965156E-02 -0.47796821610E-01  0.67894053846E-01  0.83090192358E-01  0.51100000000E-03 0.  1.
         11    1    4    4    0    0  0.16341614199E-01 -0.27990758590E-01  0.35705915134E-01  0.48225557723E-01  0.51100000000E-03 0. -1.
</event>
<event>
 8    1  0.1086235E+005  0.1043930E+01  0.7957747E-01            NaN
         13   -1    0    0    0    0  0.00000000000E+00  0.00000000000E+00  0.74505805969E-08  0.10566000000E+00  0.10566000000E+00 0. -1.
     999900   -1    0    0    0    0 -0.00000000000E+00 -0.00000000000E+00 -0.74505805969E-08  0.93827000000E+00  0.93827000000E+00 0.  1.
     999902    2    1    2    0    0  0.17892480257E-01  0.16052220592E-01 -0.20167500585E-02  0.10198077713E+01  0.10195224414E+01 0.  0.
     999903    2    3    3    0    0 -0.86120922051E-01  0.83898443055E-01 -0.45086082102E-01  0.13004551930E+00  0.20574749768E-01 0.  0.
         14    1    1    2    0    0 -0.17892480257E-01 -0.16052220592E-01  0.20167500585E-02  0.24122228680E-01  0.00000000000E+00 0. -1.
     999901    1    3    3    0    0  0.10401340231E+00 -0.67846222462E-01  0.43069332043E-01  0.88976225202E+00  0.88000000000E+00 0.  1.
        -11    1    4    4    0    0 -0.73899186529E-01  0.73548987710E-01 -0.31169435478E-01  0.10882250774E+00  0.51100000000E-03 0.  1.
         11    1    4    4    0    0 -0.12221735522E-01  0.10349455345E-01 -0.13916646624E-01  0.21223011552E-01  0.51100000000E-03 0. -1.
</event>
<event>
 8    1  0.1086235E+005  0.1043930E+01  0.7957747E-01            NaN
         13   -1    0    0    0    0  0.00000000000E+00  0.00000000000E+00  0.74505805969E-08  0.10566000000E+00  0.10566000000E+00 0.  1.
     999900   -1    0    0    0    0 -0.00000000000E+00 -0.00000000000E+00 -0.74505805969E-08  0.93827000000E+00  0.93827000000E+00 0.  1.
     999902    2    1    2    0    0  0.10778359068E-01  0.38547304091E-02 -0.20353257221E-01  0.10205786178E+01  0.10203114368E+01 0.  0.
     999903    2    3    3    0    0  0.48180119761E-02  0.11735789235E+00 -0.58020378022E-01  0.13246978129E+00  0.19641551708E-01 0.  0.
         14    1    1    2    0    0 -0.10778359068E-01 -0.38547304091E-02  0.20353257221E-01  0.23351382191E-01  0.00000000000E+00 0.  1.
     999901    1    3    3    0    0  0.59603470917E-02 -0.11350316194E+00  0.37667120801E-01  0.88810883652E+00  0.88000000000E+00 0.  1.
        -11    1    4    4    0    0  0.38906252422E-02  0.46642770108E-01 -0.33718819251E-01  0.57687995812E-01  0.51100000000E-03 0. -1.
         11    1    4    4    0    0  0.92738673390E-03  0.70715122244E-01 -0.24301558771E-01  0.74781785481E-01  0.51100000000E-03 0.  1.
</event>
<event>
 8    1  0.1086235E+005  0.1043930E+01  0.7957747E-01            NaN
         13   -1    0    0    0    0  0.00000000000E+00  0.00000000000E+00  0.74505805969E-08  0.10566000000E+00  0.10566000000E+00 0. -1.
     999900   -1    0    0    0    0 -0.00000000000E+00 -0.00000000000E+00 -0.74505805969E-08  0.93827000000E+00  0.93827000000E+00 0. -1.
     999902    2    1    2    0    0  0.10870731750E-01  0.15386943771E-01 -0.12244296933E-01  0.10214610513E+01  0.10212138981E+01 0.  0.
     999903    2    3    3    0    0 -0.50124604122E-02 -0.23102104533E-01  0.12600583217E+00  0.12969494923E+00  0.19608113703E-01 0.  0.
         14    1    1    2    0    0 -0.10870731750E-01 -0.15386943771E-01  0.12244296933E-01  0.22468948680E-01  0.00000000000E+00 0. -1.
     999901    1    3    3    0    0  0.15883192162E-01  0.38489048304E-01 -0.13825012910E+00  0.89176610209E+00  0.88000000000E+00 0. -1.
        -11    1    4    4    0    0  0.75872763136E-02 -0.92694390246E-02  0.47960501501E-01  0.49436424698E-01  0.51100000000E-03 0.  1.
         11    1    4    4    0    0 -0.12599736726E-01 -0.13832665508E-01  0.78045330668E-01  0.80258524536E-01  0.51100000000E-03 0. -1.
</event>
<event>
 8    1  0.1086235E+005  0.1043930E+01  0.7957747E-01            NaN
         13   -1    0    0    0    0  0.00000000000E+00  0.00000000000E+00  0.74505805969E-08  0.10566000000E+00  0.10566000000E+00 0.  1.
     999900   -1    0    0    0    0 -0.00000000000E+00 -0.00000000000E+00 -0.74505805969E-08  0.93827000000E+00  0.93827000000E+00 0.  1.
     999902    2    1    2    0    0 -0.13540695388E-01 -0.18956444378E-01 -0.35542474374E-02  0.10203645615E+01  0.10200924020E+01 0.  0.
     999903    2    3    3    0    0  0.10229960541E+00  0.60505503349E-01  0.43245501919E-01  0.12799502319E+00  0.19657754794E-01 0.  0.
         14    1    1    2    0    0  0.13540695388E-01  0.18956444378E-01  0.35542474374E-02  0.23565438461E-01  0.00000000000E+00 0.  1.
     999901    1    3    3    0    0 -0.11584030080E+00 -0.79461947727E-01 -0.46799749356E-01  0.89236953834E+00  0.88000000000E+00 0.  1.
        -11    1    4    4    0    0  0.68257616753E-01  0.30229616347E-01  0.30863332133E-01  0.80782042191E-01  0.51100000000E-03 0.  1.
         11    1    4    4    0    0  0.34041988658E-01  0.30275887003E-01  0.12382169786E-01  0.47212981003E-01  0.51100000000E-03 0. -1.
</event>
<event>
 8    1  0.1086235E+005  0.1043930E+01  0.7957747E-01            NaN
         13   -1    0    0    0    0  0.00000000000E+00  0.00000000000E+00  0.74505805969E-08  0.10566000000E+00  0.10566000000E+00 0.  1.
     999900   -1    0    0    0    0 -0.00000000000E+00 -0.00000000000E+00 -0.74505805969E-08  0.93827000000E+00  0.93827000000E+00 0. -1.
     999902    2    1    2    0    0  0.17145677095E-01 -0.80303176074E-02  0.14165172022E-01  0.10202844435E+01  0.10200104084E+01 0.  0.
     999903    2    3    3    0    0 -0.10043425320E-01  0.11257811905E+00  0.58390502470E-01  0.13054205261E+00  0.29275816663E-01 0.  0.
         14    1    1    2    0    0 -0.17145677095E-01  0.80303176074E-02 -0.14165172022E-01  0.23645556503E-01  0.00000000000E+00 0. -1.
     999901    1    3    3    0    0  0.27189102415E-01 -0.12060843666E+00 -0.44225330448E-01  0.88974239088E+00  0.88000000000E+00 0.  1.
        -11    1    4    4    0    0  0.69264761507E-02  0.72033671069E-01  0.41714131270E-01  0.83529370333E-01  0.51100000000E-03 0.  1.
         11    1    4    4    0    0 -0.16969901471E-01  0.40544447978E-01  0.16676371200E-01  0.47012682280E-01  0.51100000000E-03 0. -1.
</event>
<event>
 8    1  0.1086235E+005  0.1043930E+01  0.7957747E-01            NaN
         13   -1    0    0    0    0  0.00000000000E+00  0.00000000000E+00  0.74505805969E-08  0.10566000000E+00  0.10566000000E+00 0. -1.
     999900   -1    0    0    0    0 -0.00000000000E+00 -0.00000000000E+00 -0.74505805969E-08  0.93827000000E+00  0.93827000000E+00 0.  1.
     999902    2    1    2    0    0 -0.20039552883E-01 -0.92205102066E-02 -0.96798886456E-02  0.10198405473E+01  0.10195560015E+01 0.  0.
     999903    2    3    3    0    0 -0.46398507306E-01 -0.10178519518E+00 -0.68503088104E-01  0.13264091688E+00  0.19694981917E-01 0.  0.
         14    1    1    2    0    0  0.20039552883E-01  0.92205102066E-02  0.96798886456E-02  0.24089452721E-01  0.00000000000E+00 0. -1.
     999901    1    3    3    0    0  0.26358954423E-01  0.92564684977E-01  0.58823199458E-01  0.88719963040E+00  0.88000000000E+00 0. -1.
        -11    1    4    4    0    0 -0.23046361474E-01 -0.30604295333E-01 -0.18307861677E-01  0.42464062338E-01  0.51100000000E-03 0.  1.
         11    1    4    4    0    0 -0.23352145832E-01 -0.71180899850E-01 -0.50195226426E-01  0.90176854544E-01  0.51100000000E-03 0. -1.
</event>
<event>
 8    1  0.1086235E+005  0.1043930E+01  0.7957747E-01            NaN
         13   -1    0    0    0    0  0.00000000000E+00  0.00000000000E+00  0.74505805969E-08  0.10566000000E+00  0.10566000000E+00 0. -1.
     999900   -1    0    0    0    0 -0.00000000000E+00 -0.00000000000E+00 -0.74505805969E-08  0.93827000000E+00  0.93827000000E+00 0.  1.
     999902    2    1    2    0    0  0.26716900388E-02 -0.19287203878E-01  0.13435903709E-01  0.10202729150E+01  0.10199986095E+01 0.  0.
     999903    2    3    3    0    0  0.12766123006E+00 -0.28695049876E-02 -0.19656519811E-01  0.13067354764E+00  0.19585034142E-01 0.  0.
         14    1    1    2    0    0 -0.26716900388E-02  0.19287203878E-01 -0.13435903709E-01  0.23657084976E-01  0.00000000000E+00 0.  1.
     999901    1    3    3    0    0 -0.12498954002E+00 -0.16417698890E-01  0.33092423521E-01  0.88959936738E+00  0.88000000000E+00 0.  1.
        -11    1    4    4    0    0  0.48067298483E-01  0.79835350212E-02 -0.46275045516E-02  0.48947695904E-01  0.51100000000E-03 0. -1.
         11    1    4    4    0    0  0.79593931579E-01 -0.10853040009E-01 -0.15029015260E-01  0.81725851738E-01  0.51100000000E-03 0.  1.
</event>
<event>
 8    1  0.1086235E+005  0.1043930E+01  0.7957747E-01            NaN
         13   -1    0    0    0    0  0.00000000000E+00  0.00000000000E+00  0.74505805969E-08  0.10566000000E+00  0.10566000000E+00 0. -1.
     999900   -1    0    0    0    0 -0.00000000000E+00 -0.00000000000E+00 -0.74505805969E-08  0.93827000000E+00  0.93827000000E+00 0. -1.
     999902    2    1    2    0    0 -0.28495273947E-02  0.10182658938E-01  0.21379950206E-01  0.10200781946E+01  0.10197993011E+01 0.  0.
     999903    2    3    3    0    0  0.12817346689E+00  0.13184490016E-01  0.96862200929E-02  0.13029576090E+00  0.16759894343E-01 0.  0.
         14    1    1    2    0    0  0.28495273947E-02 -0.10182658938E-01 -0.21379950206E-01  0.23851805388E-01  0.00000000000E+00 0.  1.
     999901    1    3    3    0    0 -0.13102299428E+00 -0.30018310780E-02  0.11693730113E-01  0.88978243371E+00  0.88000000000E+00 0.  1.
        -11    1    4    4    0    0  0.70592112892E-01  0.16777403406E-02  0.11507881069E-01  0.71545465705E-01  0.51100000000E-03 0. -1.
         11    1    4    4    0    0  0.57581353993E-01  0.11506749675E-01 -0.18216609765E-02  0.58750295195E-01  0.51100000000E-03 0.  1.
</event>
<event>
 8    1  0.1086235E+005  0.1043930E+01  0.7957747E-01            NaN
         13   -1    0    0    0    0  0.00000000000E+00  0.00000000000E+00  0.74505805969E-08  0.10566000000E+00  0.10566000000E+00 0. -1.
     999900   -1    0    0    0    0 -0.00000000000E+00 -0.00000000000E+00 -0.74505805969E-08  0.93827000000E+00  0.93827000000E+00 0.  1.
     999902    2    1    2    0    0 -0.19259264603E-01 -0.11393693286E-01 -0.76484725482E-02  0.10202818573E+01  0.10200077616E+01 0.  0.
     999903    2    3    3    0    0  0.52209297546E-02  0.50903335049E-01 -0.11891731309E+00  0.13075335608E+00  0.18349527108E-01 0.  0.
         14    1    1    2    0    0  0.19259264603E-01  0.11393693286E-01  0.76484725482E-02  0.23648142677E-01  0.00000000000E+00 0.  1.
     999901    1    3    3    0    0 -0.24480194358E-01 -0.62297028334E-01  0.11126884055E+00  0.88952850125E+00  0.88000000000E+00 0. -1.
        -11    1    4    4    0    0  0.36861090097E-02  0.37809322421E-01 -0.10459071676E+00  0.11127718282E+00  0.51100000000E-03 0.  1.
         11    1    4    4    0    0  0.15348207449E-02  0.13094012627E-01 -0.14326596331E-01  0.19476173260E-01  0.51100000000E-03 0. -1.
</event>
<event>
 8    1  0.1086235E+005  0.1043930E+01  0.7957747E-01            NaN
         13   -1    0    0    0    0  0.00000000000E+00  0.00000000000E+00  0.74505805969E-08  0.10566000000E+00  0.10566000000E+00 0.  1.
     999900   -1    0    0    0    0 -0.00000000000E+00 -0.00000000000E+00 -0.74505805969E-08  0.93827000000E+00  0.93827000000E+00 0. -1.
     999902    2    1    2    0    0 -0.21280595952E-01  0.12585906692E-02 -0.78961546420E-02  0.10211968288E+01  0.10209437624E+01 0.  0.
     999903    2    3    3    0    0  0.11485044737E+00  0.18846678297E-01 -0.50047392853E-01  0.12955916211E+00  0.27111112337E-01 0.  0.
         14    1    1    2    0    0  0.21280595952E-01 -0.12585906692E-02  0.78961546420E-02  0.22733171197E-01  0.00000000000E+00 0.  1.
     999901    1    3    3    0    0 -0.13613104332E+00 -0.17588087628E-01  0.42151238211E-01  0.89163766669E+00  0.88000000000E+00 0.  1.
        -11    1    4    4    0    0  0.42127848319E-01  0.20136262544E-01 -0.17395902641E-01  0.49830745759E-01  0.51100000000E-03 0. -1.
         11    1    4    4    0    0  0.72722599048E-01 -0.12895842467E-02 -0.32651490212E-01  0.79728416352E-01  0.51100000000E-03 0.  1.
</event>
<event>
 8    1  0.1086235E+005  0.1043930E+01  0.7957747E-01            NaN
         13   -1    0    0    0    0  0.00000000000E+00  0.00000000000E+00  0.74505805969E-08  0.10566000000E+00  0.10566000000E+00 0. -1.
     999900   -1    0    0    0    0 -0.00000000000E+00 -0.00000000000E+00 -0.74505805969E-08  0.93827000000E+00  0.93827000000E+00 0.  1.
     999902    2    1    2    0    0  0.17393546404E-01 -0.90744913364E-02 -0.10964848720E-01  0.10214553530E+01  0.10212080730E+01 0.  0.
     999903    2    3    3    0    0 -0.10713351354E+00 -0.68109452415E-02 -0.71814586187E-01  0.13060474666E+00  0.19398102053E-01 0.  0.
         14    1    1    2    0    0 -0.17393546404E-01  0.90744913364E-02  0.10964848720E-01  0.22474646983E-01  0.00000000000E+00 0. -1.
     999901    1    3    3    0    0  0.12452705994E+00 -0.22635460948E-02  0.60849737466E-01  0.89085060636E+00  0.88000000000E+00 0. -1.
        -11    1    4    4    0    0 -0.42202856194E-01  0.52468903784E-02 -0.34392214292E-01  0.54696402574E-01  0.51100000000E-03 0.  1.
         11    1    4    4    0    0 -0.64930657342E-01 -0.12057835620E-01 -0.37422371894E-01  0.75908344086E-01  0.51100000000E-03 0. -1.
</event>
<event>
 8    1  0.1086235E+005  0.1043930E+01  0.7957747E-01            NaN
         13   -1    0    0    0    0  0.00000000000E+00  0.00000000000E+00  0.74505805969E-08  0.10566000000E+00  0.10566000000E+00 0. -1.
     999900   -1    0    0    0    0 -0.00000000000E+00 -0.00000000000E+00 -0.74505805969E-08  0.93827000000E+00  0.93827000000E+00 0. -1.
     999902    2    1    2    0    0  0.23210148593E-01  0.36708894588E-02  0.25732485065E-02  0.10202908791E+01  0.10200169950E+01 0.  0.
     999903    2    3    3    0    0 -0.11497182433E+00 -0.39733107987E-01  0.33305054094E-01  0.12792178033E+00  0.21389600138E-01 0.  0.
         14    1    1    2    0    0 -0.23210148593E-01 -0.36708894588E-02 -0.25732485065E-02  0.23639120859E-01  0.00000000000E+00 0. -1.
     999901    1    3    3    0    0  0.13818197293E+00  0.43403997446E-01 -0.30731805587E-01  0.89236909881E+00  0.88000000000E+00 0. -1.
        -11    1    4    4    0    0 -0.47893888450E-01 -0.57985957497E-02  0.15392771805E-01  0.50642342050E-01  0.51100000000E-03 0.  1.
         11    1    4    4    0    0 -0.67077935883E-01 -0.33934512238E-01  0.17912282289E-01  0.77279438281E-01  0.51100000000E-03 0. -1.
</event>
<event>
 8    1  0.1086235E+005  0.1043930E+01  0.7957747E-01            NaN
         13   -1    0    0    0    0  0.00000000000E+00  0.00000000000E+00  0.74505805969E-08  0.10566000000E+00  0.10566000000E+00 0. -1.
     999900   -1    0    0    0    0 -0.00000000000E+00 -0.00000000000E+00 -0.74505805969E-08  0.93827000000E+00  0.93827000000E+00 0. -1.
     999902    2    1    2    0    0 -0.62113733015E-02 -0.12090178062E-01  0.17688973163E-01  0.10216218550E+01  0.10213782655E+01 0.  0.
     999903    2    3    3    0    0  0.63350960906E-01  0.98324714765E-01 -0.51361703293E-01  0.12932237450E+00  0.20128541916E-01 0.  0.
         14    1    1    2    0    0  0.62113733015E-02  0.12090178062E-01 -0.17688973163E-01  0.22308145047E-01  0.00000000000E+00 0.  1.
     999901    1    3    3    0    0 -0.69562334208E-01 -0.11041489283E+00  0.69050676456E-01  0.89229948045E+00  0.88000000000E+00 0.  1.
        -11    1    4    4    0    0  0.27029401559E-01  0.57589425801E-01 -0.21792537060E-01  0.67248095180E-01  0.51100000000E-03 0.  1.
         11    1    4    4    0    0  0.36321559347E-01  0.40735288964E-01 -0.29569166234E-01  0.62074279320E-01  0.51100000000E-03 0. -1.
</event>
<event>
 8    1  0.1086235E+005  0.1043930E+01  0.7957747E-01            NaN
         13   -1    0    0    0    0  0.00000000000E+00  0.00000000000E+00  0.74505805969E-08  0.10566000000E+00  0.10566000000E+00 0.  1.
     999900   -1    0    0    0    0 -0.00000000000E+00 -0.00000000000E+00 -0.74505805969E-08  0.93827000000E+00  0.93827000000E+00 0.  1.
     999902    2    1    2    0    0 -0.29247920450E-02 -0.14140507781E-02  0.23558320924E-01  0.10201487378E+01  0.10198715109E+01 0.  0.
     999903    2    3    3    0    0  0.53599312630E-01 -0.11468128075E+00 -0.21248327368E-01  0.12996219804E+00  0.20346966238E-01 0.  0.
         14    1    1    2    0    0  0.29247920450E-02  0.14140507781E-02 -0.23558320924E-01  0.23781262222E-01  0.00000000000E+00 0. -1.
     999901    1    3    3    0    0 -0.56524104675E-01  0.11326722997E+00  0.44806648292E-01  0.89018653974E+00  0.88000000000E+00 0.  1.
        -11    1    4    4    0    0  0.38179233976E-01 -0.91833643032E-01 -0.92143278755E-02  0.99881113624E-01  0.51100000000E-03 0.  1.
         11    1    4    4    0    0  0.15420078654E-01 -0.22847637719E-01 -0.12033999492E-01  0.30081084419E-01  0.51100000000E-03 0. -1.
</event>
<event>
 8    1  0.1086235E+005  0.1043930E+01  0.7957747E-01            NaN
         13   -1    0    0    0    0  0.00000000000E+00  0.00000000000E+00  0.74505805969E-08  0.10566000000E+00  0.10566000000E+00 0. -1.
     999900   -1    0    0    0    0 -0.00000000000E+00 -0.00000000000E+00 -0.74505805969E-08  0.93827000000E+00  0.93827000000E+00 0.  1.
     999902    2    1    2    0    0  0.57358323561E-02 -0.22992465189E-01  0.47142745674E-02  0.10197685097E+01  0.10194822391E+01 0.  0.
     999903    2    3    3    0    0 -0.10001591796E+00  0.12426027597E-01 -0.77682047281E-01  0.12891102606E+00  0.20638850814E-01 0.  0.
         14    1    1    2    0    0 -0.57358323561E-02  0.22992465189E-01 -0.47142745674E-02  0.24161490289E-01  0.00000000000E+00 0. -1.
     999901    1    3    3    0    0  0.10575175031E+00 -0.35418492786E-01  0.82396321848E-01  0.89085748365E+00  0.88000000000E+00 0. -1.
        -11    1    4    4    0    0 -0.84925412775E-01  0.17935506711E-01 -0.65918281033E-01  0.10899306873E+00  0.51100000000E-03 0. -1.
         11    1    4    4    0    0 -0.15090505182E-01 -0.55094791138E-02 -0.11763766248E-01  0.19917957328E-01  0.51100000000E-03 0.  1.
</event>
<event>
 8    1  0.1086235E+005  0.1043930E+01  0.7957747E-01            NaN
         13   -1    0    0    0    0  0.00000000000E+00  0.00000000000E+00  0.74505805969E-08  0.10566000000E+00  0.10566000000E+00 0. -1.
     999900   -1    0    0    0    0 -0.00000000000E+00 -0.00000000000E+00 -0.74505805969E-08  0.93827000000E+00  0.93827000000E+00 0. -1.
     999902    2    1    2    0    0 -0.18808003890E-01  0.93112914272E-02  0.74811712123E-03  0.10229299801E+01  0.10227143997E+01 0.  0.
     999903    2    3    3    0    0 -0.12639789228E+00  0.45893510956E-01  0.32768698396E-02  0.13561930309E+00  0.17297860412E-01 0.  0.
         14    1    1    2    0    0  0.18808003890E-01 -0.93112914272E-02 -0.74811712123E-03  0.21000019943E-01  0.00000000000E+00 0.  1.
     999901    1    3    3    0    0  0.10758988839E+00 -0.36582219529E-01 -0.25287527184E-02  0.88731067697E+00  0.88000000000E+00 0.  1.
        -11    1    4    4    0    0 -0.11571846466E+00  0.38020300768E-01  0.64202677834E-02  0.12197453543E+00  0.51100000000E-03 0. -1.
         11    1    4    4    0    0 -0.10679427618E-01  0.78732101887E-02 -0.31433979438E-02  0.13644767662E-01  0.51100000000E-03 0.  1.
</event>
<event>
 8    1  0.1086235E+005  0.1043930E+01  0.7957747E-01            NaN
         13   -1    0    0    0    0  0.00000000000E+00  0.00000000000E+00  0.74505805969E-08  0.10566000000E+00  0.10566000000E+00 0.  1.
     999900   -1    0    0    0    0 -0.00000000000E+00 -0.00000000000E+00 -0.74505805969E-08  0.93827000000E+00  0.93827000000E+00 0.  1.
     999902    2    1    2    0    0  0.10749713204E-01 -0.17158829884E-01  0.14686798100E-01  0.10189163274E+01  0.10186092472E+01 0.  0.
     999903    2    3    3    0    0  0.11400189717E+00  0.54181883097E-01  0.23025328809E-01  0.12997311107E+00  0.20754151896E-01 0.  0.
         14    1    1    2    0    0 -0.10749713204E-01  0.17158829884E-01 -0.14686798100E-01  0.25013672569E-01  0.00000000000E+00 0. -1.
     999901    1    3    3    0    0 -0.10325218396E+00 -0.71340712981E-01 -0.83385307087E-02  0.88894321636E+00  0.88000000000E+00 0.  1.
        -11    1    4    4    0    0  0.86878752713E-01  0.45604546906E-01  0.25595687908E-01  0.10140558531E+00  0.51100000000E-03 0.  1.
         11    1    4    4    0    0  0.27123144452E-01  0.85773361910E-02 -0.25703590990E-02  0.28567525760E-01  0.51100000000E-03 0. -1.
</event>
<event>
 8    1  0.1086235E+005  0.1043930E+01  0.7957747E-01            NaN
         13   -1    0    0    0    0  0.00000000000E+00  0.00000000000E+00  0.74505805969E-08  0.10566000000E+00  0.10566000000E+00 0.  1.
     999900   -1    0    0    0    0 -0.00000000000E+00 -0.00000000000E+00 -0.74505805969E-08  0.93827000000E+00  0.93827000000E+00 0.  1.
     999902    2    1    2    0    0  0.79712738335E-02 -0.20469690827E-01  0.10335245712E-01  0.10196531231E+01  0.10193640786E+01 0.  0.
     999903    2    3    3    0    0  0.12540041727E+00  0.49592477186E-02  0.32820955863E-01  0.13120400140E+00  0.19682887293E-01 0.  0.
         14    1    1    2    0    0 -0.79712738335E-02  0.20469690827E-01 -0.10335245712E-01  0.24276876921E-01  0.00000000000E+00 0.  1.
     999901    1    3    3    0    0 -0.11742914343E+00 -0.25428938546E-01 -0.22485710151E-01  0.88844912167E+00  0.88000000000E+00 0.  1.
        -11    1    4    4    0    0  0.84601040771E-01  0.60898349785E-02  0.12944419826E-01  0.85803504096E-01  0.51100000000E-03 0.  1.
         11    1    4    4    0    0  0.40799376496E-01 -0.11305872599E-02  0.19876536037E-01  0.45400497308E-01  0.51100000000E-03 0. -1.
</event>
<event>
 8    1  0.1086235E+005  0.1043930E+01  0.7957747E-01            NaN
         13   -1    0    0    0    0  0.00000000000E+00  0.00000000000E+00  0.74505805969E-08  0.10566000000E+00  0.10566000000E+00 0. -1.
     999900   -1    0    0    0    0 -0.00000000000E+00 -0.00000000000E+00 -0.74505805969E-08  0.93827000000E+00  0.93827000000E+00 0. -1.
     999902    2    1    2    0    0 -0.19559065981E-01  0.13266373871E-01  0.35156794930E-02  0.10200361987E+01  0.10197563106E+01 0.  0.
     999903    2    3    3    0    0 -0.64984762477E-01  0.10227325493E+00  0.51413895639E-01  0.13308639298E+00  0.19640807106E-01 0.  0.
         14    1    1    2    0    0  0.19559065981E-01 -0.13266373871E-01 -0.35156794930E-02  0.23893801289E-01  0.00000000000E+00 0.  1.
     999901    1    3    3    0    0  0.45425696496E-01 -0.89006881057E-01 -0.47898216146E-01  0.88694980573E+00  0.88000000000E+00 0. -1.
        -11    1    4    4    0    0 -0.26331162770E-01  0.50983080549E-01  0.33337603631E-01  0.66364610840E-01  0.51100000000E-03 0. -1.
         11    1    4    4    0    0 -0.38653599706E-01  0.51290174379E-01  0.18076292009E-01  0.66721782140E-01  0.51100000000E-03 0.  1.
</event>
<event>
 8    1  0.1086235E+005  0.1043930E+01  0.7957747E-01            NaN
         13   -1    0    0    0    0  0.00000000000E+00  0.00000000000E+00  0.74505805969E-08  0.10566000000E+00  0.10566000000E+00 0.  1.
     999900   -1    0    0    0    0 -0.00000000000E+00 -0.00000000000E+00 -0.74505805969E-08  0.93827000000E+00  0.93827000000E+00 0. -1.
     999902    2    1    2    0    0  0.51930946217E-02  0.84973564734E-02  0.21190337756E-01  0.10205162495E+01  0.10202476228E+01 0.  0.
     999903    2    3    3    0    0 -0.97917415978E-01  0.83217106323E-01 -0.12743452849E-01  0.13070372960E+00  0.20203024607E-01 0.  0.
         14    1    1    2    0    0 -0.51930946217E-02 -0.84973564734E-02 -0.21190337756E-01  0.23413750511E-01  0.00000000000E+00 0. -1.
     999901    1    3    3    0    0  0.10311051060E+00 -0.74719749849E-01  0.33933790604E-01  0.88981251989E+00  0.88000000000E+00 0. -1.
        -11    1    4    4    0    0 -0.19335209818E-01  0.27315717380E-01 -0.35000078170E-03  0.33472113412E-01  0.51100000000E-03 0.  1.
         11    1    4    4    0    0 -0.78582206160E-01  0.55901388942E-01 -0.12393452067E-01  0.97231616184E-01  0.51100000000E-03 0. -1.
</event>
<event>
 8    1  0.1086235E+005  0.1043930E+01  0.7957747E-01            NaN
         13   -1    0    0    0    0  0.00000000000E+00  0.00000000000E+00  0.74505805969E-08  0.10566000000E+00  0.10566000000E+00 0. -1.
     999900   -1    0    0    0    0 -0.00000000000E+00 -0.00000000000E+00 -0.74505805969E-08  0.93827000000E+00  0.93827000000E+00 0.  1.
     999902    2    1    2    0    0  0.67342091482E-02 -0.22130717457E-01 -0.29469220199E-02  0.10206104250E+01  0.10203439798E+01 0.  0.
     999903    2    3    3    0    0  0.52680218757E-01 -0.10440562897E+00  0.60603128147E-01  0.13330055482E+00  0.20507510009E-01 0.  0.
         14    1    1    2    0    0 -0.67342091482E-02  0.22130717457E-01  0.29469220199E-02  0.23319574984E-01  0.00000000000E+00 0. -1.
     999901    1    3    3    0    0 -0.45946009609E-01  0.82274911511E-01 -0.63550050167E-01  0.88730987019E+00  0.88000000000E+00 0. -1.
        -11    1    4    4    0    0  0.41012404016E-01 -0.85453745594E-01  0.57393223856E-01  0.11080885878E+00  0.51100000000E-03 0.  1.
         11    1    4    4    0    0  0.11667814742E-01 -0.18951883375E-01  0.32099042910E-02  0.22491696042E-01  0.51100000000E-03 0. -1.
</event>
<event>
 8    1  0.1086235E+005  0.1043930E+01  0.7957747E-01            NaN
         13   -1    0    0    0    0  0.00000000000E+00  0.00000000000E+00  0.74505805969E-08  0.10566000000E+00  0.10566000000E+00 0. -1.
     999900   -1    0    0    0    0 -0.00000000000E+00 -0.00000000000E+00 -0.74505805969E-08  0.93827000000E+00  0.93827000000E+00 0. -1.
     999902    2    1    2    0    0  0.16845535730E-01  0.48751612389E-02 -0.19826445343E-01  0.10174606365E+01  0.10171162763E+01 0.  0.
     999903    2    3    3    0    0  0.66814814721E-01  0.63896520877E-01 -0.90884414542E-01  0.13121592719E+00  0.20264695752E-01 0.  0.
         14    1    1    2    0    0 -0.16845535730E-01 -0.48751612389E-02  0.19826445343E-01  0.26469363537E-01  0.00000000000E+00 0. -1.
     999901    1    3    3    0    0 -0.49969278991E-01 -0.59021359638E-01  0.71057969200E-01  0.88624470928E+00  0.88000000000E+00 0.  1.
        -11    1    4    4    0    0  0.35213602223E-01  0.23754488278E-01 -0.51170001978E-01  0.66504914993E-01  0.51100000000E-03 0. -1.
         11    1    4    4    0    0  0.31601212498E-01  0.40142032599E-01 -0.39714412565E-01  0.64711012192E-01  0.51100000000E-03 0.  1.
</event>
<event>
 8    1  0.1086235E+005  0.1043930E+01  0.7957747E-01            NaN
         13   -1    0    0    0    0  0.00000000000E+00  0.00000000000E+00  0.74505805969E-08  0.10566000000E+00  0.10566000000E+00 0. -1.
     999900   -1    0    0    0    0 -0.00000000000E+00 -0.00000000000E+00 -0.74505805969E-08  0.93827000000E+00  0.93827000000E+00 0.  1.
     999902    2    1    2    0    0  0.12994124361E-01 -0.17357663027E-01  0.10170863430E-01  0.10199804239E+01  0.10196992120E+01 0.  0.
     999903    2    3    3    0    0 -0.11203967094E+00  0.58023238133E-01  0.55520277001E-02  0.12793946973E+00  0.20447466247E-01 0.  0.
         14    1    1    2    0    0 -0.12994124361E-01  0.17357663027E-01 -0.10170863430E-01  0.23949576126E-01  0.00000000000E+00 0.  1.
     999901    1    3    3    0    0  0.12503379530E+00 -0.75380901160E-01  0.46188357296E-02  0.89204095414E+00  0.88000000000E+00 0.  1.
        -11    1    4    4    0    0 -0.56018201537E-01  0.37630150357E-01  0.96812749899E-02  0.68176647951E-01  0.51100000000E-03 0.  1.
         11    1    4    4    0    0 -0.56021469401E-01  0.20393087776E-01 -0.41292472898E-02  0.59762821779E-01  0.51100000000E-03 0. -1.
</event>
<event>
 8    1  0.1086235E+005  0.1043930E+01  0.7957747E-01            NaN
         13   -1    0    0    0    0  0.00000000000E+00  0.00000000000E+00  0.74505805969E-08  0.10566000000E+00  0.10566000000E+00 0.  1.
     999900   -1    0    0    0    0 -0.00000000000E+00 -0.00000000000E+00 -0.74505805969E-08  0.93827000000E+00  0.93827000000E+00 0. -1.
     999902    2    1    2    0    0 -0.21215014633E-01 -0.69834965317E-02  0.73465858702E-02  0.10204179096E+01  0.10201469952E+01 0.  0.
     999903    2    3    3    0    0  0.45691492149E-02 -0.81380665070E-01 -0.99880984197E-01  0.13041930650E+00  0.19730553255E-01 0.  0.
         14    1    1    2    0    0  0.21215014633E-01  0.69834965317E-02 -0.73465858702E-02  0.23512090371E-01  0.00000000000E+00 0. -1.
     999901    1    3    3    0    0 -0.25784163847E-01  0.74397168538E-01  0.10722757007E+00  0.88999860313E+00  0.88000000000E+00 0. -1.
        -11    1    4    4    0    0 -0.47476216227E-02 -0.59478372394E-01 -0.65548331391E-01  0.88640067480E-01  0.51100000000E-03 0.  1.
         11    1    4    4    0    0  0.93167708376E-02 -0.21902292676E-01 -0.34332652806E-01  0.41779239019E-01  0.51100000000E-03 0. -1.
</event>
<event>
 8    1  0.1086235E+005  0.1043930E+01  0.7957747E-01            NaN
         13   -1    0    0    0    0  0.00000000000E+00  0.00000000000E+00  0.74505805969E-08  0.10566000000E+00  0.10566000000E+00 0.  1.
     999900   -1    0    0    0    0 -0.00000000000E+00 -0.00000000000E+00 -0.74505805969E-08  0.93827000000E+00  0.93827000000E+00 0. -1.
     999902    2    1    2    0    0 -0.26955231469E-02  0.17795667354E-01 -0.14068594128E-01  0.10210853734E+01  0.10208297913E+01 0.  0.
     999903    2    3    3    0    0  0.76245314741E-01 -0.73345636945E-01  0.70902118873E-01  0.12880827786E+00  0.19275152567E-01 0.  0.
         14    1    1    2    0    0  0.26955231469E-02 -0.17795667354E-01  0.14068594128E-01  0.22844626553E-01  0.00000000000E+00 0. -1.
     999901    1    3    3    0    0 -0.78940837887E-01  0.91141304299E-01 -0.84970713001E-01  0.89227709558E+00  0.88000000000E+00 0. -1.
        -11    1    4    4    0    0  0.11283155451E-01 -0.12767988848E-01  0.20563303398E-01  0.26710329534E-01  0.51100000000E-03 0.  1.
         11    1    4    4    0    0  0.64962159290E-01 -0.60577648097E-01  0.50338815475E-01  0.10209794833E+00  0.51100000000E-03 0. -1.
</event>
<event>
 8    1  0.1086235E+005  0.1043930E+01  0.7957747E-01            NaN
         13   -1    0    0    0    0  0.00000000000E+00  0.00000000000E+00  0.74505805969E-08  0.10566000000E+00  0.10566000000E+00 0. -1.
     999900   -1    0    0    0    0 -0.00000000000E+00 -0.00000000000E+00 -0.74505805969E-08  0.93827000000E+00  0.93827000000E+00 0. -1.
     999902    2    1    2    0    0 -0.23448173821E-01  0.57968494737E-03 -0.68145068043E-03  0.10204647648E+01  0.10201949416E+01 0.  0.
     999903    2    3    3    0    0  0.42810974436E-01 -0.12053434456E+00  0.17710919443E-02  0.12969829826E+00  0.21382330407E-01 0.  0.
         14    1    1    2    0    0  0.23448173821E-01 -0.57968494737E-03  0.68145068043E-03  0.23465235247E-01  0.00000000000E+00 0.  1.
     999901    1    3    3    0    0 -0.66259148257E-01  0.12111402950E+00 -0.24525426248E-02  0.89076646650E+00  0.88000000000E+00 0. -1.
        -11    1    4    4    0    0  0.12113423723E-01 -0.64770910132E-01  0.38447011719E-02  0.66007944080E-01  0.51100000000E-03 0. -1.
         11    1    4    4    0    0  0.30697550714E-01 -0.55763434425E-01 -0.20736092276E-02  0.63690354175E-01  0.51100000000E-03 0.  1.
</event>
<event>
 8    1  0.1086235E+005  0.1043930E+01  0.7957747E-01            NaN
         13   -1    0    0    0    0  0.00000000000E+00  0.00000000000E+00  0.74505805969E-08  0.10566000000E+00  0.10566000000E+00 0. -1.
     999900   -1    0    0    0    0 -0.00000000000E+00 -0.00000000000E+00 -0.74505805969E-08  0.93827000000E+00  0.93827000000E+00 0.  1.
     999902    2    1    2    0    0 -0.12644250068E-01 -0.19994627518E-01 -0.33800942755E-03  0.10202704049E+01  0.10199960405E+01 0.  0.
     999903    2    3    3    0    0  0.93875191769E-01  0.75767870422E-01 -0.36829474618E-01  0.12794284480E+00  0.21439205146E-01 0.  0.
         14    1    1    2    0    0  0.12644250068E-01  0.19994627518E-01  0.33800942755E-03  0.23659595088E-01  0.00000000000E+00 0. -1.
     999901    1    3    3    0    0 -0.10651944184E+00 -0.95762497940E-01  0.36491465191E-01  0.89232756011E+00  0.88000000000E+00 0. -1.
        -11    1    4    4    0    0  0.46316381756E-01  0.47803675941E-01 -0.27340582367E-01  0.71959483167E-01  0.51100000000E-03 0.  1.
         11    1    4    4    0    0  0.47558810012E-01  0.27964194482E-01 -0.94888922516E-02  0.55983361635E-01  0.51100000000E-03 0. -1.
</event>
<event>
 8    1  0.1086235E+005  0.1043930E+01  0.7957747E-01            NaN
         13   -1    0    0    0    0  0.00000000000E+00  0.00000000000E+00  0.74505805969E-08  0.10566000000E+00  0.10566000000E+00 0.  1.
     999900   -1    0    0    0    0 -0.00000000000E+00 -0.00000000000E+00 -0.74505805969E-08  0.93827000000E+00  0.93827000000E+00 0.  1.
     999902    2    1    2    0    0  0.20218221532E-03 -0.12190792639E-01 -0.21232705421E-01  0.10194456360E+01  0.10191515690E+01 0.  0.
     999903    2    3    3    0    0  0.10199263327E+00  0.59539077315E-01 -0.51400337140E-01  0.13016696413E+00  0.18816081535E-01 0.  0.
         14    1    1    2    0    0 -0.20218221532E-03  0.12190792639E-01  0.21232705421E-01  0.24484364037E-01  0.00000000000E+00 0.  1.
     999901    1    3    3    0    0 -0.10179045105E+00 -0.71729869954E-01  0.30167631719E-01  0.88927867183E+00  0.88000000000E+00 0.  1.
        -11    1    4    4    0    0  0.95579603793E-01  0.49877527464E-01 -0.48399640165E-01  0.11817789428E+00  0.51100000000E-03 0.  1.
         11    1    4    4    0    0  0.64130294769E-02  0.96615498513E-02 -0.30006969754E-02  0.11989069853E-01  0.51100000000E-03 0. -1.
</event>
<event>
 8    1  0.1086235E+005  0.1043930E+01  0.7957747E-01            NaN
         13   -1    0    0    0    0  0.00000000000E+00  0.00000000000E+00  0.74505805969E-08  0.10566000000E+00  0.10566000000E+00 0. -1.
     999900   -1    0    0    0    0 -0.00000000000E+00 -0.00000000000E+00 -0.74505805969E-08  0.93827000000E+00  0.93827000000E+00 0. -1.
     999902    2    1    2    0    0 -0.10170196763E-01 -0.18694694636E-01  0.83771844432E-02  0.10210585827E+01  0.10208023940E+01 0.  0.
     999903    2    3    3    0    0  0.12182776607E+00 -0.25233874297E-01 -0.30996071575E-01  0.13031929630E+00  0.23315435623E-01 0.  0.
         14    1    1    2    0    0  0.10170196763E-01  0.18694694636E-01 -0.83771844432E-02  0.22871417292E-01  0.00000000000E+00 0.  1.
     999901    1    3    3    0    0 -0.13199796283E+00  0.65391796606E-02  0.39373256018E-01  0.89073928641E+00  0.88000000000E+00 0.  1.
        -11    1    4    4    0    0  0.66883033261E-01 -0.23582812500E-01 -0.10715488915E-01  0.71725671884E-01  0.51100000000E-03 0.  1.
         11    1    4    4    0    0  0.54944732805E-01 -0.16510617968E-02 -0.20280582660E-01  0.58593624415E-01  0.51100000000E-03 0. -1.
</event>
<event>
 8    1  0.1086235E+005  0.1043930E+01  0.7957747E-01            NaN
         13   -1    0    0    0    0  0.00000000000E+00  0.00000000000E+00  0.74505805969E-08  0.10566000000E+00  0.10566000000E+00 0.  1.
     999900   -1    0    0    0    0 -0.00000000000E+00 -0.00000000000E+00 -0.74505805969E-08  0.93827000000E+00  0.93827000000E+00 0. -1.
     999902    2    1    2    0    0 -0.47480895816E-02  0.16825826903E-01 -0.16674453296E-01  0.10197703187E+01  0.10194840915E+01 0.  0.
     999903    2    3    3    0    0  0.45256238348E-01 -0.38592814138E-01  0.11093189686E+00  0.12743908025E+00  0.19932411361E-01 0.  0.
         14    1    1    2    0    0  0.47480895816E-02 -0.16825826903E-01  0.16674453296E-01  0.24159681256E-01  0.00000000000E+00 0.  1.
     999901    1    3    3    0    0 -0.50004327930E-01  0.55418641041E-01 -0.12760635015E+00  0.89233123849E+00  0.88000000000E+00 0. -1.
        -11    1    4    4    0    0  0.36168598664E-01 -0.26427139850E-01  0.96913213159E-01  0.10676606790E+00  0.51100000000E-03 0. -1.
         11    1    4    4    0    0  0.90876396846E-02 -0.12165674288E-01  0.14018683700E-01  0.20673012349E-01  0.51100000000E-03 0.  1.
</event>
<event>
 8    1  0.1086235E+005  0.1043930E+01  0.7957747E-01            NaN
         13   -1    0    0    0    0  0.00000000000E+00  0.00000000000E+00  0.74505805969E-08  0.10566000000E+00  0.10566000000E+00 0.  1.
     999900   -1    0    0    0    0 -0.00000000000E+00 -0.00000000000E+00 -0.74505805969E-08  0.93827000000E+00  0.93827000000E+00 0. -1.
     999902    2    1    2    0    0 -0.86749959064E-03 -0.22365899538E-01 -0.61383660639E-02  0.10207208304E+01  0.10204569310E+01 0.  0.
     999903    2    3    3    0    0  0.12064158285E+00  0.42893042210E-01 -0.10568022925E-01  0.12996676303E+00  0.19633435817E-01 0.  0.
         14    1    1    2    0    0  0.86749959064E-03  0.22365899538E-01  0.61383660639E-02  0.23209169646E-01  0.00000000000E+00 0. -1.
     999901    1    3    3    0    0 -0.12150908244E+00 -0.65258941749E-01  0.44296568615E-02  0.89075406732E+00  0.88000000000E+00 0. -1.
        -11    1    4    4    0    0  0.51881368742E-01  0.12246066412E-01  0.33245139240E-02  0.53413070301E-01  0.51100000000E-03 0.  1.
         11    1    4    4    0    0  0.68760214106E-01  0.30646975798E-01 -0.13892536849E-01  0.76553692730E-01  0.51100000000E-03 0. -1.
</event>
<event>
 8    1  0.1086235E+005  0.1043930E+01  0.7957747E-01            NaN
         13   -1    0    0    0    0  0.00000000000E+00  0.00000000000E+00  0.74505805969E-08  0.10566000000E+00  0.10566000000E+00 0. -1.
     999900   -1    0    0    0    0 -0.00000000000E+00 -0.00000000000E+00 -0.74505805969E-08  0.93827000000E+00  0.93827000000E+00 0.  1.
     999902    2    1    2    0    0  0.11315580843E-01 -0.14395324520E-01  0.16268602328E-01  0.10194364262E+01  0.10191421352E+01 0.  0.
     999903    2    3    3    0    0  0.36416042189E-01 -0.11659963975E+00  0.47776181479E-01  0.13260584327E+00  0.19497231438E-01 0.  0.
         14    1    1    2    0    0 -0.11315580843E-01  0.14395324520E-01 -0.16268602328E-01  0.24493573842E-01  0.00000000000E+00 0.  1.
     999901    1    3    3    0    0 -0.25100461347E-01  0.10220431523E+00 -0.31507579151E-01  0.88683058289E+00  0.88000000000E+00 0. -1.
        -11    1    4    4    0    0  0.27158980008E-01 -0.70889505052E-01  0.38228709722E-01  0.84997808734E-01  0.51100000000E-03 0. -1.
         11    1    4    4    0    0  0.92570621811E-02 -0.45710134694E-01  0.95474717568E-02  0.47608034531E-01  0.51100000000E-03 0.  1.
</event>
<event>
 8    1  0.1086235E+005  0.1043930E+01  0.7957747E-01            NaN
         13   -1    0    0    0    0  0.00000000000E+00  0.00000000000E+00  0.74505805969E-08  0.10566000000E+00  0.10566000000E+00 0.  1.
     999900   -1    0    0    0    0 -0.00000000000E+00 -0.00000000000E+00 -0.74505805969E-08  0.93827000000E+00  0.93827000000E+00 0. -1.
     999902    2    1    2    0    0 -0.14405194138E-01  0.52832913494E-03  0.17126400469E-01  0.10215446847E+01  0.10212993882E+01 0.  0.
     999903    2    3    3    0    0  0.75852348800E-02  0.12164483046E+00  0.49271282700E-01  0.13239560868E+00  0.15682389266E-01 0.  0.
         14    1    1    2    0    0  0.14405194138E-01 -0.52832913494E-03 -0.17126400469E-01  0.22385315340E-01  0.00000000000E+00 0. -1.
     999901    1    3    3    0    0 -0.21990429018E-01 -0.12111650133E+00 -0.32144882231E-01  0.88914907598E+00  0.88000000000E+00 0. -1.
        -11    1    4    4    0    0 -0.30388886696E-02  0.14925690720E-01  0.97767600269E-02  0.18106828697E-01  0.51100000000E-03 0. -1.
         11    1    4    4    0    0  0.10624123550E-01  0.10671913974E+00  0.39494522673E-01  0.11428877998E+00  0.51100000000E-03 0.  1.
</event>
<event>
 8    1  0.1086235E+005  0.1043930E+01  0.7957747E-01            NaN
         13   -1    0    0    0    0  0.00000000000E+00  0.00000000000E+00  0.74505805969E-08  0.10566000000E+00  0.10566000000E+00 0. -1.
     999900   -1    0    0    0    0 -0.00000000000E+00 -0.00000000000E+00 -0.74505805969E-08  0.93827000000E+00  0.93827000000E+00 0. -1.
     999902    2    1    2    0    0 -0.28192512713E-02 -0.12580212231E-01  0.19858821791E-01  0.10202533719E+01  0.10199786076E+01 0.  0.
     999903    2    3    3    0    0  0.36530200316E-01  0.10785309577E+00  0.60105564140E-01  0.13026889936E+00  0.19762628814E-01 0.  0.
         14    1    1    2    0    0  0.28192512713E-02  0.12580212231E-01 -0.19858821791E-01  0.23676628147E-01  0.00000000000E+00 0. -1.
     999901    1    3    3    0    0 -0.39349451588E-01 -0.12043330800E+00 -0.40246742349E-01  0.88998447250E+00  0.88000000000E+00 0. -1.
        -11    1    4    4    0    0  0.30087020707E-01  0.69575089714E-01  0.31693100907E-01  0.82162252220E-01  0.51100000000E-03 0. -1.
         11    1    4    4    0    0  0.64431796093E-02  0.38278006051E-01  0.28412463234E-01  0.48106647136E-01  0.51100000000E-03 0.  1.
</event>
<event>
 8    1  0.1086235E+005  0.1043930E+01  0.7957747E-01            NaN
         13   -1    0    0    0    0  0.00000000000E+00  0.00000000000E+00  0.74505805969E-08  0.10566000000E+00  0.10566000000E+00 0. -1.
     999900   -1    0    0    0    0 -0.00000000000E+00 -0.00000000000E+00 -0.74505805969E-08  0.93827000000E+00  0.93827000000E+00 0.  1.
     999902    2    1    2    0    0 -0.13409771002E-01  0.18485270728E-01 -0.73433986153E-02  0.10199414049E+01  0.10196592650E+01 0.  0.
     999903    2    3    3    0    0  0.25989315356E-01  0.69361291116E-01 -0.10718776294E+00  0.13196080006E+00  0.20928521487E-01 0.  0.
         14    1    1    2    0    0  0.13409771002E-01 -0.18485270728E-01  0.73433986153E-02  0.23988595111E-01  0.00000000000E+00 0. -1.
     999901    1    3    3    0    0 -0.39399086357E-01 -0.50876020388E-01  0.99844364325E-01  0.88798060482E+00  0.88000000000E+00 0. -1.
        -11    1    4    4    0    0  0.77898169417E-02  0.28119808893E-01 -0.25947309967E-01  0.39050338227E-01  0.51100000000E-03 0. -1.
         11    1    4    4    0    0  0.18199498414E-01  0.41241482223E-01 -0.81240452974E-01  0.92910461837E-01  0.51100000000E-03 0.  1.
</event>
<event>
 8    1  0.1086235E+005  0.1043930E+01  0.7957747E-01            NaN
         13   -1    0    0    0    0  0.00000000000E+00  0.00000000000E+00  0.74505805969E-08  0.10566000000E+00  0.10566000000E+00 0.  1.
     999900   -1    0    0    0    0 -0.00000000000E+00 -0.00000000000E+00 -0.74505805969E-08  0.93827000000E+00  0.93827000000E+00 0.  1.
     999902    2    1    2    0    0 -0.81125619119E-02 -0.72237649946E-02  0.21565870322E-01  0.10197828841E+01  0.10194969581E+01 0.  0.
     999903    2    3    3    0    0  0.89932651557E-01  0.80223637032E-01  0.43539471617E-01  0.12975886696E+00  0.20444173049E-01 0.  0.
         14    1    1    2    0    0  0.81125619119E-02  0.72237649946E-02 -0.21565870322E-01  0.24147115857E-01  0.00000000000E+00 0. -1.
     999901    1    3    3    0    0 -0.98045213469E-01 -0.87447402026E-01 -0.21973601295E-01  0.89002401718E+00  0.88000000000E+00 0.  1.
        -11    1    4    4    0    0  0.67103549310E-01  0.70456049335E-01  0.32546764240E-01  0.10259870468E+00  0.51100000000E-03 0.  1.
         11    1    4    4    0    0  0.22829102247E-01  0.97675876968E-02  0.10992707378E-01  0.27160162285E-01  0.51100000000E-03 0. -1.
</event>
<event>
 8    1  0.1086235E+005  0.1043930E+01  0.7957747E-01            NaN
         13   -1    0    0    0    0  0.00000000000E+00  0.00000000000E+00  0.74505805969E-08  0.10566000000E+00  0.10566000000E+00 0.  1.
     999900   -1    0    0    0    0 -0.00000000000E+00 -0.00000000000E+00 -0.74505805969E-08  0.93827000000E+00  0.93827000000E+00 0. -1.
     999902    2    1    2    0    0 -0.78057278663E-02 -0.22152718636E-01 -0.54195293622E-02  0.10198251534E+01  0.10195402395E+01 0.  0.
     999903    2    3    3    0    0  0.11868788855E+00  0.24301406099E-01 -0.39682472491E-01  0.12890845137E+00  0.19113267244E-01 0.  0.
         14    1    1    2    0    0  0.78057278663E-02  0.22152718636E-01  0.54195293622E-02  0.24104846587E-01  0.00000000000E+00 0.  1.
     999901    1    3    3    0    0 -0.12649361642E+00 -0.46454124735E-01  0.34262943128E-01  0.89091670204E+00  0.88000000000E+00 0. -1.
        -11    1    4    4    0    0  0.10019925389E+00  0.13753316005E-01 -0.29829810006E-01  0.10544725159E+00  0.51100000000E-03 0.  1.
         11    1    4    4    0    0  0.18488634661E-01  0.10548090094E-01 -0.98526624848E-02  0.23461199784E-01  0.51100000000E-03 0. -1.
</event>
<event>
 8    1  0.1086235E+005  0.1043930E+01  0.7957747E-01            NaN
         13   -1    0    0    0    0  0.00000000000E+00  0.00000000000E+00  0.74505805969E-08  0.10566000000E+00  0.10566000000E+00 0.  1.
     999900   -1    0    0    0    0 -0.00000000000E+00 -0.00000000000E+00 -0.74505805969E-08  0.93827000000E+00  0.93827000000E+00 0.  1.
     999902    2    1    2    0    0 -0.22685699174E-01  0.37381819655E-02  0.36454829197E-03  0.10209354822E+01  0.10206764968E+01 0.  0.
     999903    2    3    3    0    0  0.49480533727E-01 -0.59348664111E-01  0.10264673866E+00  0.12984089591E+00  0.18754150068E-01 0.  0.
         14    1    1    2    0    0  0.22685699174E-01 -0.37381819655E-02 -0.36454829197E-03  0.22994517757E-01  0.00000000000E+00 0. -1.
     999901    1    3    3    0    0 -0.72166232900E-01  0.63086846077E-01 -0.10228219037E+00  0.89109458633E+00  0.88000000000E+00 0.  1.
        -11    1    4    4    0    0  0.14185662463E-01 -0.29196256325E-01  0.50382606357E-01  0.59935987080E-01  0.51100000000E-03 0. -1.
         11    1    4    4    0    0  0.35294871264E-01 -0.30152407786E-01  0.52264132302E-01  0.69904908834E-01  0.51100000000E-03 0.  1.
</event>
<event>
 8    1  0.1086235E+005  0.1043930E+01  0.7957747E-01            NaN
         13   -1    0    0    0    0  0.00000000000E+00  0.00000000000E+00  0.74505805969E-08  0.10566000000E+00  0.10566000000E+00 0. -1.
     999900   -1    0    0    0    0 -0.00000000000E+00 -0.00000000000E+00 -0.74505805969E-08  0.93827000000E+00  0.93827000000E+00 0. -1.
     999902    2    1    2    0    0  0.60940060122E-02 -0.21247114176E-01 -0.78288427505E-02  0.10204807452E+01  0.10202112937E+01 0.  0.
     999903    2    3    3    0    0  0.11762622497E+00  0.47070169729E-01  0.22947851799E-01  0.13028195167E+00  0.19880979578E-01 0.  0.
         14    1    1    2    0    0 -0.60940060122E-02  0.21247114176E-01  0.78288427505E-02  0.23449254762E-01  0.00000000000E+00 0. -1.
     999901    1    3    3    0    0 -0.11153221896E+00 -0.68317283906E-01 -0.30776694549E-01  0.89019879357E+00  0.88000000000E+00 0.  1.
        -11    1    4    4    0    0  0.44502159716E-01  0.90848452361E-02  0.13214128658E-01  0.47305929328E-01  0.51100000000E-03 0. -1.
         11    1    4    4    0    0  0.73124065255E-01  0.37985324493E-01  0.97337231406E-02  0.82976022340E-01  0.51100000000E-03 0.  1.
</event>
<event>
 8    1  0.1086235E+005  0.1043930E+01  0.7957747E-01            NaN
         13   -1    0    0    0    0  0.00000000000E+00  0.00000000000E+00  0.74505805969E-08  0.10566000000E+00  0.10566000000E+00 0. -1.
     999900   -1    0    0    0    0 -0.00000000000E+00 -0.00000000000E+00 -0.74505805969E-08  0.93827000000E+00  0.93827000000E+00 0. -1.
     999902    2    1    2    0    0  0.21054830952E-01  0.10027496656E-01  0.35916440143E-02  0.10203343118E+01  0.10200614449E+01 0.  0.
     999903    2    3    3    0    0 -0.11893828302E+00 -0.32364888230E-01 -0.27140472426E-01  0.12773157303E+00  0.19620100581E-01 0.  0.
         14    1    1    2    0    0 -0.21054830952E-01 -0.10027496656E-01 -0.35916440143E-02  0.23595688214E-01  0.00000000000E+00 0. -1.
     999901    1    3    3    0    0  0.13999311397E+00  0.42392384885E-01  0.30732116441E-01  0.89260273876E+00  0.88000000000E+00 0.  1.
        -11    1    4    4    0    0 -0.98581770602E-01 -0.22462826382E-01 -0.15563186519E-01  0.10230062541E+00  0.51100000000E-03 0. -1.
         11    1    4    4    0    0 -0.20356512418E-01 -0.99020618478E-02 -0.11577285907E-01  0.25430947616E-01  0.51100000000E-03 0.  1.
</event>
<event>
 8    1  0.1215791E+005  0.1043930E+01  0.7957747E-01            NaN
         13   -1    0    0    0    0  0.00000000000E+00  0.00000000000E+00  0.74505805969E-08  0.10566000000E+00  0.10566000000E+00 0.  1.
     999900   -1    0    0    0    0 -0.00000000000E+00 -0.00000000000E+00 -0.74505805969E-08  0.93827000000E+00  0.93827000000E+00 0. -1.
     999902    2    1    2    0    0 -0.32685390791E-02 -0.19365896803E-01  0.64884900165E-02  0.10232461462E+01  0.10230370735E+01 0.  0.
     999903    2    3    3    0    0  0.45063024596E-01 -0.11978907542E+00 -0.38635942223E-01  0.13506994223E+00  0.19262774656E-01 0.  0.
         14    1    1    2    0    0  0.32685390791E-02  0.19365896803E-01 -0.64884900165E-02  0.20683853833E-01  0.00000000000E+00 0. -1.
     999901    1    3    3    0    0 -0.48331563675E-01  0.10042317862E+00  0.45124432240E-01  0.88817620393E+00  0.88000000000E+00 0. -1.
        -11    1    4    4    0    0  0.34434105394E-01 -0.64853889130E-01 -0.23582947595E-01  0.77124257454E-01  0.51100000000E-03 0. -1.
         11    1    4    4    0    0  0.10628919201E-01 -0.54935186291E-01 -0.15052994628E-01  0.57945684779E-01  0.51100000000E-03 0.  1.
</event>
<event>
 8    1  0.1086235E+005  0.1043930E+01  0.7957747E-01            NaN
         13   -1    0    0    0    0  0.00000000000E+00  0.00000000000E+00  0.74505805969E-08  0.10566000000E+00  0.10566000000E+00 0. -1.
     999900   -1    0    0    0    0 -0.00000000000E+00 -0.00000000000E+00 -0.74505805969E-08  0.93827000000E+00  0.93827000000E+00 0. -1.
     999902    2    1    2    0    0  0.38177152368E-02 -0.22598422241E-01 -0.68574622775E-02  0.10200074494E+01  0.10197268793E+01 0.  0.
     999903    2    3    3    0    0  0.77119640537E-01  0.29634262594E-01 -0.98982454120E-01  0.13063214071E+00  0.21014316239E-01 0.  0.
         14    1    1    2    0    0 -0.38177152368E-02  0.22598422241E-01  0.68574622775E-02  0.23922550581E-01  0.00000000000E+00 0. -1.
     999901    1    3    3    0    0 -0.73301925301E-01 -0.52232684835E-01  0.92124991842E-01  0.88937530871E+00  0.88000000000E+00 0.  1.
        -11    1    4    4    0    0  0.22231115989E-01  0.18802222903E-01 -0.37952446189E-01  0.47837175887E-01  0.51100000000E-03 0. -1.
         11    1    4    4    0    0  0.54888524549E-01  0.10832039691E-01 -0.61030007931E-01  0.82794964823E-01  0.51100000000E-03 0.  1.
</event>
<event>
 8    1  0.1086235E+005  0.1043930E+01  0.7957747E-01            NaN
         13   -1    0    0    0    0  0.00000000000E+00  0.00000000000E+00  0.74505805969E-08  0.10566000000E+00  0.10566000000E+00 0.  1.
     999900   -1    0    0    0    0 -0.00000000000E+00 -0.00000000000E+00 -0.74505805969E-08  0.93827000000E+00  0.93827000000E+00 0. -1.
     999902    2    1    2    0    0  0.10496063788E-01  0.16572337445E-01 -0.77757180742E-02  0.10228285423E+01  0.10226108524E+01 0.  0.
     999903    2    3    3    0    0  0.46379364506E-01 -0.11466023430E+00 -0.40815354776E-01  0.13176108320E+00  0.19926742834E-01 0.  0.
         14    1    1    2    0    0 -0.10496063788E-01 -0.16572337445E-01  0.77757180742E-02  0.21101457652E-01  0.00000000000E+00 0. -1.
     999901    1    3    3    0    0 -0.35883300718E-01  0.13123257174E+00  0.33039636702E-01  0.89106745915E+00  0.88000000000E+00 0. -1.
        -11    1    4    4    0    0  0.42819625218E-01 -0.90533693239E-01 -0.26994935359E-01  0.10372491297E+00  0.51100000000E-03 0.  1.
         11    1    4    4    0    0  0.35597392888E-02 -0.24126541058E-01 -0.13820419417E-01  0.28036170229E-01  0.51100000000E-03 0. -1.
</event>
<event>
 8    1  0.1086235E+005  0.1043930E+01  0.7957747E-01            NaN
         13   -1    0    0    0    0  0.00000000000E+00  0.00000000000E+00  0.74505805969E-08  0.10566000000E+00  0.10566000000E+00 0.  1.
     999900   -1    0    0    0    0 -0.00000000000E+00 -0.00000000000E+00 -0.74505805969E-08  0.93827000000E+00  0.93827000000E+00 0.  1.
     999902    2    1    2    0    0 -0.10085736759E-01 -0.52877119425E-02 -0.21323861112E-01  0.10197558602E+01  0.10194692861E+01 0.  0.
     999903    2    3    3    0    0 -0.46379971877E-01  0.11272822364E+00  0.37269537040E-01  0.12920646859E+00  0.21131467938E-01 0.  0.
         14    1    1    2    0    0  0.10085736759E-01  0.52877119425E-02  0.21323861112E-01  0.24174139825E-01  0.00000000000E+00 0.  1.
     999901    1    3    3    0    0  0.36294235118E-01 -0.11801593558E+00 -0.58593398152E-01  0.89054939159E+00  0.88000000000E+00 0. -1.
        -11    1    4    4    0    0 -0.16451359349E-01  0.59070137441E-01  0.26614521857E-01  0.66847006339E-01  0.51100000000E-03 0.  1.
         11    1    4    4    0    0 -0.29928612527E-01  0.53658086197E-01  0.10655015183E-01  0.62359462247E-01  0.51100000000E-03 0. -1.
</event>
<event>
 8    1  0.1086235E+005  0.1043930E+01  0.7957747E-01            NaN
         13   -1    0    0    0    0  0.00000000000E+00  0.00000000000E+00  0.74505805969E-08  0.10566000000E+00  0.10566000000E+00 0.  1.
     999900   -1    0    0    0    0 -0.00000000000E+00 -0.00000000000E+00 -0.74505805969E-08  0.93827000000E+00  0.93827000000E+00 0.  1.
     999902    2    1    2    0    0 -0.12423543451E-01  0.17579505113E-01 -0.90133683603E-02  0.10205928142E+01  0.10203259617E+01 0.  0.
     999903    2    3    3    0    0 -0.59396564679E-01 -0.98546438640E-01  0.55699639336E-01  0.12936923232E+00  0.19864440189E-01 0.  0.
         14    1    1    2    0    0  0.12423543451E-01 -0.17579505113E-01  0.90133683603E-02  0.23337185801E-01  0.00000000000E+00 0.  1.
     999901    1    3    3    0    0  0.46973021227E-01  0.11612594375E+00 -0.64713007697E-01  0.89122358188E+00  0.88000000000E+00 0.  1.
        -11    1    4    4    0    0 -0.52543544559E-01 -0.79050152503E-01  0.52435341551E-01  0.10844112158E+00  0.51100000000E-03 0. -1.
         11    1    4    4    0    0 -0.68530201194E-02 -0.19496286137E-01  0.32642977856E-02  0.20928110735E-01  0.51100000000E-03 0.  1.
</event>
<event>
 8    1  0.1086235E+005  0.1043930E+01  0.7957747E-01            NaN
         13   -1    0    0    0    0  0.00000000000E+00  0.00000000000E+00  0.74505805969E-08  0.10566000000E+00  0.10566000000E+00 0. -1.
     999900   -1    0    0    0    0 -0.00000000000E+00 -0.00000000000E+00 -0.74505805969E-08  0.93827000000E+00  0.93827000000E+00 0. -1.
     999902    2    1    2    0    0 -0.59836670700E-02  0.14127965969E-01  0.12721520622E-01  0.10239990998E+01  0.10238051161E+01 0.  0.
     999903    2    3    3    0    0 -0.16298771844E-01  0.13163649558E+00  0.23278438890E-01  0.13606548496E+00  0.19445142019E-01 0.  0.
         14    1    1    2    0    0  0.59836670700E-02 -0.14127965969E-01 -0.12721520622E-01  0.19930900154E-01  0.00000000000E+00 0.  1.
     999901    1    3    3    0    0  0.10315104774E-01 -0.11750852961E+00 -0.10556918269E-01  0.88793361488E+00  0.88000000000E+00 0. -1.
        -11    1    4    4    0    0 -0.12924102086E-01  0.34261732988E-01  0.59527390087E-02  0.37102492973E-01  0.51100000000E-03 0. -1.
         11    1    4    4    0    0 -0.33746697583E-02  0.97374762593E-01  0.17325699882E-01  0.98962991989E-01  0.51100000000E-03 0.  1.
</event>
<event>
 8    1  0.1086235E+005  0.1043930E+01  0.7957747E-01            NaN
         13   -1    0    0    0    0  0.00000000000E+00  0.00000000000E+00  0.74505805969E-08  0.10566000000E+00  0.10566000000E+00 0.  1.
     999900   -1    0    0    0    0 -0.00000000000E+00 -0.00000000000E+00 -0.74505805969E-08  0.93827000000E+00  0.93827000000E+00 0. -1.
     999902    2    1    2    0    0  0.83149486167E-02  0.36106171045E-02  0.21598015790E-01  0.10205067378E+01  0.10202378902E+01 0.  0.
     999903    2    3    3    0    0  0.69023262184E-01  0.68187402584E-01 -0.83707427724E-01  0.12980763204E+00  0.20720890075E-01 0.  0.
         14    1    1    2    0    0 -0.83149486167E-02 -0.36106171045E-02 -0.21598015790E-01  0.23423262207E-01  0.00000000000E+00 0. -1.
     999901    1    3    3    0    0 -0.60708313567E-01 -0.64576785479E-01  0.10530544351E+00  0.89069910575E+00  0.88000000000E+00 0.  1.
        -11    1    4    4    0    0  0.49853137382E-01  0.35157653782E-01 -0.50423568790E-01  0.79146657142E-01  0.51100000000E-03 0.  1.
         11    1    4    4    0    0  0.19170124802E-01  0.33029748802E-01 -0.33283858934E-01  0.50660974896E-01  0.51100000000E-03 0. -1.
</event>
<event>
 8    1  0.1086235E+005  0.1043930E+01  0.7957747E-01            NaN
         13   -1    0    0    0    0  0.00000000000E+00  0.00000000000E+00  0.74505805969E-08  0.10566000000E+00  0.10566000000E+00 0. -1.
     999900   -1    0    0    0    0 -0.00000000000E+00 -0.00000000000E+00 -0.74505805969E-08  0.93827000000E+00  0.93827000000E+00 0. -1.
     999902    2    1    2    0    0 -0.20341844806E-01  0.16923016291E-02  0.11324533347E-01  0.10205869156E+01  0.10203199266E+01 0.  0.
     999903    2    3    3    0    0 -0.11249781371E+00 -0.65424100763E-01  0.20511931920E-01  0.13318523518E+00  0.19531934623E-01 0.  0.
         14    1    1    2    0    0  0.20341844806E-01 -0.16923016291E-02 -0.11324533347E-01  0.23343084425E-01  0.00000000000E+00 0.  1.
     999901    1    3    3    0    0  0.92155968899E-01  0.67116402392E-01 -0.91873985724E-02  0.88740168039E+00  0.88000000000E+00 0. -1.
        -11    1    4    4    0    0 -0.23111526629E-01 -0.20190075013E-01 -0.10466585718E-02  0.30710558564E-01  0.51100000000E-03 0. -1.
         11    1    4    4    0    0 -0.89386287076E-01 -0.45234025750E-01  0.21558590491E-01  0.10247467662E+00  0.51100000000E-03 0.  1.
</event>
<event>
 8    1  0.1086235E+005  0.1043930E+01  0.7957747E-01            NaN
         13   -1    0    0    0    0  0.00000000000E+00  0.00000000000E+00  0.74505805969E-08  0.10566000000E+00  0.10566000000E+00 0.  1.
     999900   -1    0    0    0    0 -0.00000000000E+00 -0.00000000000E+00 -0.74505805969E-08  0.93827000000E+00  0.93827000000E+00 0.  1.
     999902    2    1    2    0    0 -0.12042400176E-01  0.15657086984E-01 -0.12107770220E-01  0.10207618781E+01  0.10204989220E+01 0.  0.
     999903    2    3    3    0    0 -0.11561262986E+00  0.62982503574E-01 -0.76099626714E-02  0.13341374017E+00  0.20204915113E-01 0.  0.
         14    1    1    2    0    0  0.12042400176E-01 -0.15657086984E-01  0.12107770220E-01  0.23168121947E-01  0.00000000000E+00 0.  1.
     999901    1    3    3    0    0  0.10357022968E+00 -0.47325416589E-01 -0.44978075485E-02  0.88734813788E+00  0.88000000000E+00 0.  1.
        -11    1    4    4    0    0 -0.54626435807E-01  0.40742212384E-01 -0.94070584624E-03  0.68155127521E-01  0.51100000000E-03 0. -1.
         11    1    4    4    0    0 -0.60986194053E-01  0.22240291190E-01 -0.66692568251E-02  0.65258612649E-01  0.51100000000E-03 0.  1.
</event>
<event>
 8    1  0.1086235E+005  0.1043930E+01  0.7957747E-01            NaN
         13   -1    0    0    0    0  0.00000000000E+00  0.00000000000E+00  0.74505805969E-08  0.10566000000E+00  0.10566000000E+00 0.  1.
     999900   -1    0    0    0    0 -0.00000000000E+00 -0.00000000000E+00 -0.74505805969E-08  0.93827000000E+00  0.93827000000E+00 0.  1.
     999902    2    1    2    0    0 -0.43029630612E-02 -0.21854932745E-01 -0.92874921430E-02  0.10197968053E+01  0.10195112128E+01 0.  0.
     999903    2    3    3    0    0 -0.37507119749E-01  0.39237957033E-01 -0.11707955105E+00  0.13049708913E+00  0.19376988788E-01 0.  0.
         14    1    1    2    0    0  0.43029630612E-02  0.21854932745E-01  0.92874921430E-02  0.24133194706E-01  0.00000000000E+00 0. -1.
     999901    1    3    3    0    0  0.33204156688E-01 -0.61092889778E-01  0.10779205890E+00  0.88929971616E+00  0.88000000000E+00 0. -1.
        -11    1    4    4    0    0 -0.10194156987E-02  0.10620728401E-01 -0.29900489908E-01  0.31751212542E-01  0.51100000000E-03 0. -1.
         11    1    4    4    0    0 -0.36487704050E-01  0.28617228631E-01 -0.87179061140E-01  0.98745876591E-01  0.51100000000E-03 0.  1.
</event>
<event>
 8    1  0.1086235E+005  0.1043930E+01  0.7957747E-01            NaN
         13   -1    0    0    0    0  0.00000000000E+00  0.00000000000E+00  0.74505805969E-08  0.10566000000E+00  0.10566000000E+00 0. -1.
     999900   -1    0    0    0    0 -0.00000000000E+00 -0.00000000000E+00 -0.74505805969E-08  0.93827000000E+00  0.93827000000E+00 0.  1.
     999902    2    1    2    0    0 -0.11005411599E-02 -0.17530502306E-01 -0.15274291365E-01  0.10206526789E+01  0.10203872095E+01 0.  0.
     999903    2    3    3    0    0  0.10591623917E+00 -0.27382301414E-02 -0.76027711276E-01  0.13196691854E+00  0.20231339154E-01 0.  0.
         14    1    1    2    0    0  0.11005411599E-02  0.17530502306E-01  0.15274291365E-01  0.23277321123E-01  0.00000000000E+00 0. -1.
     999901    1    3    3    0    0 -0.10701678033E+00 -0.14792272165E-01  0.60753419911E-01  0.88868576033E+00  0.88000000000E+00 0. -1.
        -11    1    4    4    0    0  0.71415626697E-01 -0.11101838535E-01 -0.53455372084E-01  0.89895386317E-01  0.51100000000E-03 0. -1.
         11    1    4    4    0    0  0.34500612473E-01  0.83636083935E-02 -0.22572339192E-01  0.42071532227E-01  0.51100000000E-03 0.  1.
</event>
<event>
 8    1  0.1086235E+005  0.1043930E+01  0.7957747E-01            NaN
         13   -1    0    0    0    0  0.00000000000E+00  0.00000000000E+00  0.74505805969E-08  0.10566000000E+00  0.10566000000E+00 0. -1.
     999900   -1    0    0    0    0 -0.00000000000E+00 -0.00000000000E+00 -0.74505805969E-08  0.93827000000E+00  0.93827000000E+00 0. -1.
     999902    2    1    2    0    0  0.14005775852E-01  0.11053592717E-01  0.21839770056E-01  0.10157285953E+01  0.10153370180E+01 0.  0.
     999903    2    3    3    0    0 -0.90553852412E-02  0.75454125216E-01  0.10246106300E+00  0.12939962784E+00  0.21694912756E-01 0.  0.
         14    1    1    2    0    0 -0.14005775852E-01 -0.11053592717E-01 -0.21839770056E-01  0.28201404669E-01  0.00000000000E+00 0.  1.
     999901    1    3    3    0    0  0.23061161093E-01 -0.64400532499E-01 -0.80621292946E-01  0.88632896749E+00  0.88000000000E+00 0. -1.
        -11    1    4    4    0    0 -0.13817036163E-01  0.41485321753E-01  0.47085158953E-01  0.64258973879E-01  0.51100000000E-03 0. -1.
         11    1    4    4    0    0  0.47616509223E-02  0.33968803464E-01  0.55375904050E-01  0.65140653962E-01  0.51100000000E-03 0.  1.
</event>
<event>
 8    1  0.1086235E+005  0.1043930E+01  0.7957747E-01            NaN
         13   -1    0    0    0    0  0.00000000000E+00  0.00000000000E+00  0.74505805969E-08  0.10566000000E+00  0.10566000000E+00 0. -1.
     999900   -1    0    0    0    0 -0.00000000000E+00 -0.00000000000E+00 -0.74505805969E-08  0.93827000000E+00  0.93827000000E+00 0.  1.
     999902    2    1    2    0    0  0.15306802681E-01  0.62490321373E-02  0.24346564683E-01  0.10145003581E+01  0.10140734060E+01 0.  0.
     999903    2    3    3    0    0  0.40182729073E-01  0.19271227667E-01  0.11926418789E+00  0.12895095547E+00  0.20454106486E-01 0.  0.
         14    1    1    2    0    0 -0.15306802681E-01 -0.62490321373E-02 -0.24346564683E-01  0.29429641907E-01  0.00000000000E+00 0.  1.
     999901    1    3    3    0    0 -0.24875926393E-01 -0.13022195530E-01 -0.94917623207E-01  0.88554940262E+00  0.88000000000E+00 0.  1.
        -11    1    4    4    0    0  0.10224758064E-01 -0.23141707583E-02  0.14737828388E-01  0.18093252067E-01  0.51100000000E-03 0. -1.
         11    1    4    4    0    0  0.29957971009E-01  0.21585398425E-01  0.10452635950E+00  0.11085770340E+00  0.51100000000E-03 0.  1.
</event>
<event>
 8    1  0.1086235E+005  0.1043930E+01  0.7957747E-01            NaN
         13   -1    0    0    0    0  0.00000000000E+00  0.00000000000E+00  0.74505805969E-08  0.10566000000E+00  0.10566000000E+00 0. -1.
     999900   -1    0    0    0    0 -0.00000000000E+00 -0.00000000000E+00 -0.74505805969E-08  0.93827000000E+00  0.93827000000E+00 0. -1.
     999902    2    1    2    0    0 -0.11808858181E-01  0.16197395575E-01  0.13170514637E-01  0.10199452713E+01  0.10196632234E+01 0.  0.
     999903    2    3    3    0    0 -0.35785296022E-01 -0.68336859395E-01 -0.10013508016E+00  0.12834050031E+00  0.22220170535E-01 0.  0.
         14    1    1    2    0    0  0.11808858181E-01 -0.16197395575E-01 -0.13170514637E-01  0.23984728699E-01  0.00000000000E+00 0. -1.
     999901    1    3    3    0    0  0.23976437841E-01  0.84534254970E-01  0.11330559480E+00  0.89160477099E+00  0.88000000000E+00 0.  1.
        -11    1    4    4    0    0 -0.18439484382E-02 -0.41147793026E-02 -0.18575813353E-01  0.19122068854E-01  0.51100000000E-03 0. -1.
         11    1    4    4    0    0 -0.33941347583E-01 -0.64222080093E-01 -0.81559266808E-01  0.10921843146E+00  0.51100000000E-03 0.  1.
</event>
<event>
 8    1  0.1086235E+005  0.1043930E+01  0.7957747E-01            NaN
         13   -1    0    0    0    0  0.00000000000E+00  0.00000000000E+00  0.74505805969E-08  0.10566000000E+00  0.10566000000E+00 0. -1.
     999900   -1    0    0    0    0 -0.00000000000E+00 -0.00000000000E+00 -0.74505805969E-08  0.93827000000E+00  0.93827000000E+00 0. -1.
     999902    2    1    2    0    0  0.15730641974E-01  0.15657924174E-01  0.80141565349E-02  0.10203323223E+01  0.10200594089E+01 0.  0.
     999903    2    3    3    0    0 -0.11542216218E+00  0.26140350661E-01 -0.46894267037E-01  0.12885833265E+00  0.19995103342E-01 0.  0.
         14    1    1    2    0    0 -0.15730641974E-01 -0.15657924174E-01 -0.80141565349E-02  0.23597677668E-01  0.00000000000E+00 0.  1.
     999901    1    3    3    0    0  0.13115280415E+00 -0.10482426487E-01  0.54908423572E-01  0.89147398968E+00  0.88000000000E+00 0.  1.
        -11    1    4    4    0    0 -0.59937965610E-01  0.95582332574E-02 -0.33841986166E-01  0.69494321302E-01  0.51100000000E-03 0.  1.
         11    1    4    4    0    0 -0.55484196568E-01  0.16582117404E-01 -0.13052280871E-01  0.59364011348E-01  0.51100000000E-03 0. -1.
</event>
<event>
 8    1  0.1086235E+005  0.1043930E+01  0.7957747E-01            NaN
         13   -1    0    0    0    0  0.00000000000E+00  0.00000000000E+00  0.74505805969E-08  0.10566000000E+00  0.10566000000E+00 0. -1.
     999900   -1    0    0    0    0 -0.00000000000E+00 -0.00000000000E+00 -0.74505805969E-08  0.93827000000E+00  0.93827000000E+00 0. -1.
     999902    2    1    2    0    0 -0.17560345967E-01  0.10699215679E-01 -0.37032837869E-02  0.10230361426E+01  0.10228227587E+01 0.  0.
     999903    2    3    3    0    0 -0.25891479492E-02 -0.11640072056E+00 -0.58420398175E-01  0.13209703515E+00  0.21928345529E-01 0.  0.
         14    1    1    2    0    0  0.17560345967E-01 -0.10699215679E-01  0.37032837869E-02  0.20893857409E-01  0.00000000000E+00 0. -1.
     999901    1    3    3    0    0 -0.14971198017E-01  0.12709993624E+00  0.54717114388E-01  0.89093910744E+00  0.88000000000E+00 0.  1.
        -11    1    4    4    0    0  0.26102050773E-02 -0.10867002560E+00 -0.56727311753E-01  0.12261417803E+00  0.51100000000E-03 0. -1.
         11    1    4    4    0    0 -0.51993530265E-02 -0.77306949668E-02 -0.16930864219E-02  0.94828571219E-02  0.51100000000E-03 0.  1.
</event>
<event>
 8    1  0.1086235E+005  0.1043930E+01  0.7957747E-01            NaN
         13   -1    0    0    0    0  0.00000000000E+00  0.00000000000E+00  0.74505805969E-08  0.10566000000E+00  0.10566000000E+00 0.  1.
     999900   -1    0    0    0    0 -0.00000000000E+00 -0.00000000000E+00 -0.74505805969E-08  0.93827000000E+00  0.93827000000E+00 0. -1.
     999902    2    1    2    0    0  0.16146380702E-01 -0.86365620532E-03 -0.16356327933E-01  0.10209304136E+01  0.10206713126E+01 0.  0.
     999903    2    3    3    0    0 -0.40300454813E-01  0.30046483912E-01 -0.12081905111E+00  0.13241809373E+00  0.20258099150E-01 0.  0.
         14    1    1    2    0    0 -0.16146380702E-01  0.86365620532E-03  0.16356327933E-01  0.22999586416E-01  0.00000000000E+00 0.  1.
     999901    1    3    3    0    0  0.56446835516E-01 -0.30910140117E-01  0.10446272318E+00  0.88851231986E+00  0.88000000000E+00 0.  1.
        -11    1    4    4    0    0 -0.23197346879E-01  0.12482344574E-01 -0.39487788184E-01  0.47470752732E-01  0.51100000000E-03 0. -1.
         11    1    4    4    0    0 -0.17103107934E-01  0.17564139338E-01 -0.81331262929E-01  0.84947340997E-01  0.51100000000E-03 0.  1.
</event>
<event>
 7    1  0.1184071E+005  0.1043930E+01  0.7957747E-01            NaN
         13   -1    0    0    0    0  0.00000000000E+00  0.00000000000E+00  0.74505805969E-08  0.10566000000E+00  0.10566000000E+00 0.  1.
     999900   -1    0    0    0    0 -0.00000000000E+00 -0.00000000000E+00 -0.74505805969E-08  0.93827000000E+00  0.93827000000E+00 0.  1.
     999903    2    1    2    0    0  0.59528053790E-01  0.33486553770E-01  0.84704172330E-01  0.11058578082E+00  0.19735238507E-01 0.  0.
         14    1    1    2    0    0 -0.25729984071E-01  0.34607411010E-01  0.12068849621E-01  0.44781269614E-01  0.00000000000E+00 0.  1.
     999901    1    1    2    0    0 -0.33798069719E-01 -0.68093964780E-01 -0.96773021951E-01  0.88856294956E+00  0.88000000000E+00 0.  1.
        -11    1    3    3    0    0  0.25913369806E-01  0.63031217422E-02  0.42436663808E-01  0.50123483863E-01  0.51100000000E-03 0. -1.
         11    1    3    3    0    0  0.33614683984E-01  0.27183432028E-01  0.42267508522E-01  0.60462296961E-01  0.51100000000E-03 0.  1.
</event>
<event>
 8    1  0.1086235E+005  0.1043930E+01  0.7957747E-01            NaN
         13   -1    0    0    0    0  0.00000000000E+00  0.00000000000E+00  0.74505805969E-08  0.10566000000E+00  0.10566000000E+00 0. -1.
     999900   -1    0    0    0    0 -0.00000000000E+00 -0.00000000000E+00 -0.74505805969E-08  0.93827000000E+00  0.93827000000E+00 0.  1.
     999902    2    1    2    0    0 -0.59872773015E-02 -0.75573733169E-02 -0.12515469307E-01  0.10281313180E+01  0.10280099264E+01 0.  0.
     999903    2    3    3    0    0  0.15772265597E-01 -0.11013557271E+00  0.77902030165E-01  0.13730524692E+00  0.20134442890E-01 0.  0.
         14    1    1    2    0    0  0.59872773015E-02  0.75573733169E-02  0.12515469307E-01  0.15798681999E-01  0.00000000000E+00 0. -1.
     999901    1    3    3    0    0 -0.21759542898E-01  0.10257819940E+00 -0.90417499472E-01  0.89082607108E+00  0.88000000000E+00 0.  1.
        -11    1    4    4    0    0  0.18976549368E-02 -0.59097769769E-01  0.31789193080E-01  0.67133906513E-01  0.51100000000E-03 0.  1.
         11    1    4    4    0    0  0.13874610660E-01 -0.51037802944E-01  0.46112837085E-01  0.70171340412E-01  0.51100000000E-03 0. -1.
</event>
<event>
 8    1  0.1086235E+005  0.1043930E+01  0.7957747E-01            NaN
         13   -1    0    0    0    0  0.00000000000E+00  0.00000000000E+00  0.74505805969E-08  0.10566000000E+00  0.10566000000E+00 0. -1.
     999900   -1    0    0    0    0 -0.00000000000E+00 -0.00000000000E+00 -0.74505805969E-08  0.93827000000E+00  0.93827000000E+00 0.  1.
     999902    2    1    2    0    0 -0.77451175253E-02  0.91149708050E-03 -0.22368904683E-01  0.10202406444E+01  0.10199655812E+01 0.  0.
     999903    2    3    3    0    0  0.31413166891E-01  0.81539559406E-01 -0.97621354930E-01  0.13249226397E+00  0.19717613225E-01 0.  0.
         14    1    1    2    0    0  0.77451175253E-02 -0.91149708050E-03  0.22368904683E-01  0.23689355608E-01  0.00000000000E+00 0. -1.
     999901    1    3    3    0    0 -0.39158284416E-01 -0.80628062325E-01  0.75252450247E-01  0.88774838042E+00  0.88000000000E+00 0. -1.
        -11    1    4    4    0    0  0.59377546305E-02  0.11218609503E-01 -0.25992763153E-01  0.28930934768E-01  0.51100000000E-03 0.  1.
         11    1    4    4    0    0  0.25475412260E-01  0.70320949903E-01 -0.71628591777E-01  0.10356132920E+00  0.51100000000E-03 0. -1.
</event>
<event>
 8    1  0.1086235E+005  0.1043930E+01  0.7957747E-01            NaN
         13   -1    0    0    0    0  0.00000000000E+00  0.00000000000E+00  0.74505805969E-08  0.10566000000E+00  0.10566000000E+00 0. -1.
     999900   -1    0    0    0    0 -0.00000000000E+00 -0.00000000000E+00 -0.74505805969E-08  0.93827000000E+00  0.93827000000E+00 0. -1.
     999902    2    1    2    0    0  0.40258288362E-02  0.70218724504E-02  0.16581433291E-01  0.10254784981E+01  0.10253124852E+01 0.  0.
     999903    2    3    3    0    0 -0.45261244254E-01  0.12060987598E-01  0.12743116303E+00  0.13714169781E+00  0.19367403366E-01 0.  0.
         14    1    1    2    0    0 -0.40258288362E-02 -0.70218724504E-02 -0.16581433291E-01  0.18451501850E-01  0.00000000000E+00 0.  1.
     999901    1    3    3    0    0  0.49287073091E-01 -0.50391151478E-02 -0.11084972974E+00  0.88833680034E+00  0.88000000000E+00 0. -1.
        -11    1    4    4    0    0 -0.16157272802E-01 -0.32672732331E-02  0.58202847751E-01  0.60494339786E-01  0.51100000000E-03 0. -1.
         11    1    4    4    0    0 -0.29103971452E-01  0.15328260831E-01  0.69228315280E-01  0.76647358024E-01  0.51100000000E-03 0.  1.
</event>
<event>
 7    1  0.1086235E+005  0.1043930E+01  0.7957747E-01            NaN
         13   -1    0    0    0    0  0.00000000000E+00  0.00000000000E+00  0.74505805969E-08  0.10566000000E+00  0.10566000000E+00 0.  1.
     999900   -1    0    0    0    0 -0.00000000000E+00 -0.00000000000E+00 -0.74505805969E-08  0.93827000000E+00  0.93827000000E+00 0.  1.
     999903    2    1    2    0    0 -0.14636420376E-01  0.24563263879E-01  0.97269826994E-01  0.10339875630E+00  0.20305290596E-01 0.  0.
         14    1    1    2    0    0  0.26446619053E-01  0.14190633279E-01 -0.50019262390E-01  0.58332875313E-01  0.00000000000E+00 0. -1.
     999901    1    1    2    0    0 -0.11810198677E-01 -0.38753897159E-01 -0.47250564604E-01  0.88219836839E+00  0.88000000000E+00 0.  1.
        -11    1    3    3    0    0  0.99714090030E-03 -0.28081897705E-02  0.14865560159E-01  0.15169911654E-01  0.51100000000E-03 0.  1.
         11    1    3    3    0    0 -0.15633561276E-01  0.27371453650E-01  0.82404266835E-01  0.88228844641E-01  0.51100000000E-03 0. -1.
</event>
<event>
 8    1  0.1086235E+005  0.1043930E+01  0.7957747E-01            NaN
         13   -1    0    0    0    0  0.00000000000E+00  0.00000000000E+00  0.74505805969E-08  0.10566000000E+00  0.10566000000E+00 0.  1.
     999900   -1    0    0    0    0 -0.00000000000E+00 -0.00000000000E+00 -0.74505805969E-08  0.93827000000E+00  0.93827000000E+00 0. -1.
     999902    2    1    2    0    0  0.73279818451E-02 -0.18045581289E-01  0.83394186301E-02  0.10227430176E+01  0.10225235409E+01 0.  0.
     999903    2    3    3    0    0  0.86977141277E-01  0.77959473315E-01  0.59244550348E-01  0.13248895745E+00  0.20017605126E-01 0.  0.
         14    1    1    2    0    0 -0.73279818451E-02  0.18045581289E-01 -0.83394186301E-02  0.21186982443E-01  0.00000000000E+00 0. -1.
     999901    1    3    3    0    0 -0.79649159432E-01 -0.96005054604E-01 -0.50905131718E-01  0.89025406011E+00  0.88000000000E+00 0. -1.
        -11    1    4    4    0    0  0.56415374880E-01  0.38075919678E-01  0.37790198998E-01  0.77851335528E-01  0.51100000000E-03 0.  1.
         11    1    4    4    0    0  0.30561766397E-01  0.39883553637E-01  0.21454351350E-01  0.54637621918E-01  0.51100000000E-03 0. -1.
</event>
<event>
 8    1  0.1086235E+005  0.1043930E+01  0.7957747E-01            NaN
         13   -1    0    0    0    0  0.00000000000E+00  0.00000000000E+00  0.74505805969E-08  0.10566000000E+00  0.10566000000E+00 0. -1.
     999900   -1    0    0    0    0 -0.00000000000E+00 -0.00000000000E+00 -0.74505805969E-08  0.93827000000E+00  0.93827000000E+00 0.  1.
     999902    2    1    2    0    0  0.96222113854E-02 -0.56674790916E-03  0.23928654204E-01  0.10181329334E+01  0.10178060627E+01 0.  0.
     999903    2    3    3    0    0 -0.30059203673E-01 -0.83620535320E-01 -0.86877032412E-01  0.12642084614E+00  0.23209091459E-01 0.  0.
         14    1    1    2    0    0 -0.96222113854E-02  0.56674790916E-03 -0.23928654204E-01  0.25797066639E-01  0.00000000000E+00 0.  1.
     999901    1    3    3    0    0  0.39681415058E-01  0.83053787411E-01  0.11080568662E+00  0.89171208722E+00  0.88000000000E+00 0. -1.
        -11    1    4    4    0    0 -0.84687672547E-02 -0.88809731930E-02 -0.21677682274E-01  0.24915351361E-01  0.51100000000E-03 0. -1.
         11    1    4    4    0    0 -0.21590436418E-01 -0.74739562127E-01 -0.65199350137E-01  0.10150549478E+00  0.51100000000E-03 0.  1.
</event>
<event>
 8    1  0.1086235E+005  0.1043930E+01  0.7957747E-01            NaN
         13   -1    0    0    0    0  0.00000000000E+00  0.00000000000E+00  0.74505805969E-08  0.10566000000E+00  0.10566000000E+00 0.  1.
     999900   -1    0    0    0    0 -0.00000000000E+00 -0.00000000000E+00 -0.74505805969E-08  0.93827000000E+00  0.93827000000E+00 0. -1.
     999902    2    1    2    0    0  0.11232649604E-01  0.67837701850E-02  0.19640320076E-01  0.10203093707E+01  0.10200359199E+01 0.  0.
     999903    2    3    3    0    0 -0.54683270420E-01  0.19753563056E-01  0.11724355969E+00  0.13236820351E+00  0.19870221260E-01 0.  0.
         14    1    1    2    0    0 -0.11232649604E-01 -0.67837701850E-02 -0.19640320076E-01  0.23620629283E-01  0.00000000000E+00 0. -1.
     999901    1    3    3    0    0  0.65915920024E-01 -0.12969792871E-01 -0.97603239619E-01  0.88794116721E+00  0.88000000000E+00 0. -1.
        -11    1    4    4    0    0 -0.20629230943E-01  0.90900151052E-02  0.67352101310E-01  0.71026475457E-01  0.51100000000E-03 0. -1.
         11    1    4    4    0    0 -0.34054039478E-01  0.10663547951E-01  0.49891458384E-01  0.61341728052E-01  0.51100000000E-03 0.  1.
</event>
<event>
 8    1  0.1086235E+005  0.1043930E+01  0.7957747E-01            NaN
         13   -1    0    0    0    0  0.00000000000E+00  0.00000000000E+00  0.74505805969E-08  0.10566000000E+00  0.10566000000E+00 0. -1.
     999900   -1    0    0    0    0 -0.00000000000E+00 -0.00000000000E+00 -0.74505805969E-08  0.93827000000E+00  0.93827000000E+00 0. -1.
     999902    2    1    2    0    0 -0.87616967129E-02 -0.21343929026E-01 -0.45373951135E-02  0.10204157790E+01  0.10201448149E+01 0.  0.
     999903    2    3    3    0    0  0.79871808777E-01  0.80088079953E-01  0.56761907073E-01  0.12805825243E+00  0.19580488608E-01 0.  0.
         14    1    1    2    0    0  0.87616967129E-02  0.21343929026E-01  0.45373951135E-02  0.23514221016E-01  0.00000000000E+00 0.  1.
     999901    1    3    3    0    0 -0.88633505490E-01 -0.10143200898E+00 -0.61299302187E-01  0.89235752655E+00  0.88000000000E+00 0. -1.
        -11    1    4    4    0    0  0.72320362044E-01  0.74371400519E-01  0.45345646209E-01  0.11321585018E+00  0.51100000000E-03 0. -1.
         11    1    4    4    0    0  0.75514467334E-02  0.57166794344E-02  0.11416260864E-01  0.14842402253E-01  0.51100000000E-03 0.  1.
</event>
<event>
 8    1  0.1086235E+005  0.1043930E+01  0.7957747E-01            NaN
         13   -1    0    0    0    0  0.00000000000E+00  0.00000000000E+00  0.74505805969E-08  0.10566000000E+00  0.10566000000E+00 0.  1.
     999900   -1    0    0    0    0 -0.00000000000E+00 -0.00000000000E+00 -0.74505805969E-08  0.93827000000E+00  0.93827000000E+00 0.  1.
     999902    2    1    2    0    0 -0.56701034684E-02 -0.16423451868E-01 -0.14716802045E-01  0.10211601931E+01  0.10209063012E+01 0.  0.
     999903    2    3    3    0    0  0.66063321228E-01 -0.31849359273E-01 -0.10896229014E+00  0.13309158376E+00  0.21490576950E-01 0.  0.
         14    1    1    2    0    0  0.56701034684E-02  0.16423451868E-01  0.14716802045E-01  0.22769806917E-01  0.00000000000E+00 0.  1.
     999901    1    3    3    0    0 -0.71733424696E-01  0.15425907405E-01  0.94245488095E-01  0.88806860932E+00  0.88000000000E+00 0.  1.
        -11    1    4    4    0    0  0.16847838223E-01 -0.13005409959E-01 -0.47982125657E-01  0.52493198078E-01  0.51100000000E-03 0. -1.
         11    1    4    4    0    0  0.49215483005E-01 -0.18843949314E-01 -0.60980164483E-01  0.80598385682E-01  0.51100000000E-03 0.  1.
</event>
<event>
 8    1  0.1086235E+005  0.1043930E+01  0.7957747E-01            NaN
         13   -1    0    0    0    0  0.00000000000E+00  0.00000000000E+00  0.74505805969E-08  0.10566000000E+00  0.10566000000E+00 0. -1.
     999900   -1    0    0    0    0 -0.00000000000E+00 -0.00000000000E+00 -0.74505805969E-08  0.93827000000E+00  0.93827000000E+00 0.  1.
     999902    2    1    2    0    0 -0.81720417394E-02  0.17441281541E-01 -0.11955157888E-01  0.10212604970E+01  0.10210088620E+01 0.  0.
     999903    2    3    3    0    0 -0.16153071165E-01 -0.12087332655E+00  0.37252550966E-01  0.12906319465E+00  0.19956775279E-01 0.  0.
         14    1    1    2    0    0  0.81720417394E-02 -0.17441281541E-01  0.11955157888E-01  0.22669503041E-01  0.00000000000E+00 0. -1.
     999901    1    3    3    0    0  0.79810294254E-02  0.13831460809E+00 -0.49207708854E-01  0.89219730231E+00  0.88000000000E+00 0. -1.
        -11    1    4    4    0    0 -0.48505713786E-02 -0.86200822359E-01  0.32633274405E-01  0.92300062500E-01  0.51100000000E-03 0. -1.
         11    1    4    4    0    0 -0.11302499786E-01 -0.34672504191E-01  0.46192765616E-02  0.36763132147E-01  0.51100000000E-03 0.  1.
</event>
<event>
 8    1  0.1086235E+005  0.1043930E+01  0.7957747E-01            NaN
         13   -1    0    0    0    0  0.00000000000E+00  0.00000000000E+00  0.74505805969E-08  0.10566000000E+00  0.10566000000E+00 0.  1.
     999900   -1    0    0    0    0 -0.00000000000E+00 -0.00000000000E+00 -0.74505805969E-08  0.93827000000E+00  0.93827000000E+00 0. -1.
     999902    2    1    2    0    0  0.35874128796E-02 -0.23536934945E-01 -0.70372166780E-03  0.10201108467E+01  0.10198327253E+01 0.  0.
     999903    2    3    3    0    0 -0.41227278372E-01 -0.11327294049E+00  0.52190432751E-01  0.13283484751E+00  0.19768862173E-01 0.  0.
         14    1    1    2    0    0 -0.35874128796E-02  0.23536934945E-01  0.70372166780E-03  0.23819153258E-01  0.00000000000E+00 0.  1.
     999901    1    3    3    0    0  0.44814691252E-01  0.89736005549E-01 -0.52894154419E-01  0.88727599923E+00  0.88000000000E+00 0. -1.
        -11    1    4    4    0    0 -0.37177896271E-01 -0.75622805493E-01  0.36897794711E-01  0.91993005481E-01  0.51100000000E-03 0.  1.
         11    1    4    4    0    0 -0.40493821012E-02 -0.37650135001E-01  0.15292638040E-01  0.40841842027E-01  0.51100000000E-03 0. -1.
</event>
<event>
 8    1  0.1086235E+005  0.1043930E+01  0.7957747E-01            NaN
         13   -1    0    0    0    0  0.00000000000E+00  0.00000000000E+00  0.74505805969E-08  0.10566000000E+00  0.10566000000E+00 0.  1.
     999900   -1    0    0    0    0 -0.00000000000E+00 -0.00000000000E+00 -0.74505805969E-08  0.93827000000E+00  0.93827000000E+00 0.  1.
     999902    2    1    2    0    0  0.18748880759E-01  0.36795938239E-02  0.40063073323E-02  0.10244079499E+01  0.10242219181E+01 0.  0.
     999903    2    3    3    0    0 -0.87822072007E-01 -0.64902912755E-01  0.72415161625E-01  0.13270132804E+00  0.20990055131E-01 0.  0.
         14    1    1    2    0    0 -0.18748880759E-01 -0.36795938239E-02 -0.40063073323E-02  0.19522050068E-01  0.00000000000E+00 0. -1.
     999901    1    3    3    0    0  0.10657095277E+00  0.68582506579E-01 -0.68408854292E-01  0.89170662189E+00  0.88000000000E+00 0.  1.
        -11    1    4    4    0    0 -0.53821515431E-01 -0.29730209540E-01  0.48112073258E-01  0.78074794888E-01  0.51100000000E-03 0. -1.
         11    1    4    4    0    0 -0.34000556576E-01 -0.35172703215E-01  0.24303088367E-01  0.54626533151E-01  0.51100000000E-03 0.  1.
</event>
<event>
 8    1  0.1086235E+005  0.1043930E+01  0.7957747E-01            NaN
         13   -1    0    0    0    0  0.00000000000E+00  0.00000000000E+00  0.74505805969E-08  0.10566000000E+00  0.10566000000E+00 0. -1.
     999900   -1    0    0    0    0 -0.00000000000E+00 -0.00000000000E+00 -0.74505805969E-08  0.93827000000E+00  0.93827000000E+00 0.  1.
     999902    2    1    2    0    0 -0.10170696648E-01 -0.20845660209E-01  0.41836422612E-02  0.10203612181E+01  0.10200889803E+01 0.  0.
     999903    2    3    3    0    0  0.12202139367E+00 -0.34154590236E-01 -0.21330250942E-01  0.13002261106E+00  0.19878209990E-01 0.  0.
         14    1    1    2    0    0  0.10170696648E-01  0.20845660209E-01 -0.41836422612E-02  0.23568781946E-01  0.00000000000E+00 0. -1.
     999901    1    3    3    0    0 -0.13219209032E+00  0.13308930027E-01  0.25513893204E-01  0.89033860700E+00  0.88000000000E+00 0.  1.
        -11    1    4    4    0    0  0.60461424436E-01 -0.67069467165E-02 -0.11345533652E-01  0.61883351832E-01  0.51100000000E-03 0.  1.
         11    1    4    4    0    0  0.61559969238E-01 -0.27447643519E-01 -0.99847172901E-02  0.68139259225E-01  0.51100000000E-03 0. -1.
</event>
<event>
 8    1  0.1086235E+005  0.1043930E+01  0.7957747E-01            NaN
         13   -1    0    0    0    0  0.00000000000E+00  0.00000000000E+00  0.74505805969E-08  0.10566000000E+00  0.10566000000E+00 0. -1.
     999900   -1    0    0    0    0 -0.00000000000E+00 -0.00000000000E+00 -0.74505805969E-08  0.93827000000E+00  0.93827000000E+00 0. -1.
     999902    2    1    2    0    0  0.12838295750E-01 -0.19643729691E-01 -0.62354875759E-02  0.10196487468E+01  0.10193595968E+01 0.  0.
     999903    2    3    3    0    0 -0.39128198681E-01 -0.65636036185E-01 -0.10496295620E+00  0.13141289865E+00  0.20322956942E-01 0.  0.
         14    1    1    2    0    0 -0.12838295750E-01  0.19643729691E-01  0.62354875759E-02  0.24281253247E-01  0.00000000000E+00 0.  1.
     999901    1    3    3    0    0  0.51966494431E-01  0.45992306494E-01  0.98727468622E-01  0.88823584811E+00  0.88000000000E+00 0.  1.
        -11    1    4    4    0    0 -0.20144775417E-01 -0.19889670362E-01 -0.27517564890E-01  0.39482761583E-01  0.51100000000E-03 0.  1.
         11    1    4    4    0    0 -0.18983423264E-01 -0.45746365823E-01 -0.77445391308E-01  0.91930137064E-01  0.51100000000E-03 0. -1.
</event>
<event>
 8    1  0.1086235E+005  0.1043930E+01  0.7957747E-01            NaN
         13   -1    0    0    0    0  0.00000000000E+00  0.00000000000E+00  0.74505805969E-08  0.10566000000E+00  0.10566000000E+00 0.  1.
     999900   -1    0    0    0    0 -0.00000000000E+00 -0.00000000000E+00 -0.74505805969E-08  0.93827000000E+00  0.93827000000E+00 0.  1.
     999902    2    1    2    0    0 -0.54477491776E-02 -0.18994700694E-01  0.14883373997E-01  0.10191915391E+01  0.10188912611E+01 0.  0.
     999903    2    3    3    0    0 -0.11242939608E+00 -0.63702237548E-01  0.15015196119E-01  0.13158585301E+00  0.19774640982E-01 0.  0.
         14    1    1    2    0    0  0.54477491776E-02  0.18994700694E-01 -0.14883373997E-01  0.24738460888E-01  0.00000000000E+00 0. -1.
     999901    1    3    3    0    0  0.10698164690E+00  0.44707536854E-01 -0.13182212159E-03  0.88760568610E+00  0.88000000000E+00 0. -1.
        -11    1    4    4    0    0 -0.97404417553E-01 -0.60972037134E-01  0.17044120606E-01  0.11617216981E+00  0.51100000000E-03 0. -1.
         11    1    4    4    0    0 -0.15024978528E-01 -0.27302004141E-02 -0.20289244872E-02  0.15413683195E-01  0.51100000000E-03 0.  1.
</event>
<event>
 8    1  0.1086235E+005  0.1043930E+01  0.7957747E-01            NaN
         13   -1    0    0    0    0  0.00000000000E+00  0.00000000000E+00  0.74505805969E-08  0.10566000000E+00  0.10566000000E+00 0. -1.
     999900   -1    0    0    0    0 -0.00000000000E+00 -0.00000000000E+00 -0.74505805969E-08  0.93827000000E+00  0.93827000000E+00 0.  1.
     999902    2    1    2    0    0  0.34578277952E-02  0.22258901979E-01  0.38735636006E-02  0.10210734958E+01  0.10208176448E+01 0.  0.
     999903    2    3    3    0    0 -0.70465410120E-01 -0.41014877596E-01 -0.98983461075E-01  0.12975549203E+00  0.19777965944E-01 0.  0.
         14    1    1    2    0    0 -0.34578277952E-02 -0.22258901979E-01 -0.38735636006E-02  0.22856504224E-01  0.00000000000E+00 0.  1.
     999901    1    3    3    0    0  0.73923237915E-01  0.63273779574E-01  0.10285702468E+00  0.89131800375E+00  0.88000000000E+00 0. -1.
        -11    1    4    4    0    0 -0.29610310792E-01 -0.13547467700E-01 -0.54037726453E-01  0.63092324316E-01  0.51100000000E-03 0.  1.
         11    1    4    4    0    0 -0.40855099328E-01 -0.27467409896E-01 -0.44945734621E-01  0.66663167710E-01  0.51100000000E-03 0. -1.
</event>
<event>
 8    1  0.1086235E+005  0.1043930E+01  0.7957747E-01            NaN
         13   -1    0    0    0    0  0.00000000000E+00  0.00000000000E+00  0.74505805969E-08  0.10566000000E+00  0.10566000000E+00 0.  1.
     999900   -1    0    0    0    0 -0.00000000000E+00 -0.00000000000E+00 -0.74505805969E-08  0.93827000000E+00  0.93827000000E+00 0. -1.
     999902    2    1    2    0    0  0.11253416671E-01 -0.71571106525E-02 -0.20422056208E-01  0.10195389361E+01  0.10192471330E+01 0.  0.
     999903    2    3    3    0    0  0.79938278666E-02 -0.12432609720E+00 -0.37302738781E-01  0.13160641962E+00  0.20195931161E-01 0.  0.
         14    1    1    2    0    0 -0.11253416671E-01  0.71571106525E-02  0.20422056208E-01  0.24391063926E-01  0.00000000000E+00 0.  1.
     999901    1    3    3    0    0  0.32595888042E-02  0.11716898655E+00  0.16880682573E-01  0.88793251645E+00  0.88000000000E+00 0. -1.
        -11    1    4    4    0    0  0.14836647571E-01 -0.86733007300E-01 -0.26199976939E-01  0.91811984942E-01  0.51100000000E-03 0. -1.
         11    1    4    4    0    0 -0.68428197039E-02 -0.37593089903E-01 -0.11102761843E-01  0.39794434680E-01  0.51100000000E-03 0.  1.
</event>
<event>
 8    1  0.1086235E+005  0.1043930E+01  0.7957747E-01            NaN
         13   -1    0    0    0    0  0.00000000000E+00  0.00000000000E+00  0.74505805969E-08  0.10566000000E+00  0.10566000000E+00 0.  1.
     999900   -1    0    0    0    0 -0.00000000000E+00 -0.00000000000E+00 -0.74505805969E-08  0.93827000000E+00  0.93827000000E+00 0. -1.
     999902    2    1    2    0    0  0.23290996472E-01 -0.63709169673E-02  0.59658963234E-03  0.10197760144E+01  0.10194899237E+01 0.  0.
     999903    2    3    3    0    0 -0.95151288952E-01  0.62395406608E-01  0.53872989226E-01  0.12759007137E+00  0.20735785255E-01 0.  0.
         14    1    1    2    0    0 -0.23290996472E-01  0.63709169673E-02 -0.59658963234E-03  0.24153985569E-01  0.00000000000E+00 0.  1.
     999901    1    3    3    0    0  0.11844228542E+00 -0.68766323575E-01 -0.53276399594E-01  0.89218594306E+00  0.88000000000E+00 0. -1.
        -11    1    4    4    0    0 -0.32741030702E-01  0.33533269578E-01  0.20492448146E-01  0.51153267853E-01  0.51100000000E-03 0. -1.
         11    1    4    4    0    0 -0.62410258250E-01  0.28862137030E-01  0.33380541080E-01  0.76436803522E-01  0.51100000000E-03 0.  1.
</event>
<event>
 8    1  0.1086235E+005  0.1043930E+01  0.7957747E-01            NaN
         13   -1    0    0    0    0  0.00000000000E+00  0.00000000000E+00  0.74505805969E-08  0.10566000000E+00  0.10566000000E+00 0.  1.
     999900   -1    0    0    0    0 -0.00000000000E+00 -0.00000000000E+00 -0.74505805969E-08  0.93827000000E+00  0.93827000000E+00 0. -1.
     999902    2    1    2    0    0 -0.17016658840E-03  0.13037973748E-01  0.21090339045E-01  0.10191344335E+01  0.10188327505E+01 0.  0.
     999903    2    3    3    0    0 -0.12565278824E+00 -0.21091221456E-01 -0.48912276293E-02  0.12919863128E+00  0.20854241797E-01 0.  0.
         14    1    1    2    0    0  0.17016658840E-03 -0.13037973748E-01 -0.21090339045E-01  0.24795566482E-01  0.00000000000E+00 0. -1.
     999901    1    3    3    0    0  0.12548262165E+00  0.34129195204E-01  0.25981566675E-01  0.88993580224E+00  0.88000000000E+00 0.  1.
        -11    1    4    4    0    0 -0.33123946442E-01 -0.44997598847E-02 -0.10453377730E-01  0.35028244231E-01  0.51100000000E-03 0.  1.
         11    1    4    4    0    0 -0.92528841799E-01 -0.16591461571E-01  0.55621501010E-02  0.94170387047E-01  0.51100000000E-03 0. -1.
</event>
<event>
 8    1  0.1086235E+005  0.1043930E+01  0.7957747E-01            NaN
         13   -1    0    0    0    0  0.00000000000E+00  0.00000000000E+00  0.74505805969E-08  0.10566000000E+00  0.10566000000E+00 0.  1.
     999900   -1    0    0    0    0 -0.00000000000E+00 -0.00000000000E+00 -0.74505805969E-08  0.93827000000E+00  0.93827000000E+00 0. -1.
     999902    2    1    2    0    0  0.19605253098E-01  0.12453474864E-01 -0.43222366702E-02  0.10203050828E+01  0.10200315315E+01 0.  0.
     999903    2    3    3    0    0  0.14336586108E-01 -0.11704586705E+00  0.48811540769E-01  0.12922650220E+00  0.20289151396E-01 0.  0.
         14    1    1    2    0    0 -0.19605253098E-01 -0.12453474864E-01  0.43222366702E-02  0.23624917250E-01  0.00000000000E+00 0.  1.
     999901    1    3    3    0    0  0.52686669906E-02  0.12949934191E+00 -0.53133777440E-01  0.89107858055E+00  0.88000000000E+00 0.  1.
        -11    1    4    4    0    0  0.13133703024E-01 -0.79948793846E-01  0.42770286103E-01  0.91618023810E-01  0.51100000000E-03 0. -1.
         11    1    4    4    0    0  0.12028830839E-02 -0.37097073203E-01  0.60412546666E-02  0.37608478391E-01  0.51100000000E-03 0.  1.
</event>
<event>
 8    1  0.1086235E+005  0.1043930E+01  0.7957747E-01            NaN
         13   -1    0    0    0    0  0.00000000000E+00  0.00000000000E+00  0.74505805969E-08  0.10566000000E+00  0.10566000000E+00 0. -1.
     999900   -1    0    0    0    0 -0.00000000000E+00 -0.00000000000E+00 -0.74505805969E-08  0.93827000000E+00  0.93827000000E+00 0. -1.
     999902    2    1    2    0    0  0.17164764737E-01  0.36201898938E-02  0.16729427970E-01  0.10196893588E+01  0.10194011869E+01 0.  0.
     999903    2    3    3    0    0  0.38209832283E-02 -0.58523023261E-01 -0.11191189846E+00  0.12806812407E+00  0.20919541578E-01 0.  0.
         14    1    1    2    0    0 -0.17164764737E-01 -0.36201898938E-02 -0.16729427970E-01  0.24240641154E-01  0.00000000000E+00 0.  1.
     999901    1    3    3    0    0  0.13343781509E-01  0.62143213155E-01  0.12864132643E+00  0.89162123478E+00  0.88000000000E+00 0.  1.
        -11    1    4    4    0    0  0.10578063210E-01 -0.27221640973E-01 -0.41871917248E-01  0.51053224517E-01  0.51100000000E-03 0. -1.
         11    1    4    4    0    0 -0.67570799820E-02 -0.31301382288E-01 -0.70039981213E-01  0.77014899548E-01  0.51100000000E-03 0.  1.
</event>
<event>
 8    1  0.1086235E+005  0.1043930E+01  0.7957747E-01            NaN
         13   -1    0    0    0    0  0.00000000000E+00  0.00000000000E+00  0.74505805969E-08  0.10566000000E+00  0.10566000000E+00 0. -1.
     999900   -1    0    0    0    0 -0.00000000000E+00 -0.00000000000E+00 -0.74505805969E-08  0.93827000000E+00  0.93827000000E+00 0. -1.
     999902    2    1    2    0    0  0.78551928729E-02  0.15414485194E-01  0.17669024521E-01  0.10192013762E+01  0.10189013399E+01 0.  0.
     999903    2    3    3    0    0  0.12116004913E+00 -0.10152043874E-01  0.46340628643E-01  0.13110583022E+00  0.16076795509E-01 0.  0.
         14    1    1    2    0    0 -0.78551928729E-02 -0.15414485194E-01 -0.17669024521E-01  0.24728623827E-01  0.00000000000E+00 0.  1.
     999901    1    3    3    0    0 -0.11330485626E+00  0.25566529067E-01 -0.28671604122E-01  0.88809554595E+00  0.88000000000E+00 0.  1.
        -11    1    4    4    0    0  0.10077524982E+00 -0.34826456606E-02  0.41907884597E-01  0.10919849683E+00  0.51100000000E-03 0.  1.
         11    1    4    4    0    0  0.20384799312E-01 -0.66693982130E-02  0.44327440455E-02  0.21907333390E-01  0.51100000000E-03 0. -1.
</event>
<event>
 8    1  0.1086235E+005  0.1043930E+01  0.7957747E-01            NaN
         13   -1    0    0    0    0  0.00000000000E+00  0.00000000000E+00  0.74505805969E-08  0.10566000000E+00  0.10566000000E+00 0.  1.
     999900   -1    0    0    0    0 -0.00000000000E+00 -0.00000000000E+00 -0.74505805969E-08  0.93827000000E+00  0.93827000000E+00 0.  1.
     999902    2    1    2    0    0  0.13403772530E-01  0.16610044078E-01  0.93280016772E-02  0.10206369474E+01  0.10203711149E+01 0.  0.
     999903    2    3    3    0    0 -0.17735073583E-01  0.10383167873E-01  0.12893320363E+00  0.13197851696E+00  0.19292872510E-01 0.  0.
         14    1    1    2    0    0 -0.13403772530E-01 -0.16610044078E-01 -0.93280016772E-02  0.23293052561E-01  0.00000000000E+00 0. -1.
     999901    1    3    3    0    0  0.31138846114E-01  0.62268762052E-02 -0.11960520196E+00  0.88865843048E+00  0.88000000000E+00 0.  1.
        -11    1    4    4    0    0 -0.21546479213E-01  0.11150157389E-01  0.11130970752E+00  0.11392404876E+00  0.51100000000E-03 0.  1.
         11    1    4    4    0    0  0.38114056294E-02 -0.76698951624E-03  0.17623496110E-01  0.18054468199E-01  0.51100000000E-03 0. -1.
</event>
<event>
 8    1  0.1086235E+005  0.1043930E+01  0.7957747E-01            NaN
         13   -1    0    0    0    0  0.00000000000E+00  0.00000000000E+00  0.74505805969E-08  0.10566000000E+00  0.10566000000E+00 0. -1.
     999900   -1    0    0    0    0 -0.00000000000E+00 -0.00000000000E+00 -0.74505805969E-08  0.93827000000E+00  0.93827000000E+00 0.  1.
     999902    2    1    2    0    0  0.23128308503E-01 -0.12364030842E-02  0.77940557905E-02  0.10194924336E+01  0.10191995033E+01 0.  0.
     999903    2    3    3    0    0 -0.79867096320E-01 -0.90554728039E-01  0.39072198815E-01  0.12844578002E+00  0.19818421744E-01 0.  0.
         14    1    1    2    0    0 -0.23128308503E-01  0.12364030842E-02 -0.77940557905E-02  0.24437566419E-01  0.00000000000E+00 0. -1.
     999901    1    3    3    0    0  0.10299540482E+00  0.89318324955E-01 -0.31278143024E-01  0.89104665356E+00  0.88000000000E+00 0. -1.
        -11    1    4    4    0    0 -0.68872640737E-01 -0.81971799918E-01  0.40379980118E-01  0.11442735922E+00  0.51100000000E-03 0. -1.
         11    1    4    4    0    0 -0.10994455584E-01 -0.85829281213E-02 -0.13077813036E-02  0.14018420798E-01  0.51100000000E-03 0.  1.
</event>
<event>
 8    1  0.1086235E+005  0.1043930E+01  0.7957747E-01            NaN
         13   -1    0    0    0    0  0.00000000000E+00  0.00000000000E+00  0.74505805969E-08  0.10566000000E+00  0.10566000000E+00 0.  1.
     999900   -1    0    0    0    0 -0.00000000000E+00 -0.00000000000E+00 -0.74505805969E-08  0.93827000000E+00  0.93827000000E+00 0.  1.
     999902    2    1    2    0    0  0.80477921585E-02  0.16177119548E-01  0.14152660449E-01  0.10209786612E+01  0.10207206585E+01 0.  0.
     999903    2    3    3    0    0 -0.74743053365E-01  0.72850767538E-01  0.79685935200E-01  0.13285657691E+00  0.20180768138E-01 0.  0.
         14    1    1    2    0    0 -0.80477921585E-02 -0.16177119548E-01 -0.14152660449E-01  0.22951338813E-01  0.00000000000E+00 0.  1.
     999901    1    3    3    0    0  0.82790845524E-01 -0.56673647990E-01 -0.65533274751E-01  0.88812208428E+00  0.88000000000E+00 0.  1.
        -11    1    4    4    0    0 -0.45328292133E-01  0.30132132517E-01  0.41467516939E-01  0.68428178113E-01  0.51100000000E-03 0. -1.
         11    1    4    4    0    0 -0.29414761232E-01  0.42718635021E-01  0.38218418261E-01  0.64428398798E-01  0.51100000000E-03 0.  1.
</event>
<event>
 8    1  0.1086235E+005  0.1043930E+01  0.7957747E-01            NaN
         13   -1    0    0    0    0  0.00000000000E+00  0.00000000000E+00  0.74505805969E-08  0.10566000000E+00  0.10566000000E+00 0.  1.
     999900   -1    0    0    0    0 -0.00000000000E+00 -0.00000000000E+00 -0.74505805969E-08  0.93827000000E+00  0.93827000000E+00 0.  1.
     999902    2    1    2    0    0  0.61709315020E-02 -0.18856196419E-01 -0.12436742086E-01  0.10205139992E+01  0.10202453203E+01 0.  0.
     999903    2    3    3    0    0  0.10756008036E+00 -0.76236918206E-01  0.63272634965E-03  0.13273974990E+00  0.15433803049E-01 0.  0.
         14    1    1    2    0    0 -0.61709315020E-02  0.18856196419E-01  0.12436742086E-01  0.23416000784E-01  0.00000000000E+00 0.  1.
     999901    1    3    3    0    0 -0.10138914886E+00  0.57380721787E-01 -0.13069468436E-01  0.88777424931E+00  0.88000000000E+00 0. -1.
        -11    1    4    4    0    0  0.47222327298E-01 -0.34792229121E-01 -0.72951853126E-02  0.59109459923E-01  0.51100000000E-03 0.  1.
         11    1    4    4    0    0  0.60337753063E-01 -0.41444689085E-01  0.79279116622E-02  0.73630289979E-01  0.51100000000E-03 0. -1.
</event>
<event>
 8    1  0.1086235E+005  0.1043930E+01  0.7957747E-01            NaN
         13   -1    0    0    0    0  0.00000000000E+00  0.00000000000E+00  0.74505805969E-08  0.10566000000E+00  0.10566000000E+00 0.  1.
     999900   -1    0    0    0    0 -0.00000000000E+00 -0.00000000000E+00 -0.74505805969E-08  0.93827000000E+00  0.93827000000E+00 0. -1.
     999902    2    1    2    0    0  0.15440034370E-01  0.90856328773E-02  0.75778406922E-02  0.10244783405E+01  0.10242936606E+01 0.  0.
     999903    2    3    3    0    0 -0.73281871767E-01  0.10893120630E+00 -0.17708479268E-01  0.13404018259E+00  0.20419105619E-01 0.  0.
         14    1    1    2    0    0 -0.15440034370E-01 -0.90856328773E-02 -0.75778406922E-02  0.19451659458E-01  0.00000000000E+00 0.  1.
     999901    1    3    3    0    0  0.88721906136E-01 -0.99845573426E-01  0.25286319960E-01  0.89043815795E+00  0.88000000000E+00 0. -1.
        -11    1    4    4    0    0 -0.17848353153E-01  0.13080147541E-01 -0.33294927873E-02  0.22383042983E-01  0.51100000000E-03 0. -1.
         11    1    4    4    0    0 -0.55433518613E-01  0.95851058763E-01 -0.14378986480E-01  0.11165713961E+00  0.51100000000E-03 0.  1.
</event>
<event>
 8    1  0.1086235E+005  0.1043930E+01  0.7957747E-01            NaN
         13   -1    0    0    0    0  0.00000000000E+00  0.00000000000E+00  0.74505805969E-08  0.10566000000E+00  0.10566000000E+00 0.  1.
     999900   -1    0    0    0    0 -0.00000000000E+00 -0.00000000000E+00 -0.74505805969E-08  0.93827000000E+00  0.93827000000E+00 0.  1.
     999902    2    1    2    0    0  0.20923019407E-01 -0.39848863381E-02  0.82881862127E-02  0.10210751079E+01  0.10208192935E+01 0.  0.
     999903    2    3    3    0    0  0.44953605638E-01 -0.15022612013E-01 -0.12107795344E+00  0.13122405380E+00  0.17702427990E-01 0.  0.
         14    1    1    2    0    0 -0.20923019407E-01  0.39848863381E-02 -0.82881862127E-02  0.22854892057E-01  0.00000000000E+00 0. -1.
     999901    1    3    3    0    0 -0.24030586231E-01  0.11037725675E-01  0.12936613965E+00  0.88985105414E+00  0.88000000000E+00 0. -1.
        -11    1    4    4    0    0  0.40531317206E-02  0.68233433929E-03 -0.28521637546E-01  0.28820797807E-01  0.51100000000E-03 0. -1.
         11    1    4    4    0    0  0.40900473918E-01 -0.15704946352E-01 -0.92556315891E-01  0.10240325600E+00  0.51100000000E-03 0.  1.
</event>
<event>
 8    1  0.1086235E+005  0.1043930E+01  0.7957747E-01            NaN
         13   -1    0    0    0    0  0.00000000000E+00  0.00000000000E+00  0.74505805969E-08  0.10566000000E+00  0.10566000000E+00 0.  1.
     999900   -1    0    0    0    0 -0.00000000000E+00 -0.00000000000E+00 -0.74505805969E-08  0.93827000000E+00  0.93827000000E+00 0.  1.
     999902    2    1    2    0    0 -0.10372379832E-01  0.48996263163E-02  0.20293910645E-01  0.10206182988E+01  0.10203520356E+01 0.  0.
     999903    2    3    3    0    0  0.58220845414E-01  0.75359746401E-01  0.90084878858E-01  0.13239510712E+00  0.18558576802E-01 0.  0.
         14    1    1    2    0    0  0.10372379832E-01 -0.48996263163E-02 -0.20293910645E-01  0.23311701154E-01  0.00000000000E+00 0. -1.
     999901    1    3    3    0    0 -0.68593225246E-01 -0.70460120084E-01 -0.69790968213E-01  0.88822319172E+00  0.88000000000E+00 0.  1.
        -11    1    4    4    0    0  0.35986122502E-01  0.41236950688E-01  0.63127615731E-01  0.83551445850E-01  0.51100000000E-03 0. -1.
         11    1    4    4    0    0  0.22234722912E-01  0.34122795713E-01  0.26957263127E-01  0.48843661273E-01  0.51100000000E-03 0.  1.
</event>
<event>
 8    1  0.1086235E+005  0.1043930E+01  0.7957747E-01            NaN
         13   -1    0    0    0    0  0.00000000000E+00  0.00000000000E+00  0.74505805969E-08  0.10566000000E+00  0.10566000000E+00 0. -1.
     999900   -1    0    0    0    0 -0.00000000000E+00 -0.00000000000E+00 -0.74505805969E-08  0.93827000000E+00  0.93827000000E+00 0. -1.
     999902    2    1    2    0    0 -0.18078798864E-01  0.12984271081E-01 -0.95794779658E-02  0.10196977764E+01  0.10194098069E+01 0.  0.
     999903    2    3    3    0    0 -0.16277874567E-02  0.13632796518E-01 -0.12917671741E+00  0.13145537925E+00  0.20134288699E-01 0.  0.
         14    1    1    2    0    0  0.18078798864E-01 -0.12984271081E-01  0.95794779658E-02  0.24232223628E-01  0.00000000000E+00 0.  1.
     999901    1    3    3    0    0 -0.16451011408E-01 -0.64852543702E-03  0.11959723944E+00  0.88824239712E+00  0.88000000000E+00 0.  1.
        -11    1    4    4    0    0 -0.54522285656E-02  0.17400562510E-01 -0.84001657307E-01  0.85959559813E-01  0.51100000000E-03 0. -1.
         11    1    4    4    0    0  0.38244411089E-02 -0.37677659924E-02 -0.45175060099E-01  0.45495819438E-01  0.51100000000E-03 0.  1.
</event>
<event>
 8    1  0.1086235E+005  0.1043930E+01  0.7957747E-01            NaN
         13   -1    0    0    0    0  0.00000000000E+00  0.00000000000E+00  0.74505805969E-08  0.10566000000E+00  0.10566000000E+00 0.  1.
     999900   -1    0    0    0    0 -0.00000000000E+00 -0.00000000000E+00 -0.74505805969E-08  0.93827000000E+00  0.93827000000E+00 0. -1.
     999902    2    1    2    0    0 -0.18044378548E-01 -0.30636433951E-02  0.17211008426E-01  0.10188062200E+01  0.10184963965E+01 0.  0.
     999903    2    3    3    0    0 -0.42242123879E-01  0.12085494059E+00  0.60513421529E-02  0.12972473644E+00  0.20039331525E-01 0.  0.
         14    1    1    2    0    0  0.18044378548E-01  0.30636433951E-02 -0.17211008426E-01  0.25123779952E-01  0.00000000000E+00 0. -1.
     999901    1    3    3    0    0  0.24197745331E-01 -0.12391858399E+00  0.11159666273E-01  0.88908148360E+00  0.88000000000E+00 0.  1.
        -11    1    4    4    0    0 -0.27511599066E-01  0.68343913443E-01 -0.58287448113E-02  0.73905439414E-01  0.51100000000E-03 0. -1.
         11    1    4    4    0    0 -0.14730524812E-01  0.52511027151E-01  0.11880086964E-01  0.55819297030E-01  0.51100000000E-03 0.  1.
</event>
<event>
 8    1  0.1086235E+005  0.1043930E+01  0.7957747E-01            NaN
         13   -1    0    0    0    0  0.00000000000E+00  0.00000000000E+00  0.74505805969E-08  0.10566000000E+00  0.10566000000E+00 0. -1.
     999900   -1    0    0    0    0 -0.00000000000E+00 -0.00000000000E+00 -0.74505805969E-08  0.93827000000E+00  0.93827000000E+00 0.  1.
     999902    2    1    2    0    0  0.93229801685E-02 -0.90142753875E-02 -0.19880146938E-01  0.10201940492E+01  0.10199178901E+01 0.  0.
     999903    2    3    3    0    0 -0.11412120436E+00  0.33911508088E-01  0.43594749776E-01  0.12828029094E+00  0.19536918164E-01 0.  0.
         14    1    1    2    0    0 -0.93229801685E-02  0.90142753875E-02  0.19880146938E-01  0.23735950840E-01  0.00000000000E+00 0.  1.
     999901    1    3    3    0    0  0.12344418453E+00 -0.42925783475E-01 -0.63474896714E-01  0.89191375822E+00  0.88000000000E+00 0.  1.
        -11    1    4    4    0    0 -0.68045126730E-01  0.22838716813E-01  0.35949751735E-01  0.80276970721E-01  0.51100000000E-03 0.  1.
         11    1    4    4    0    0 -0.46076077631E-01  0.11072791275E-01  0.76449980409E-02  0.48003320223E-01  0.51100000000E-03 0. -1.
</event>
<event>
 8    1  0.1086235E+005  0.1043930E+01  0.7957747E-01            NaN
         13   -1    0    0    0    0  0.00000000000E+00  0.00000000000E+00  0.74505805969E-08  0.10566000000E+00  0.10566000000E+00 0.  1.
     999900   -1    0    0    0    0 -0.00000000000E+00 -0.00000000000E+00 -0.74505805969E-08  0.93827000000E+00  0.93827000000E+00 0.  1.
     999902    2    1    2    0    0 -0.86915739550E-02 -0.13336586472E-01  0.16496807934E-01  0.10210050645E+01  0.10207476618E+01 0.  0.
     999903    2    3    3    0    0  0.91507505378E-01 -0.91917097828E-01 -0.84156262425E-02  0.13149093776E+00  0.19916514096E-01 0.  0.
         14    1    1    2    0    0  0.86915739550E-02  0.13336586472E-01 -0.16496807934E-01  0.22924935519E-01  0.00000000000E+00 0. -1.
     999901    1    3    3    0    0 -0.10019907933E+00  0.78580511355E-01  0.24912434176E-01  0.88951412672E+00  0.88000000000E+00 0.  1.
        -11    1    4    4    0    0  0.49464129798E-01 -0.39397166504E-01  0.27262579209E-02  0.63297160035E-01  0.51100000000E-03 0. -1.
         11    1    4    4    0    0  0.42043375580E-01 -0.52519931323E-01 -0.11141884163E-01  0.68193777723E-01  0.51100000000E-03 0.  1.
</event>
<event>
 8    1  0.1086235E+005  0.1043930E+01  0.7957747E-01            NaN
         13   -1    0    0    0    0  0.00000000000E+00  0.00000000000E+00  0.74505805969E-08  0.10566000000E+00  0.10566000000E+00 0.  1.
     999900   -1    0    0    0    0 -0.00000000000E+00 -0.00000000000E+00 -0.74505805969E-08  0.93827000000E+00  0.93827000000E+00 0. -1.
     999902    2    1    2    0    0 -0.19056824432E-01 -0.10809919831E-01 -0.87630149711E-02  0.10203332342E+01  0.10200603421E+01 0.  0.
     999903    2    3    3    0    0 -0.48648299076E-01  0.89559473046E-01  0.77991815045E-01  0.12989734605E+00  0.20075883086E-01 0.  0.
         14    1    1    2    0    0  0.19056824432E-01  0.10809919831E-01  0.87630149711E-02  0.23596765786E-01  0.00000000000E+00 0.  1.
     999901    1    3    3    0    0  0.29591474644E-01 -0.10036939288E+00 -0.86754830016E-01  0.89043588816E+00  0.88000000000E+00 0. -1.
        -11    1    4    4    0    0 -0.18139183696E-01  0.53531961049E-01  0.39117326772E-01  0.68739560761E-01  0.51100000000E-03 0.  1.
         11    1    4    4    0    0 -0.30509115380E-01  0.36027511997E-01  0.38874488273E-01  0.61157785289E-01  0.51100000000E-03 0. -1.
</event>
<event>
 8    1  0.1086235E+005  0.1043930E+01  0.7957747E-01            NaN
         13   -1    0    0    0    0  0.00000000000E+00  0.00000000000E+00  0.74505805969E-08  0.10566000000E+00  0.10566000000E+00 0.  1.
     999900   -1    0    0    0    0 -0.00000000000E+00 -0.00000000000E+00 -0.74505805969E-08  0.93827000000E+00  0.93827000000E+00 0. -1.
     999902    2    1    2    0    0 -0.16070562010E-01 -0.84850849452E-03  0.16071233392E-01  0.10211864850E+01  0.10209331857E+01 0.  0.
     999903    2    3    3    0    0  0.82678079513E-01 -0.96086687940E-01  0.24850889786E-01  0.13051331974E+00  0.18650562299E-01 0.  0.
         14    1    1    2    0    0  0.16070562010E-01  0.84850849452E-03 -0.16071233392E-01  0.22743514960E-01  0.00000000000E+00 0.  1.
     999901    1    3    3    0    0 -0.98748641523E-01  0.95238179445E-01 -0.87796563937E-02  0.89067316530E+00  0.88000000000E+00 0.  1.
        -11    1    4    4    0    0  0.44092467098E-01 -0.44009596286E-01  0.40084568733E-02  0.62428511656E-01  0.51100000000E-03 0.  1.
         11    1    4    4    0    0  0.38585612415E-01 -0.52077091654E-01  0.20842432913E-01  0.68084808080E-01  0.51100000000E-03 0. -1.
</event>
<event>
 7    1  0.1086235E+005  0.1043930E+01  0.7957747E-01            NaN
         13   -1    0    0    0    0  0.00000000000E+00  0.00000000000E+00  0.74505805969E-08  0.10566000000E+00  0.10566000000E+00 0.  1.
     999900   -1    0    0    0    0 -0.00000000000E+00 -0.00000000000E+00 -0.74505805969E-08  0.93827000000E+00  0.93827000000E+00 0. -1.
     999902    2    1    2    0    0  0.72491880600E-03 -0.45850804128E-02  0.22882294433E-01  0.10205815982E+01  0.10203144861E+01 0.  0.
         14    1    1    2    0    0 -0.72491880600E-03  0.45850804128E-02 -0.22882294433E-01  0.23348401834E-01  0.00000000000E+00 0. -1.
     999901    1    3    3    0    0  0.10056715570E-01  0.11874225435E+00  0.43121866594E-01  0.88907837443E+00  0.88000000000E+00 0.  1.
        -11    1    3    3    0    0 -0.13285311590E-01 -0.71380600732E-01 -0.29885895382E-01  0.78518262390E-01  0.51100000000E-03 0.  1.
         11    1    3    3    0    0  0.39535148258E-02 -0.51946734035E-01  0.96463232210E-02  0.52984961348E-01  0.51100000000E-03 0. -1.
</event>
<event>
 8    1  0.1086235E+005  0.1043930E+01  0.7957747E-01            NaN
         13   -1    0    0    0    0  0.00000000000E+00  0.00000000000E+00  0.74505805969E-08  0.10566000000E+00  0.10566000000E+00 0. -1.
     999900   -1    0    0    0    0 -0.00000000000E+00 -0.00000000000E+00 -0.74505805969E-08  0.93827000000E+00  0.93827000000E+00 0. -1.
     999902    2    1    2    0    0 -0.22359714095E-01 -0.83298242797E-02  0.10598050598E-01  0.10178213527E+01  0.10174864346E+01 0.  0.
     999903    2    3    3    0    0  0.69052164552E-01 -0.88431279101E-01  0.58717649228E-01  0.12816531221E+00  0.19755818647E-01 0.  0.
         14    1    1    2    0    0  0.22359714095E-01  0.83298242797E-02 -0.10598050598E-01  0.26108647292E-01  0.00000000000E+00 0.  1.
     999901    1    3    3    0    0 -0.91411878647E-01  0.80101454821E-01 -0.48119598630E-01  0.88965604050E+00  0.88000000000E+00 0. -1.
        -11    1    4    4    0    0  0.45580331497E-01 -0.43399231881E-01  0.36259362539E-01  0.72636509002E-01  0.51100000000E-03 0. -1.
         11    1    4    4    0    0  0.23471833055E-01 -0.45032047220E-01  0.22458286689E-01  0.55528803209E-01  0.51100000000E-03 0.  1.
</event>
<event>
 8    1  0.1086235E+005  0.1043930E+01  0.7957747E-01            NaN
         13   -1    0    0    0    0  0.00000000000E+00  0.00000000000E+00  0.74505805969E-08  0.10566000000E+00  0.10566000000E+00 0.  1.
     999900   -1    0    0    0    0 -0.00000000000E+00 -0.00000000000E+00 -0.74505805969E-08  0.93827000000E+00  0.93827000000E+00 0.  1.
     999902    2    1    2    0    0  0.16726542366E-01 -0.16080816955E-01 -0.10682389691E-02  0.10207026233E+01  0.10204383049E+01 0.  0.
     999903    2    3    3    0    0 -0.75180712747E-01 -0.12178308988E-01  0.10087012668E+00  0.13005476725E+00  0.30643257819E-01 0.  0.
         14    1    1    2    0    0 -0.16726542366E-01  0.16080816955E-01  0.10682389691E-02  0.23227376691E-01  0.00000000000E+00 0.  1.
     999901    1    3    3    0    0  0.91907255113E-01 -0.39025079665E-02 -0.10193836565E+00  0.89064785606E+00  0.88000000000E+00 0.  1.
        -11    1    4    4    0    0 -0.45227546467E-01  0.46586179700E-02  0.42056702402E-01  0.61937557416E-01  0.51100000000E-03 0. -1.
         11    1    4    4    0    0 -0.29953166280E-01 -0.16836926958E-01  0.58813424275E-01  0.68117209834E-01  0.51100000000E-03 0.  1.
</event>
<event>
 8    1  0.1086235E+005  0.1043930E+01  0.7957747E-01            NaN
         13   -1    0    0    0    0  0.00000000000E+00  0.00000000000E+00  0.74505805969E-08  0.10566000000E+00  0.10566000000E+00 0. -1.
     999900   -1    0    0    0    0 -0.00000000000E+00 -0.00000000000E+00 -0.74505805969E-08  0.93827000000E+00  0.93827000000E+00 0. -1.
     999902    2    1    2    0    0 -0.16426466818E-01 -0.13582517071E-01  0.77220165992E-02  0.10212596863E+01  0.10210080332E+01 0.  0.
     999903    2    3    3    0    0  0.82050394215E-01 -0.93050965991E-01  0.39504351977E-01  0.13164008032E+00  0.19436240861E-01 0.  0.
         14    1    1    2    0    0  0.16426466818E-01  0.13582517071E-01 -0.77220165992E-02  0.22670313683E-01  0.00000000000E+00 0.  1.
     999901    1    3    3    0    0 -0.98476861034E-01  0.79468448921E-01 -0.31782335378E-01  0.88961960600E+00  0.88000000000E+00 0.  1.
        -11    1    4    4    0    0  0.36726325299E-01 -0.28275920544E-01  0.11401749262E-01  0.47734805539E-01  0.51100000000E-03 0. -1.
         11    1    4    4    0    0  0.45324068916E-01 -0.64775045447E-01  0.28102602715E-01  0.83905274781E-01  0.51100000000E-03 0.  1.
</event>
<event>
 8    1  0.1086235E+005  0.1043930E+01  0.7957747E-01            NaN
         13   -1    0    0    0    0  0.00000000000E+00  0.00000000000E+00  0.74505805969E-08  0.10566000000E+00  0.10566000000E+00 0. -1.
     999900   -1    0    0    0    0 -0.00000000000E+00 -0.00000000000E+00 -0.74505805969E-08  0.93827000000E+00  0.93827000000E+00 0.  1.
     999902    2    1    2    0    0  0.32772521940E-02  0.10414186860E-01  0.21155260256E-01  0.10201236835E+01  0.10198458653E+01 0.  0.
     999903    2    3    3    0    0 -0.10754441991E-01 -0.11352690269E+00 -0.54681371097E-01  0.12809819237E+00  0.20373484905E-01 0.  0.
         14    1    1    2    0    0 -0.32772521940E-02 -0.10414186860E-01 -0.21155260256E-01  0.23806316523E-01  0.00000000000E+00 0.  1.
     999901    1    3    3    0    0  0.14031694185E-01  0.12394108955E+00  0.75836631352E-01  0.89202549110E+00  0.88000000000E+00 0. -1.
        -11    1    4    4    0    0 -0.18557123187E-02 -0.61981699709E-01 -0.19298285572E-01  0.64945051497E-01  0.51100000000E-03 0. -1.
         11    1    4    4    0    0 -0.88987296721E-02 -0.51545202984E-01 -0.35383085525E-01  0.63153140878E-01  0.51100000000E-03 0.  1.
</event>
<event>
 8    1  0.1086235E+005  0.1043930E+01  0.7957747E-01            NaN
         13   -1    0    0    0    0  0.00000000000E+00  0.00000000000E+00  0.74505805969E-08  0.10566000000E+00  0.10566000000E+00 0. -1.
     999900   -1    0    0    0    0 -0.00000000000E+00 -0.00000000000E+00 -0.74505805969E-08  0.93827000000E+00  0.93827000000E+00 0. -1.
     999902    2    1    2    0    0  0.13808722579E-01  0.56942276281E-02 -0.17515996475E-01  0.10209101134E+01  0.10206505496E+01 0.  0.
     999903    2    3    3    0    0  0.14967154606E-01 -0.17482304037E-01 -0.12979858041E+00  0.13347230021E+00  0.20917379757E-01 0.  0.
         14    1    1    2    0    0 -0.13808722579E-01 -0.56942276281E-02  0.17515996475E-01  0.23019886622E-01  0.00000000000E+00 0. -1.
     999901    1    3    3    0    0 -0.11584320272E-02  0.23176531665E-01  0.11228258393E+00  0.88743781317E+00  0.88000000000E+00 0.  1.
        -11    1    4    4    0    0  0.31127818068E-02 -0.97950158205E-02 -0.99576586572E-01  0.10010689017E+00  0.51100000000E-03 0.  1.
         11    1    4    4    0    0  0.11854372800E-01 -0.76872882163E-02 -0.30221993837E-01  0.33365410039E-01  0.51100000000E-03 0. -1.
</event>
<event>
 8    1  0.1086235E+005  0.1043930E+01  0.7957747E-01            NaN
         13   -1    0    0    0    0  0.00000000000E+00  0.00000000000E+00  0.74505805969E-08  0.10566000000E+00  0.10566000000E+00 0. -1.
     999900   -1    0    0    0    0 -0.00000000000E+00 -0.00000000000E+00 -0.74505805969E-08  0.93827000000E+00  0.93827000000E+00 0.  1.
     999902    2    1    2    0    0 -0.15850238834E-02  0.24046292876E-01  0.20471351647E-02  0.10197447304E+01  0.10194578893E+01 0.  0.
     999903    2    3    3    0    0  0.19237931982E-01  0.12758901008E+00  0.25858962649E-01  0.13310969114E+00  0.20011256961E-01 0.  0.
         14    1    1    2    0    0  0.15850238834E-02 -0.24046292876E-01 -0.20471351647E-02  0.24185269570E-01  0.00000000000E+00 0.  1.
     999901    1    3    3    0    0 -0.20822955865E-01 -0.10354271720E+00 -0.23811827485E-01  0.88663503929E+00  0.88000000000E+00 0. -1.
        -11    1    4    4    0    0  0.35150372186E-03  0.74981388318E-03 -0.16855581530E-02  0.19462792742E-02  0.51100000000E-03 0.  1.
         11    1    4    4    0    0  0.18886428260E-01  0.12683919620E+00  0.27544520802E-01  0.13116341186E+00  0.51100000000E-03 0. -1.
</event>
<event>
 8    1  0.1086235E+005  0.1043930E+01  0.7957747E-01            NaN
         13   -1    0    0    0    0  0.00000000000E+00  0.00000000000E+00  0.74505805969E-08  0.10566000000E+00  0.10566000000E+00 0. -1.
     999900   -1    0    0    0    0 -0.00000000000E+00 -0.00000000000E+00 -0.74505805969E-08  0.93827000000E+00  0.93827000000E+00 0.  1.
     999902    2    1    2    0    0 -0.12150579687E-01 -0.19689478280E-01  0.27199857649E-02  0.10206338530E+01  0.10203679491E+01 0.  0.
     999903    2    3    3    0    0 -0.98164147311E-01 -0.15895524231E-01  0.85958525011E-01  0.13252272128E+00  0.16868198634E-01 0.  0.
         14    1    1    2    0    0  0.12150579687E-01  0.19689478280E-01 -0.27199857649E-02  0.23296146982E-01  0.00000000000E+00 0.  1.
     999901    1    3    3    0    0  0.86013567624E-01 -0.37939540492E-02 -0.83238539247E-01  0.88811113174E+00  0.88000000000E+00 0.  1.
        -11    1    4    4    0    0 -0.74359050354E-01 -0.14617954852E-01  0.73699887463E-01  0.10571134048E+00  0.51100000000E-03 0. -1.
         11    1    4    4    0    0 -0.23805096957E-01 -0.12775693787E-02  0.12258637548E-01  0.26811380796E-01  0.51100000000E-03 0.  1.
</event>
<event>
 8    1  0.1086235E+005  0.1043930E+01  0.7957747E-01            NaN
         13   -1    0    0    0    0  0.00000000000E+00  0.00000000000E+00  0.74505805969E-08  0.10566000000E+00  0.10566000000E+00 0.  1.
     999900   -1    0    0    0    0 -0.00000000000E+00 -0.00000000000E+00 -0.74505805969E-08  0.93827000000E+00  0.93827000000E+00 0.  1.
     999902    2    1    2    0    0 -0.10437083784E-01 -0.17637069202E-01 -0.11138863081E-01  0.10206046233E+01  0.10203380439E+01 0.  0.
     999903    2    3    3    0    0  0.23158566676E-02 -0.11664775908E-01 -0.13048590931E+00  0.13243683327E+00  0.19274648917E-01 0.  0.
         14    1    1    2    0    0  0.10437083784E-01  0.17637069202E-01  0.11138863081E-01  0.23325376710E-01  0.00000000000E+00 0. -1.
     999901    1    3    3    0    0 -0.12752940451E-01 -0.59722932937E-02  0.11934704623E+00  0.88816779002E+00  0.88000000000E+00 0. -1.
        -11    1    4    4    0    0  0.70976558929E-02 -0.14975902121E-01 -0.87605904843E-01  0.89161146515E-01  0.51100000000E-03 0.  1.
         11    1    4    4    0    0 -0.47817992253E-02  0.33111262127E-02 -0.42880004464E-01  0.43275686759E-01  0.51100000000E-03 0. -1.
</event>
<event>
 8    1  0.1086235E+005  0.1043930E+01  0.7957747E-01            NaN
         13   -1    0    0    0    0  0.00000000000E+00  0.00000000000E+00  0.74505805969E-08  0.10566000000E+00  0.10566000000E+00 0. -1.
     999900   -1    0    0    0    0 -0.00000000000E+00 -0.00000000000E+00 -0.74505805969E-08  0.93827000000E+00  0.93827000000E+00 0.  1.
     999902    2    1    2    0    0  0.58490968383E-02  0.20338864354E-01  0.10134735044E-01  0.10204652564E+01  0.10201954447E+01 0.  0.
     999903    2    3    3    0    0  0.55962851299E-01 -0.71469493812E-01 -0.89492629355E-01  0.12868850478E+00  0.17665539428E-01 0.  0.
         14    1    1    2    0    0 -0.58490968383E-02 -0.20338864354E-01 -0.10134735044E-01  0.23464743583E-01  0.00000000000E+00 0.  1.
     999901    1    3    3    0    0 -0.50113754461E-01  0.91808358166E-01  0.99627364399E-01  0.89177675163E+00  0.88000000000E+00 0. -1.
        -11    1    4    4    0    0  0.16824407043E-01 -0.31133256681E-01 -0.26152026963E-01  0.44006022079E-01  0.51100000000E-03 0.  1.
         11    1    4    4    0    0  0.39138444257E-01 -0.40336237131E-01 -0.63340602392E-01  0.84682482705E-01  0.51100000000E-03 0. -1.
</event>
<event>
 8    1  0.1086235E+005  0.1043930E+01  0.7957747E-01            NaN
         13   -1    0    0    0    0  0.00000000000E+00  0.00000000000E+00  0.74505805969E-08  0.10566000000E+00  0.10566000000E+00 0. -1.
     999900   -1    0    0    0    0 -0.00000000000E+00 -0.00000000000E+00 -0.74505805969E-08  0.93827000000E+00  0.93827000000E+00 0.  1.
     999902    2    1    2    0    0  0.13968098892E-01  0.54384497011E-02 -0.18236032029E-01  0.10203241239E+01  0.10200510186E+01 0.  0.
     999903    2    3    3    0    0 -0.75230131142E-01 -0.98174572006E-01 -0.33927972632E-01  0.12962876661E+00  0.18833230922E-01 0.  0.
         14    1    1    2    0    0 -0.13968098892E-01 -0.54384497011E-02  0.18236032029E-01  0.23605876089E-01  0.00000000000E+00 0. -1.
     999901    1    3    3    0    0  0.89198230034E-01  0.10361302171E+00  0.15691940604E-01  0.89069535730E+00  0.88000000000E+00 0.  1.
        -11    1    4    4    0    0 -0.44772741973E-01 -0.67847307400E-01 -0.29241316036E-01  0.86389647700E-01  0.51100000000E-03 0.  1.
         11    1    4    4    0    0 -0.30457389170E-01 -0.30327264606E-01 -0.46866565962E-02  0.43239118915E-01  0.51100000000E-03 0. -1.
</event>
<event>
 8    1  0.1086235E+005  0.1043930E+01  0.7957747E-01            NaN
         13   -1    0    0    0    0  0.00000000000E+00  0.00000000000E+00  0.74505805969E-08  0.10566000000E+00  0.10566000000E+00 0. -1.
     999900   -1    0    0    0    0 -0.00000000000E+00 -0.00000000000E+00 -0.74505805969E-08  0.93827000000E+00  0.93827000000E+00 0. -1.
     999902    2    1    2    0    0 -0.15999612471E-01  0.11692991050E-01 -0.16966417413E-01  0.10178422067E+01  0.10175078303E+01 0.  0.
     999903    2    3    3    0    0 -0.11746935709E+00 -0.51255877442E-01 -0.27118833078E-02  0.12966324903E+00  0.19467640082E-01 0.  0.
         14    1    1    2    0    0  0.15999612471E-01 -0.11692991050E-01  0.16966417413E-01  0.26087793291E-01  0.00000000000E+00 0. -1.
     999901    1    3    3    0    0  0.10146974462E+00  0.62948868492E-01 -0.14254534106E-01  0.88817895768E+00  0.88000000000E+00 0.  1.
        -11    1    4    4    0    0 -0.10997247134E+00 -0.42720324277E-01 -0.49054028443E-02  0.11808172872E+00  0.51100000000E-03 0.  1.
         11    1    4    4    0    0 -0.74968857519E-02 -0.85355531654E-02  0.21935195366E-02  0.11581520314E-01  0.51100000000E-03 0. -1.
</event>
<event>
 7    1  0.1279268E+005  0.1043930E+01  0.7957747E-01            NaN
         13   -1    0    0    0    0  0.00000000000E+00  0.00000000000E+00  0.74505805969E-08  0.10566000000E+00  0.10566000000E+00 0. -1.
     999900   -1    0    0    0    0 -0.00000000000E+00 -0.00000000000E+00 -0.74505805969E-08  0.93827000000E+00  0.93827000000E+00 0.  1.
     999903    2    1    2    0    0 -0.91233016535E-01  0.41479815833E-01 -0.85948592198E-02  0.10252789670E+00  0.19850933706E-01 0.  0.
         14    1    1    2    0    0 -0.95822062197E-02  0.31657368231E-01  0.40214672852E-01  0.52069449315E-01  0.00000000000E+00 0. -1.
     999901    1    1    2    0    0  0.10081522275E+00 -0.73137184065E-01 -0.31619813632E-01  0.88933265399E+00  0.88000000000E+00 0.  1.
        -11    1    3    3    0    0 -0.25806268295E-01  0.21722448884E-01 -0.87907667607E-03  0.33747031953E-01  0.51100000000E-03 0.  1.
         11    1    3    3    0    0 -0.65426748240E-01  0.19757366949E-01 -0.77157825437E-02  0.68780864746E-01  0.51100000000E-03 0. -1.
</event>
<event>
 8    1  0.1086235E+005  0.1043930E+01  0.7957747E-01            NaN
         13   -1    0    0    0    0  0.00000000000E+00  0.00000000000E+00  0.74505805969E-08  0.10566000000E+00  0.10566000000E+00 0. -1.
     999900   -1    0    0    0    0 -0.00000000000E+00 -0.00000000000E+00 -0.74505805969E-08  0.93827000000E+00  0.93827000000E+00 0. -1.
     999902    2    1    2    0    0  0.11832136639E-01  0.10772550604E-01 -0.12043415405E-01  0.10239027396E+01  0.10237068570E+01 0.  0.
     999903    2    3    3    0    0  0.12544628861E+00  0.39764189663E-01 -0.27781428709E-01  0.13598586528E+00  0.20059553068E-01 0.  0.
         14    1    1    2    0    0 -0.11832136639E-01 -0.10772550604E-01  0.12043415405E-01  0.20027260386E-01  0.00000000000E+00 0. -1.
     999901    1    3    3    0    0 -0.11361415197E+00 -0.28991639059E-01  0.15738013304E-01  0.88791687433E+00  0.88000000000E+00 0.  1.
        -11    1    4    4    0    0  0.40156728934E-01  0.20073118669E-01 -0.15995295416E-01  0.47661342493E-01  0.51100000000E-03 0. -1.
         11    1    4    4    0    0  0.85289559676E-01  0.19691070994E-01 -0.11786133294E-01  0.88324522787E-01  0.51100000000E-03 0.  1.
</event>
<event>
 8    1  0.1086235E+005  0.1043930E+01  0.7957747E-01            NaN
         13   -1    0    0    0    0  0.00000000000E+00  0.00000000000E+00  0.74505805969E-08  0.10566000000E+00  0.10566000000E+00 0. -1.
     999900   -1    0    0    0    0 -0.00000000000E+00 -0.00000000000E+00 -0.74505805969E-08  0.93827000000E+00  0.93827000000E+00 0. -1.
     999902    2    1    2    0    0 -0.17743229151E-01 -0.62647615698E-03 -0.14996410151E-01  0.10206897984E+01  0.10204251847E+01 0.  0.
     999903    2    3    3    0    0 -0.14211684554E-01  0.48563543218E-01  0.11740963290E+00  0.12941908192E+00  0.20096944044E-01 0.  0.
         14    1    1    2    0    0  0.17743229151E-01  0.62647615698E-03  0.14996410151E-01  0.23240201602E-01  0.00000000000E+00 0. -1.
     999901    1    3    3    0    0 -0.35315445975E-02 -0.49190019375E-01 -0.13240604305E+00  0.89127071648E+00  0.88000000000E+00 0. -1.
        -11    1    4    4    0    0 -0.79037267205E-02  0.19850717378E-01  0.27528270909E-01  0.34850921031E-01  0.51100000000E-03 0. -1.
         11    1    4    4    0    0 -0.63079578331E-02  0.28712825840E-01  0.89881361990E-01  0.94568160889E-01  0.51100000000E-03 0.  1.
</event>
<event>
 8    1  0.1086235E+005  0.1043930E+01  0.7957747E-01            NaN
         13   -1    0    0    0    0  0.00000000000E+00  0.00000000000E+00  0.74505805969E-08  0.10566000000E+00  0.10566000000E+00 0. -1.
     999900   -1    0    0    0    0 -0.00000000000E+00 -0.00000000000E+00 -0.74505805969E-08  0.93827000000E+00  0.93827000000E+00 0.  1.
     999902    2    1    2    0    0 -0.13613821946E-01  0.18723332086E-01 -0.36497132953E-02  0.10204945627E+01  0.10202254324E+01 0.  0.
     999903    2    3    3    0    0 -0.13071136046E+00 -0.27113404455E-02  0.84367748814E-02  0.13239695442E+00  0.19104011315E-01 0.  0.
         14    1    1    2    0    0  0.13613821946E-01 -0.18723332086E-01  0.36497132953E-02  0.23435437259E-01  0.00000000000E+00 0.  1.
     999901    1    3    3    0    0  0.11709753851E+00  0.21434672532E-01 -0.12086488177E-01  0.88809760832E+00  0.88000000000E+00 0. -1.
        -11    1    4    4    0    0 -0.57739600036E-01 -0.67449684158E-02  0.11444001105E-01  0.59250167034E-01  0.51100000000E-03 0.  1.
         11    1    4    4    0    0 -0.72971760424E-01  0.40336279704E-02 -0.30072262241E-02  0.73146787384E-01  0.51100000000E-03 0. -1.
</event>
<event>
 8    1  0.1086235E+005  0.1043930E+01  0.7957747E-01            NaN
         13   -1    0    0    0    0  0.00000000000E+00  0.00000000000E+00  0.74505805969E-08  0.10566000000E+00  0.10566000000E+00 0.  1.
     999900   -1    0    0    0    0 -0.00000000000E+00 -0.00000000000E+00 -0.74505805969E-08  0.93827000000E+00  0.93827000000E+00 0. -1.
     999902    2    1    2    0    0  0.21254913961E-01  0.18953341026E-01  0.44108723716E-02  0.10151123613E+01  0.10147032324E+01 0.  0.
     999903    2    3    3    0    0  0.45852591225E-01 -0.10202424441E+00  0.52672750331E-01  0.12518549311E+00  0.19636254443E-01 0.  0.
         14    1    1    2    0    0 -0.21254913961E-01 -0.18953341026E-01 -0.44108723716E-02  0.28817638672E-01  0.00000000000E+00 0.  1.
     999901    1    3    3    0    0 -0.24597677264E-01  0.12097758544E+00 -0.48261877959E-01  0.88992686821E+00  0.88000000000E+00 0. -1.
        -11    1    4    4    0    0  0.13701705014E-01 -0.13020930157E-01  0.78512731120E-02  0.20474006762E-01  0.51100000000E-03 0.  1.
         11    1    4    4    0    0  0.32150886211E-01 -0.89003314257E-01  0.44821477219E-01  0.10471148635E+00  0.51100000000E-03 0. -1.
</event>
<event>
 8    1  0.1086235E+005  0.1043930E+01  0.7957747E-01            NaN
         13   -1    0    0    0    0  0.00000000000E+00  0.00000000000E+00  0.74505805969E-08  0.10566000000E+00  0.10566000000E+00 0. -1.
     999900   -1    0    0    0    0 -0.00000000000E+00 -0.00000000000E+00 -0.74505805969E-08  0.93827000000E+00  0.93827000000E+00 0.  1.
     999902    2    1    2    0    0  0.35322047720E-02 -0.12088947067E-01  0.20667716259E-01  0.10197272397E+01  0.10194399785E+01 0.  0.
     999903    2    3    3    0    0  0.12243837916E+00  0.38481363064E-01  0.37044640894E-02  0.13012969781E+00  0.21167031058E-01 0.  0.
         14    1    1    2    0    0 -0.35322047720E-02  0.12088947067E-01 -0.20667716259E-01  0.24202760320E-01  0.00000000000E+00 0.  1.
     999901    1    3    3    0    0 -0.11890617439E+00 -0.50570310131E-01  0.16963252170E-01  0.88959754187E+00  0.88000000000E+00 0. -1.
        -11    1    4    4    0    0  0.54732693684E-01  0.11055102960E-01  0.10295301275E-01  0.56781488257E-01  0.51100000000E-03 0. -1.
         11    1    4    4    0    0  0.67705685476E-01  0.27426260104E-01 -0.65908371851E-02  0.73348209554E-01  0.51100000000E-03 0.  1.
</event>
<event>
 8    1  0.1086235E+005  0.1043930E+01  0.7957747E-01            NaN
         13   -1    0    0    0    0  0.00000000000E+00  0.00000000000E+00  0.74505805969E-08  0.10566000000E+00  0.10566000000E+00 0.  1.
     999900   -1    0    0    0    0 -0.00000000000E+00 -0.00000000000E+00 -0.74505805969E-08  0.93827000000E+00  0.93827000000E+00 0.  1.
     999902    2    1    2    0    0  0.15902956725E-01 -0.54107880290E-02  0.19087275703E-01  0.10185035423E+01  0.10181861131E+01 0.  0.
     999903    2    3    3    0    0 -0.10491518294E+00  0.18587966293E-01  0.68968171635E-01  0.12852541507E+00  0.20235254351E-01 0.  0.
         14    1    1    2    0    0 -0.15902956725E-01  0.54107880290E-02 -0.19087275703E-01  0.25426457745E-01  0.00000000000E+00 0. -1.
     999901    1    3    3    0    0  0.12081813967E+00 -0.23998754322E-01 -0.49880895932E-01  0.88997812718E+00  0.88000000000E+00 0. -1.
        -11    1    4    4    0    0 -0.42121946260E-01  0.14296369895E-01  0.37364610358E-01  0.58094920407E-01  0.51100000000E-03 0. -1.
         11    1    4    4    0    0 -0.62793236682E-01  0.42915963980E-02  0.31603561277E-01  0.70430494667E-01  0.51100000000E-03 0.  1.
</event>
<event>
 8    1  0.1086235E+005  0.1043930E+01  0.7957747E-01            NaN
         13   -1    0    0    0    0  0.00000000000E+00  0.00000000000E+00  0.74505805969E-08  0.10566000000E+00  0.10566000000E+00 0. -1.
     999900   -1    0    0    0    0 -0.00000000000E+00 -0.00000000000E+00 -0.74505805969E-08  0.93827000000E+00  0.93827000000E+00 0. -1.
     999902    2    1    2    0    0 -0.17841785463E-01  0.33943101744E-02  0.15288730789E-01  0.10201898244E+01  0.10199135658E+01 0.  0.
     999903    2    3    3    0    0 -0.11360090626E+00  0.12132673085E-02  0.68603533662E-01  0.13338824883E+00  0.13391869696E-01 0.  0.
         14    1    1    2    0    0  0.17841785463E-01 -0.33943101744E-02 -0.15288730789E-01  0.23740175636E-01  0.00000000000E+00 0.  1.
     999901    1    3    3    0    0  0.95759120798E-01  0.21810428659E-02 -0.53314802873E-01  0.88680157553E+00  0.88000000000E+00 0. -1.
        -11    1    4    4    0    0 -0.58662080447E-01 -0.57883908541E-02  0.33224776166E-01  0.67667510840E-01  0.51100000000E-03 0.  1.
         11    1    4    4    0    0 -0.54938825815E-01  0.70016581627E-02  0.35378757496E-01  0.65720737990E-01  0.51100000000E-03 0. -1.
</event>
<event>
 8    1  0.1086235E+005  0.1043930E+01  0.7957747E-01            NaN
         13   -1    0    0    0    0  0.00000000000E+00  0.00000000000E+00  0.74505805969E-08  0.10566000000E+00  0.10566000000E+00 0. -1.
     999900   -1    0    0    0    0 -0.00000000000E+00 -0.00000000000E+00 -0.74505805969E-08  0.93827000000E+00  0.93827000000E+00 0.  1.
     999902    2    1    2    0    0 -0.94305138406E-02 -0.67663393458E-02  0.20676818566E-01  0.10202182146E+01  0.10199426242E+01 0.  0.
     999903    2    3    3    0    0 -0.10067565875E+00 -0.12983003329E-01 -0.78388529657E-01  0.12994956607E+00  0.20928007567E-01 0.  0.
         14    1    1    2    0    0  0.94305138406E-02  0.67663393458E-02 -0.20676818566E-01  0.23711785371E-01  0.00000000000E+00 0.  1.
     999901    1    3    3    0    0  0.91245144911E-01  0.62166639829E-02  0.99065348223E-01  0.89026864855E+00  0.88000000000E+00 0.  1.
        -11    1    4    4    0    0 -0.54642446621E-01 -0.53401036420E-02 -0.55136629008E-01  0.77811455834E-01  0.51100000000E-03 0.  1.
         11    1    4    4    0    0 -0.46033212130E-01 -0.76428996868E-02 -0.23251900649E-01  0.52138110240E-01  0.51100000000E-03 0. -1.
</event>
<event>
 8    1  0.1086235E+005  0.1043930E+01  0.7957747E-01            NaN
         13   -1    0    0    0    0  0.00000000000E+00  0.00000000000E+00  0.74505805969E-08  0.10566000000E+00  0.10566000000E+00 0. -1.
     999900   -1    0    0    0    0 -0.00000000000E+00 -0.00000000000E+00 -0.74505805969E-08  0.93827000000E+00  0.93827000000E+00 0.  1.
     999902    2    1    2    0    0  0.28094450288E-02 -0.23196579931E-01 -0.62388205626E-02  0.10197453523E+01  0.10194585261E+01 0.  0.
     999903    2    3    3    0    0  0.93557660984E-01  0.50773437389E-01 -0.70923119689E-01  0.12963813365E+00  0.21094523368E-01 0.  0.
         14    1    1    2    0    0 -0.28094450288E-02  0.23196579931E-01  0.62388205626E-02  0.24184647690E-01  0.00000000000E+00 0. -1.
     999901    1    3    3    0    0 -0.90748215955E-01 -0.73970017321E-01  0.64684299126E-01  0.89010721866E+00  0.88000000000E+00 0.  1.
        -11    1    4    4    0    0  0.75718945711E-01  0.49058333692E-01 -0.55045732079E-01  0.10568998337E+00  0.51100000000E-03 0. -1.
         11    1    4    4    0    0  0.17838715273E-01  0.17151036975E-02 -0.15877387609E-01  0.23948150275E-01  0.51100000000E-03 0.  1.
</event>
<event>
 8    1  0.1086235E+005  0.1043930E+01  0.7957747E-01            NaN
         13   -1    0    0    0    0  0.00000000000E+00  0.00000000000E+00  0.74505805969E-08  0.10566000000E+00  0.10566000000E+00 0.  1.
     999900   -1    0    0    0    0 -0.00000000000E+00 -0.00000000000E+00 -0.74505805969E-08  0.93827000000E+00  0.93827000000E+00 0.  1.
     999902    2    1    2    0    0  0.35855029804E-02 -0.97909303010E-02 -0.20731451221E-01  0.10207241555E+01  0.10204603326E+01 0.  0.
     999903    2    3    3    0    0  0.12373879726E+00 -0.39187267597E-01  0.82480088054E-02  0.13160056014E+00  0.20093429082E-01 0.  0.
         14    1    1    2    0    0 -0.35855029804E-02  0.97909303010E-02  0.20731451221E-01  0.23205844469E-01  0.00000000000E+00 0.  1.
     999901    1    3    3    0    0 -0.12015329428E+00  0.29396337296E-01 -0.28979460027E-01  0.88912359539E+00  0.88000000000E+00 0. -1.
        -11    1    4    4    0    0  0.59764581273E-01 -0.90164407922E-02  0.51225591270E-03  0.60445222362E-01  0.51100000000E-03 0. -1.
         11    1    4    4    0    0  0.63974215985E-01 -0.30170826804E-01  0.77357528927E-02  0.71155337781E-01  0.51100000000E-03 0.  1.
</event>
<event>
 8    1  0.1086235E+005  0.1043930E+01  0.7957747E-01            NaN
         13   -1    0    0    0    0  0.00000000000E+00  0.00000000000E+00  0.74505805969E-08  0.10566000000E+00  0.10566000000E+00 0.  1.
     999900   -1    0    0    0    0 -0.00000000000E+00 -0.00000000000E+00 -0.74505805969E-08  0.93827000000E+00  0.93827000000E+00 0. -1.
     999902    2    1    2    0    0  0.87512022285E-02 -0.22468583778E-01 -0.52881214868E-02  0.10192442748E+01  0.10189452914E+01 0.  0.
     999903    2    3    3    0    0 -0.72284849750E-02 -0.13062989765E+00 -0.62820636887E-02  0.13247755911E+00  0.19859964447E-01 0.  0.
         14    1    1    2    0    0 -0.87512022285E-02  0.22468583778E-01  0.52881214868E-02  0.24685725152E-01  0.00000000000E+00 0. -1.
     999901    1    3    3    0    0  0.15979687204E-01  0.10816131387E+00  0.99394220184E-03  0.88676671574E+00  0.88000000000E+00 0. -1.
        -11    1    4    4    0    0 -0.74227802247E-02 -0.40484228734E-01  0.56341633750E-02  0.41546063116E-01  0.51100000000E-03 0.  1.
         11    1    4    4    0    0  0.19429524969E-03 -0.90145668917E-01 -0.11916227064E-01  0.90931495993E-01  0.51100000000E-03 0. -1.
</event>
<event>
 8    1  0.1086235E+005  0.1043930E+01  0.7957747E-01            NaN
         13   -1    0    0    0    0  0.00000000000E+00  0.00000000000E+00  0.74505805969E-08  0.10566000000E+00  0.10566000000E+00 0.  1.
     999900   -1    0    0    0    0 -0.00000000000E+00 -0.00000000000E+00 -0.74505805969E-08  0.93827000000E+00  0.93827000000E+00 0.  1.
     999902    2    1    2    0    0 -0.17370117563E-01 -0.10111742504E-02 -0.16670338250E-01  0.10198334518E+01  0.10195487363E+01 0.  0.
     999903    2    3    3    0    0 -0.11309104738E+00 -0.61428648267E-01  0.20217388865E-01  0.13181685737E+00  0.20096697469E-01 0.  0.
         14    1    1    2    0    0  0.17370117563E-01  0.10111742504E-02  0.16670338250E-01  0.24096548194E-01  0.00000000000E+00 0.  1.
     999901    1    3    3    0    0  0.95720929822E-01  0.60417474017E-01 -0.36887727115E-01  0.88801659443E+00  0.88000000000E+00 0.  1.
        -11    1    4    4    0    0 -0.74141142315E-02  0.51331343812E-03  0.33477760076E-02  0.81670867340E-02  0.51100000000E-03 0. -1.
         11    1    4    4    0    0 -0.10567693315E+00 -0.61941961706E-01  0.16869612858E-01  0.12364977064E+00  0.51100000000E-03 0.  1.
</event>
<event>
 8    1  0.1342382E+005  0.1043930E+01  0.7957747E-01            NaN
         13   -1    0    0    0    0  0.00000000000E+00  0.00000000000E+00  0.74505805969E-08  0.10566000000E+00  0.10566000000E+00 0. -1.
     999900   -1    0    0    0    0 -0.00000000000E+00 -0.00000000000E+00 -0.74505805969E-08  0.93827000000E+00  0.93827000000E+00 0. -1.
     999902    2    1    2    0    0 -0.36536533273E-02  0.20662780613E-02 -0.22759106537E-01  0.10207870612E+01  0.10205246830E+01 0.  0.
     999903    2    3    3    0    0 -0.36894237553E-01  0.49638009227E-01 -0.11697671047E+00  0.13385698335E+00  0.20224353503E-01 0.  0.
         14    1    1    2    0    0  0.36536533273E-02 -0.20662780613E-02  0.22759106537E-01  0.23142938837E-01  0.00000000000E+00 0. -1.
     999901    1    3    3    0    0  0.33240584225E-01 -0.47571731165E-01  0.94217603929E-01  0.88693007782E+00  0.88000000000E+00 0.  1.
        -11    1    4    4    0    0 -0.69603674069E-02  0.25844464690E-01 -0.45397544283E-01  0.52702762902E-01  0.51100000000E-03 0.  1.
         11    1    4    4    0    0 -0.29933870146E-01  0.23793544536E-01 -0.71579166183E-01  0.81154220444E-01  0.51100000000E-03 0. -1.
</event>
<event>
 8    1  0.1086235E+005  0.1043930E+01  0.7957747E-01            NaN
         13   -1    0    0    0    0  0.00000000000E+00  0.00000000000E+00  0.74505805969E-08  0.10566000000E+00  0.10566000000E+00 0. -1.
     999900   -1    0    0    0    0 -0.00000000000E+00 -0.00000000000E+00 -0.74505805969E-08  0.93827000000E+00  0.93827000000E+00 0. -1.
     999902    2    1    2    0    0  0.14067225659E-01 -0.10800201592E-01  0.14165327599E-01  0.10212322535E+01  0.10209799840E+01 0.  0.
     999903    2    3    3    0    0 -0.14635991595E-01 -0.76497700849E-01 -0.10291618722E+00  0.13058747735E+00  0.19880572544E-01 0.  0.
         14    1    1    2    0    0 -0.14067225659E-01  0.10800201592E-01 -0.14165327599E-01  0.22697746543E-01  0.00000000000E+00 0. -1.
     999901    1    3    3    0    0  0.28703217254E-01  0.65697499258E-01  0.11708151482E+00  0.89064477610E+00  0.88000000000E+00 0.  1.
        -11    1    4    4    0    0 -0.75894950967E-02 -0.43024477875E-01 -0.73321920056E-01  0.85352628629E-01  0.51100000000E-03 0. -1.
         11    1    4    4    0    0 -0.70464964985E-02 -0.33473222974E-01 -0.29594267163E-01  0.45234848724E-01  0.51100000000E-03 0.  1.
</event>
<event>
 8    1  0.1086235E+005  0.1043930E+01  0.7957747E-01            NaN
         13   -1    0    0    0    0  0.00000000000E+00  0.00000000000E+00  0.74505805969E-08  0.10566000000E+00  0.10566000000E+00 0. -1.
     999900   -1    0    0    0    0 -0.00000000000E+00 -0.00000000000E+00 -0.74505805969E-08  0.93827000000E+00  0.93827000000E+00 0. -1.
     999902    2    1    2    0    0 -0.24097691511E-02  0.29808442496E-02  0.23230350563E-01  0.10203855398E+01  0.10201138702E+01 0.  0.
     999903    2    3    3    0    0 -0.12299536062E+00  0.12653203414E-01  0.41404747542E-01  0.13192352703E+00  0.20037504148E-01 0.  0.
         14    1    1    2    0    0  0.24097691511E-02 -0.29808442496E-02 -0.23230350563E-01  0.23544460220E-01  0.00000000000E+00 0.  1.
     999901    1    3    3    0    0  0.12058559147E+00 -0.96723591641E-02 -0.18174396980E-01  0.88846201275E+00  0.88000000000E+00 0.  1.
        -11    1    4    4    0    0 -0.69713089112E-01 -0.22057769676E-02  0.26691788729E-01  0.74682614791E-01  0.51100000000E-03 0. -1.
         11    1    4    4    0    0 -0.53282271511E-01  0.14858980381E-01  0.14712958813E-01  0.57240912234E-01  0.51100000000E-03 0.  1.
</event>
<event>
 8    1  0.1086235E+005  0.1043930E+01  0.7957747E-01            NaN
         13   -1    0    0    0    0  0.00000000000E+00  0.00000000000E+00  0.74505805969E-08  0.10566000000E+00  0.10566000000E+00 0. -1.
     999900   -1    0    0    0    0 -0.00000000000E+00 -0.00000000000E+00 -0.74505805969E-08  0.93827000000E+00  0.93827000000E+00 0. -1.
     999902    2    1    2    0    0 -0.19651584196E-02  0.44609208628E-02  0.21286157612E-01  0.10220928260E+01  0.10218595220E+01 0.  0.
     999903    2    3    3    0    0 -0.99150641917E-02  0.10040316752E+00  0.87103611176E-01  0.13439915536E+00  0.17233378534E-01 0.  0.
         14    1    1    2    0    0  0.19651584196E-02 -0.44609208628E-02 -0.21286157612E-01  0.21837174003E-01  0.00000000000E+00 0.  1.
     999901    1    3    3    0    0  0.79499057721E-02 -0.95942246656E-01 -0.65817453564E-01  0.88769367064E+00  0.88000000000E+00 0. -1.
        -11    1    4    4    0    0 -0.23279696924E-02  0.52736387147E-01  0.56088576594E-01  0.77024252788E-01  0.51100000000E-03 0.  1.
         11    1    4    4    0    0 -0.75870944993E-02  0.47666780372E-01  0.31015034582E-01  0.57374902572E-01  0.51100000000E-03 0. -1.
</event>
<event>
 8    1  0.1086235E+005  0.1043930E+01  0.7957747E-01            NaN
         13   -1    0    0    0    0  0.00000000000E+00  0.00000000000E+00  0.74505805969E-08  0.10566000000E+00  0.10566000000E+00 0.  1.
     999900   -1    0    0    0    0 -0.00000000000E+00 -0.00000000000E+00 -0.74505805969E-08  0.93827000000E+00  0.93827000000E+00 0.  1.
     999902    2    1    2    0    0 -0.22350902182E-01 -0.16568680918E-01 -0.13868172234E-01  0.10128428609E+01  0.10123656704E+01 0.  0.
     999903    2    3    3    0    0 -0.41631567043E-01  0.11385427735E+00 -0.25073468292E-02  0.12294906925E+00  0.20351977670E-01 0.  0.
         14    1    1    2    0    0  0.22350902182E-01  0.16568680918E-01  0.13868172234E-01  0.31087139091E-01  0.00000000000E+00 0. -1.
     999901    1    3    3    0    0  0.19280664861E-01 -0.13042295827E+00 -0.11360825405E-01  0.88989379166E+00  0.88000000000E+00 0.  1.
        -11    1    4    4    0    0 -0.32235268224E-01  0.83274448075E-01  0.70005041459E-02  0.89571281106E-01  0.51100000000E-03 0.  1.
         11    1    4    4    0    0 -0.93962988189E-02  0.30579829277E-01 -0.95078509751E-02  0.33377788143E-01  0.51100000000E-03 0. -1.
</event>
<event>
 8    1  0.1086235E+005  0.1043930E+01  0.7957747E-01            NaN
         13   -1    0    0    0    0  0.00000000000E+00  0.00000000000E+00  0.74505805969E-08  0.10566000000E+00  0.10566000000E+00 0. -1.
     999900   -1    0    0    0    0 -0.00000000000E+00 -0.00000000000E+00 -0.74505805969E-08  0.93827000000E+00  0.93827000000E+00 0. -1.
     999902    2    1    2    0    0 -0.11315577647E-02  0.97179204516E-02  0.21040201970E-01  0.10207263688E+01  0.10204625968E+01 0.  0.
     999903    2    3    3    0    0 -0.44066200079E-01  0.11592532647E+00 -0.38104563450E-01  0.13133247415E+00  0.20389941280E-01 0.  0.
         14    1    1    2    0    0  0.11315577647E-02 -0.97179204516E-02 -0.21040201970E-01  0.23203631177E-01  0.00000000000E+00 0.  1.
     999901    1    3    3    0    0  0.42934642315E-01 -0.10620740601E+00  0.59144765420E-01  0.88939389467E+00  0.88000000000E+00 0.  1.
        -11    1    4    4    0    0 -0.38341470307E-01  0.74530667957E-01 -0.27560119566E-01  0.88231004318E-01  0.51100000000E-03 0.  1.
         11    1    4    4    0    0 -0.57247297728E-02  0.41394658508E-01 -0.10544443885E-01  0.43101469834E-01  0.51100000000E-03 0. -1.
</event>
<event>
 8    1  0.1086235E+005  0.1043930E+01  0.7957747E-01            NaN
         13   -1    0    0    0    0  0.00000000000E+00  0.00000000000E+00  0.74505805969E-08  0.10566000000E+00  0.10566000000E+00 0.  1.
     999900   -1    0    0    0    0 -0.00000000000E+00 -0.00000000000E+00 -0.74505805969E-08  0.93827000000E+00  0.93827000000E+00 0.  1.
     999902    2    1    2    0    0 -0.18083666414E-01 -0.86161717978E-02  0.14023867264E-01  0.10194774692E+01  0.10191841757E+01 0.  0.
     999903    2    3    3    0    0  0.50021352230E-01  0.55374902578E-01  0.10443331902E+00  0.12992307510E+00  0.20128879971E-01 0.  0.
         14    1    1    2    0    0  0.18083666414E-01  0.86161717978E-02 -0.14023867264E-01  0.24452530758E-01  0.00000000000E+00 0. -1.
     999901    1    3    3    0    0 -0.68105018644E-01 -0.63991074376E-01 -0.90409451753E-01  0.88955439414E+00  0.88000000000E+00 0.  1.
        -11    1    4    4    0    0  0.11574501087E-01  0.22956712614E-01  0.47059535488E-01  0.53626865756E-01  0.51100000000E-03 0.  1.
         11    1    4    4    0    0  0.38446851142E-01  0.32418189964E-01  0.57373783530E-01  0.76296209347E-01  0.51100000000E-03 0. -1.
</event>
<event>
 8    1  0.1086235E+005  0.1043930E+01  0.7957747E-01            NaN
         13   -1    0    0    0    0  0.00000000000E+00  0.00000000000E+00  0.74505805969E-08  0.10566000000E+00  0.10566000000E+00 0. -1.
     999900   -1    0    0    0    0 -0.00000000000E+00 -0.00000000000E+00 -0.74505805969E-08  0.93827000000E+00  0.93827000000E+00 0.  1.
     999902    2    1    2    0    0 -0.21384825947E-01 -0.10968624616E-02  0.91740865204E-02  0.10206345551E+01  0.10203686674E+01 0.  0.
     999903    2    3    3    0    0  0.62229375010E-01  0.26037946140E-01 -0.10766797197E+00  0.12856970375E+00  0.19680111287E-01 0.  0.
         14    1    1    2    0    0  0.21384825947E-01  0.10968624616E-02 -0.91740865204E-02  0.23295444866E-01  0.00000000000E+00 0. -1.
     999901    1    3    3    0    0 -0.83614200957E-01 -0.27134808601E-01  0.11684205849E+00  0.89206485138E+00  0.88000000000E+00 0.  1.
        -11    1    4    4    0    0  0.42597631146E-01  0.23158885332E-01 -0.88844040668E-01  0.10121470660E+00  0.51100000000E-03 0.  1.
         11    1    4    4    0    0  0.19631743864E-01  0.28790608080E-02 -0.18823931306E-01  0.27354997150E-01  0.51100000000E-03 0. -1.
</event>
<event>
 8    1  0.1086235E+005  0.1043930E+01  0.7957747E-01            NaN
         13   -1    0    0    0    0  0.00000000000E+00  0.00000000000E+00  0.74505805969E-08  0.10566000000E+00  0.10566000000E+00 0.  1.
     999900   -1    0    0    0    0 -0.00000000000E+00 -0.00000000000E+00 -0.74505805969E-08  0.93827000000E+00  0.93827000000E+00 0. -1.
     999902    2    1    2    0    0  0.26818010841E-02  0.20344871319E-01  0.55543131943E-02  0.10226707375E+01  0.10224497450E+01 0.  0.
     999903    2    3    3    0    0  0.76354620617E-01  0.35052145727E-01  0.10263471633E+00  0.13415028591E+00  0.20093113374E-01 0.  0.
         14    1    1    2    0    0 -0.26818010841E-02 -0.20344871319E-01 -0.55543131943E-02  0.21259262478E-01  0.00000000000E+00 0. -1.
     999901    1    3    3    0    0 -0.73672819532E-01 -0.14707274407E-01 -0.97080403132E-01  0.88852045161E+00  0.88000000000E+00 0. -1.
        -11    1    4    4    0    0  0.55754835640E-01  0.32038054077E-01  0.86610525882E-01  0.10787345791E+00  0.51100000000E-03 0. -1.
         11    1    4    4    0    0  0.20599784976E-01  0.30140916494E-02  0.16024190445E-01  0.26276828004E-01  0.51100000000E-03 0.  1.
</event>
<event>
 8    1  0.1086235E+005  0.1043930E+01  0.7957747E-01            NaN
         13   -1    0    0    0    0  0.00000000000E+00  0.00000000000E+00  0.74505805969E-08  0.10566000000E+00  0.10566000000E+00 0.  1.
     999900   -1    0    0    0    0 -0.00000000000E+00 -0.00000000000E+00 -0.74505805969E-08  0.93827000000E+00  0.93827000000E+00 0.  1.
     999902    2    1    2    0    0 -0.45338699274E-02  0.19418824323E-01 -0.11689698488E-01  0.10208151614E+01  0.10205534273E+01 0.  0.
     999903    2    3    3    0    0  0.12059885977E+00  0.42692567584E-01  0.20843368033E-01  0.13106336025E+00  0.19401497449E-01 0.  0.
         14    1    1    2    0    0  0.45338699274E-02 -0.19418824323E-01  0.11689698488E-01  0.23114838640E-01  0.00000000000E+00 0. -1.
     999901    1    3    3    0    0 -0.12513272970E+00 -0.23273743261E-01 -0.32533066521E-01  0.88975180111E+00  0.88000000000E+00 0. -1.
        -11    1    4    4    0    0  0.37534562198E-01  0.41125409490E-02  0.45211192371E-02  0.38032328256E-01  0.51100000000E-03 0. -1.
         11    1    4    4    0    0  0.83064297573E-01  0.38580026635E-01  0.16322248796E-01  0.93031031990E-01  0.51100000000E-03 0.  1.
</event>
<event>
 8    1  0.1086235E+005  0.1043930E+01  0.7957747E-01            NaN
         13   -1    0    0    0    0  0.00000000000E+00  0.00000000000E+00  0.74505805969E-08  0.10566000000E+00  0.10566000000E+00 0. -1.
     999900   -1    0    0    0    0 -0.00000000000E+00 -0.00000000000E+00 -0.74505805969E-08  0.93827000000E+00  0.93827000000E+00 0.  1.
     999902    2    1    2    0    0 -0.32632073910E-02  0.21053835622E-01 -0.57150173894E-02  0.10218715789E+01  0.10216334714E+01 0.  0.
     999903    2    3    3    0    0  0.70040747063E-01  0.98552683366E-02  0.10883763034E+00  0.13135420865E+00  0.20136181111E-01 0.  0.
         14    1    1    2    0    0  0.32632073910E-02 -0.21053835622E-01  0.57150173894E-02  0.22058421082E-01  0.00000000000E+00 0.  1.
     999901    1    3    3    0    0 -0.73303954454E-01  0.11198567286E-01 -0.11455264773E+00  0.89051737027E+00  0.88000000000E+00 0.  1.
        -11    1    4    4    0    0  0.49994801420E-01 -0.12095963311E-02  0.82259896732E-01  0.96269907155E-01  0.51100000000E-03 0.  1.
         11    1    4    4    0    0  0.20045945643E-01  0.11064864668E-01  0.26577733604E-01  0.35084301495E-01  0.51100000000E-03 0. -1.
</event>
<event>
 8    1  0.1086235E+005  0.1043930E+01  0.7957747E-01            NaN
         13   -1    0    0    0    0  0.00000000000E+00  0.00000000000E+00  0.74505805969E-08  0.10566000000E+00  0.10566000000E+00 0.  1.
     999900   -1    0    0    0    0 -0.00000000000E+00 -0.00000000000E+00 -0.74505805969E-08  0.93827000000E+00  0.93827000000E+00 0.  1.
     999902    2    1    2    0    0 -0.12149625672E-01 -0.34908867289E-02 -0.19963027246E-01  0.10203011585E+01  0.10200275153E+01 0.  0.
     999903    2    3    3    0    0 -0.81373068802E-01  0.90026667765E-01  0.44057440325E-01  0.13033709273E+00  0.17897554555E-01 0.  0.
         14    1    1    2    0    0  0.12149625672E-01  0.34908867289E-02  0.19963027246E-01  0.23628841506E-01  0.00000000000E+00 0.  1.
     999901    1    3    3    0    0  0.69223443130E-01 -0.93517554494E-01 -0.64020467570E-01  0.88996406576E+00  0.88000000000E+00 0.  1.
        -11    1    4    4    0    0 -0.37276810937E-01  0.52412666308E-01  0.28315829345E-01  0.70275853148E-01  0.51100000000E-03 0.  1.
         11    1    4    4    0    0 -0.44096257865E-01  0.37614001457E-01  0.15741610980E-01  0.60061239586E-01  0.51100000000E-03 0. -1.
</event>
<event>
 8    1  0.1086235E+005  0.1043930E+01  0.7957747E-01            NaN
         13   -1    0    0    0    0  0.00000000000E+00  0.00000000000E+00  0.74505805969E-08  0.10566000000E+00  0.10566000000E+00 0.  1.
     999900   -1    0    0    0    0 -0.00000000000E+00 -0.00000000000E+00 -0.74505805969E-08  0.93827000000E+00  0.93827000000E+00 0.  1.
     999902    2    1    2    0    0 -0.46154566827E-02 -0.20170957037E-01 -0.10839854227E-01  0.10205703684E+01  0.10203029964E+01 0.  0.
     999903    2    3    3    0    0  0.14580306648E-01 -0.68351300429E-01  0.10877594489E+00  0.13096497150E+00  0.20859816916E-01 0.  0.
         14    1    1    2    0    0  0.46154566827E-02  0.20170957037E-01  0.10839854227E-01  0.23359631586E-01  0.00000000000E+00 0.  1.
     999901    1    3    3    0    0 -0.19195763331E-01  0.48180343392E-01 -0.11961579911E+00  0.88960539691E+00  0.88000000000E+00 0.  1.
        -11    1    4    4    0    0  0.77716130415E-03 -0.21211554717E-01  0.18370051016E-01  0.28075860246E-01  0.51100000000E-03 0. -1.
         11    1    4    4    0    0  0.13803145344E-01 -0.47139745712E-01  0.90405893872E-01  0.10288911126E+00  0.51100000000E-03 0.  1.
</event>
<event>
 8    1  0.1086235E+005  0.1043930E+01  0.7957747E-01            NaN
         13   -1    0    0    0    0  0.00000000000E+00  0.00000000000E+00  0.74505805969E-08  0.10566000000E+00  0.10566000000E+00 0.  1.
     999900   -1    0    0    0    0 -0.00000000000E+00 -0.00000000000E+00 -0.74505805969E-08  0.93827000000E+00  0.93827000000E+00 0.  1.
     999902    2    1    2    0    0  0.17573117576E-01  0.10362309243E-01 -0.12031231110E-01  0.10202457766E+01  0.10199708341E+01 0.  0.
     999903    2    3    3    0    0  0.50455449186E-01  0.24802606651E-01  0.11553005286E+00  0.13032350414E+00  0.21819738048E-01 0.  0.
         14    1    1    2    0    0 -0.17573117576E-01 -0.10362309243E-01  0.12031231110E-01  0.23684223361E-01  0.00000000000E+00 0. -1.
     999901    1    3    3    0    0 -0.32882331610E-01 -0.14440297408E-01 -0.12756128397E+00  0.88992227250E+00  0.88000000000E+00 0.  1.
        -11    1    4    4    0    0  0.52292802906E-01  0.25498285000E-01  0.11011125718E+00  0.12453694172E+00  0.51100000000E-03 0. -1.
         11    1    4    4    0    0 -0.18373537193E-02 -0.69567834929E-03  0.54187956792E-02  0.57865624224E-02  0.51100000000E-03 0.  1.
</event>
<event>
 8    1  0.1086235E+005  0.1043930E+01  0.7957747E-01            NaN
         13   -1    0    0    0    0  0.00000000000E+00  0.00000000000E+00  0.74505805969E-08  0.10566000000E+00  0.10566000000E+00 0. -1.
     999900   -1    0    0    0    0 -0.00000000000E+00 -0.00000000000E+00 -0.74505805969E-08  0.93827000000E+00  0.93827000000E+00 0.  1.
     999902    2    1    2    0    0 -0.59282408274E-02  0.15356789587E-02  0.22676240338E-01  0.10204414022E+01  0.10201710353E+01 0.  0.
     999903    2    3    3    0    0 -0.53400089400E-02  0.11165606452E+00 -0.62228753517E-01  0.12952294170E+00  0.20203520095E-01 0.  0.
         14    1    1    2    0    0  0.59282408274E-02 -0.15356789587E-02 -0.22676240338E-01  0.23488597767E-01  0.00000000000E+00 0.  1.
     999901    1    3    3    0    0 -0.58823188733E-03 -0.11012038556E+00  0.84904993855E-01  0.89091846053E+00  0.88000000000E+00 0. -1.
        -11    1    4    4    0    0 -0.92004077161E-02  0.23975624836E-01 -0.16847109330E-01  0.30717491795E-01  0.51100000000E-03 0. -1.
         11    1    4    4    0    0  0.38603987761E-02  0.87680439681E-01 -0.45381644188E-01  0.98805449908E-01  0.51100000000E-03 0.  1.
</event>
<event>
 8    1  0.1086235E+005  0.1043930E+01  0.7957747E-01            NaN
         13   -1    0    0    0    0  0.00000000000E+00  0.00000000000E+00  0.74505805969E-08  0.10566000000E+00  0.10566000000E+00 0.  1.
     999900   -1    0    0    0    0 -0.00000000000E+00 -0.00000000000E+00 -0.74505805969E-08  0.93827000000E+00  0.93827000000E+00 0.  1.
     999902    2    1    2    0    0 -0.18371534050E-01  0.71251655255E-04 -0.14874395050E-01  0.10202917689E+01  0.10200179056E+01 0.  0.
     999903    2    3    3    0    0  0.13081957208E-01  0.12563745678E+00 -0.26828976111E-01  0.13074182317E+00  0.20438253782E-01 0.  0.
         14    1    1    2    0    0  0.18371534050E-01 -0.71251655255E-04  0.14874395050E-01  0.23638231073E-01  0.00000000000E+00 0.  1.
     999901    1    3    3    0    0 -0.31453491258E-01 -0.12556620512E+00  0.11954581061E-01  0.88954994575E+00  0.88000000000E+00 0. -1.
        -11    1    4    4    0    0  0.17231807696E-01  0.68961413065E-01 -0.16647321528E-01  0.73006890932E-01  0.51100000000E-03 0. -1.
         11    1    4    4    0    0 -0.41498504878E-02  0.56676043712E-01 -0.10181654583E-01  0.57734932242E-01  0.51100000000E-03 0.  1.
</event>
<event>
 8    1  0.1086235E+005  0.1043930E+01  0.7957747E-01            NaN
         13   -1    0    0    0    0  0.00000000000E+00  0.00000000000E+00  0.74505805969E-08  0.10566000000E+00  0.10566000000E+00 0.  1.
     999900   -1    0    0    0    0 -0.00000000000E+00 -0.00000000000E+00 -0.74505805969E-08  0.93827000000E+00  0.93827000000E+00 0. -1.
     999902    2    1    2    0    0 -0.85271277631E-02 -0.20581122792E-01 -0.99018230308E-02  0.10195508978E+01  0.10192593844E+01 0.  0.
     999903    2    3    3    0    0  0.11647439259E+00 -0.15623907466E-01 -0.51192716606E-01  0.12974479987E+00  0.20065598542E-01 0.  0.
         14    1    1    2    0    0  0.85271277631E-02  0.20581122792E-01  0.99018230308E-02  0.24379102170E-01  0.00000000000E+00 0.  1.
     999901    1    3    3    0    0 -0.12500152036E+00 -0.49572153265E-02  0.41290893575E-01  0.88980609796E+00  0.88000000000E+00 0. -1.
        -11    1    4    4    0    0  0.73406963090E-01 -0.17286994223E-01 -0.25741174816E-01  0.79688716901E-01  0.51100000000E-03 0. -1.
         11    1    4    4    0    0  0.43067429505E-01  0.16630867567E-02 -0.25451541789E-01  0.50056082969E-01  0.51100000000E-03 0.  1.
</event>
<event>
 8    1  0.1086235E+005  0.1043930E+01  0.7957747E-01            NaN
         13   -1    0    0    0    0  0.00000000000E+00  0.00000000000E+00  0.74505805969E-08  0.10566000000E+00  0.10566000000E+00 0.  1.
     999900   -1    0    0    0    0 -0.00000000000E+00 -0.00000000000E+00 -0.74505805969E-08  0.93827000000E+00  0.93827000000E+00 0.  1.
     999902    2    1    2    0    0  0.13814668490E-01 -0.18949883542E-01  0.44905970128E-02  0.10200530527E+01  0.10197735639E+01 0.  0.
     999903    2    3    3    0    0 -0.57643748030E-01  0.88770977731E-01  0.69442016214E-01  0.12824097825E+00  0.20505284991E-01 0.  0.
         14    1    1    2    0    0 -0.13814668490E-01  0.18949883542E-01 -0.44905970128E-02  0.23876947318E-01  0.00000000000E+00 0.  1.
     999901    1    3    3    0    0  0.71458416519E-01 -0.10772086127E+00 -0.64951419201E-01  0.89181207443E+00  0.88000000000E+00 0.  1.
        -11    1    4    4    0    0 -0.36222078875E-01  0.38458405777E-01  0.38856484672E-01  0.65583347696E-01  0.51100000000E-03 0. -1.
         11    1    4    4    0    0 -0.21421669155E-01  0.50312571954E-01  0.30585531541E-01  0.62657630555E-01  0.51100000000E-03 0.  1.
</event>
<event>
 8    1  0.1086235E+005  0.1043930E+01  0.7957747E-01            NaN
         13   -1    0    0    0    0  0.00000000000E+00  0.00000000000E+00  0.74505805969E-08  0.10566000000E+00  0.10566000000E+00 0. -1.
     999900   -1    0    0    0    0 -0.00000000000E+00 -0.00000000000E+00 -0.74505805969E-08  0.93827000000E+00  0.93827000000E+00 0. -1.
     999902    2    1    2    0    0 -0.17126972989E-01 -0.28634274362E-02 -0.11433561450E-01  0.10231391667E+01  0.10229279035E+01 0.  0.
     999903    2    3    3    0    0 -0.59430885154E-01  0.78892230885E-01  0.87109352656E-01  0.13286712147E+00  0.17595978077E-01 0.  0.
         14    1    1    2    0    0  0.17126972989E-01  0.28634274362E-02  0.11433561450E-01  0.20790833265E-01  0.00000000000E+00 0. -1.
     999901    1    3    3    0    0  0.42303912165E-01 -0.81755658321E-01 -0.98542914106E-01  0.89027204526E+00  0.88000000000E+00 0. -1.
        -11    1    4    4    0    0 -0.35392388460E-01  0.59281790414E-01  0.55632014521E-01  0.88668675395E-01  0.51100000000E-03 0.  1.
         11    1    4    4    0    0 -0.24038496694E-01  0.19610440471E-01  0.31477338135E-01  0.44198446079E-01  0.51100000000E-03 0. -1.
</event>
<event>
 8    1  0.1086235E+005  0.1043930E+01  0.7957747E-01            NaN
         13   -1    0    0    0    0  0.00000000000E+00  0.00000000000E+00  0.74505805969E-08  0.10566000000E+00  0.10566000000E+00 0.  1.
     999900   -1    0    0    0    0 -0.00000000000E+00 -0.00000000000E+00 -0.74505805969E-08  0.93827000000E+00  0.93827000000E+00 0. -1.
     999902    2    1    2    0    0 -0.10022243551E-01  0.20708517013E-01  0.75927812338E-02  0.10197031890E+01  0.10194153498E+01 0.  0.
     999903    2    3    3    0    0  0.94319053618E-01  0.35381285852E-02  0.87301839140E-01  0.12979563066E+00  0.17795853255E-01 0.  0.
         14    1    1    2    0    0  0.10022243551E-01 -0.20708517013E-01 -0.75927812338E-02  0.24226810965E-01  0.00000000000E+00 0. -1.
     999901    1    3    3    0    0 -0.10434129717E+00  0.17170388427E-01 -0.79709057906E-01  0.88990755837E+00  0.88000000000E+00 0.  1.
        -11    1    4    4    0    0  0.51684962676E-01 -0.15202547896E-02  0.36576720932E-01  0.63338488904E-01  0.51100000000E-03 0. -1.
         11    1    4    4    0    0  0.42634090942E-01  0.50583833748E-02  0.50725118207E-01  0.66457141761E-01  0.51100000000E-03 0.  1.
</event>
<event>
 8    1  0.1086235E+005  0.1043930E+01  0.7957747E-01            NaN
         13   -1    0    0    0    0  0.00000000000E+00  0.00000000000E+00  0.74505805969E-08  0.10566000000E+00  0.10566000000E+00 0. -1.
     999900   -1    0    0    0    0 -0.00000000000E+00 -0.00000000000E+00 -0.74505805969E-08  0.93827000000E+00  0.93827000000E+00 0. -1.
     999902    2    1    2    0    0 -0.56875769278E-02 -0.16252921076E-01 -0.16135657096E-01  0.10203320042E+01  0.10200590833E+01 0.  0.
     999903    2    3    3    0    0 -0.42242437176E-01  0.11650899640E+00  0.27562096641E-01  0.12855205478E+00  0.20178995936E-01 0.  0.
         14    1    1    2    0    0  0.56875769278E-02  0.16252921076E-01  0.16135657096E-01  0.23597995778E-01  0.00000000000E+00 0. -1.
     999901    1    3    3    0    0  0.36554860248E-01 -0.13276191748E+00 -0.43697753737E-01  0.89177994944E+00  0.88000000000E+00 0. -1.
        -11    1    4    4    0    0 -0.40203022003E-01  0.11671297482E+00  0.27259940430E-01  0.12641822236E+00  0.51100000000E-03 0.  1.
         11    1    4    4    0    0 -0.20394151735E-02 -0.20397842482E-03  0.30215621077E-03  0.21338324263E-02  0.51100000000E-03 0. -1.
</event>
<event>
 8    1  0.1086235E+005  0.1043930E+01  0.7957747E-01            NaN
         13   -1    0    0    0    0  0.00000000000E+00  0.00000000000E+00  0.74505805969E-08  0.10566000000E+00  0.10566000000E+00 0. -1.
     999900   -1    0    0    0    0 -0.00000000000E+00 -0.00000000000E+00 -0.74505805969E-08  0.93827000000E+00  0.93827000000E+00 0. -1.
     999902    2    1    2    0    0  0.84076439218E-02 -0.62327959636E-02 -0.19726440224E-01  0.10215991096E+01  0.10213550177E+01 0.  0.
     999903    2    3    3    0    0  0.19562198127E-01  0.73804810867E-01  0.10257091218E+00  0.12947407073E+00  0.20320267320E-01 0.  0.
         14    1    1    2    0    0 -0.84076439218E-02  0.62327959636E-02  0.19726440224E-01  0.22330890394E-01  0.00000000000E+00 0. -1.
     999901    1    3    3    0    0 -0.11154554205E-01 -0.80037606831E-01 -0.12229735240E+00  0.89212503888E+00  0.88000000000E+00 0. -1.
        -11    1    4    4    0    0  0.53284858986E-02  0.49845627819E-01  0.55670138161E-01  0.74915984800E-01  0.51100000000E-03 0. -1.
         11    1    4    4    0    0  0.14233712228E-01  0.23959183048E-01  0.46900774015E-01  0.54558085930E-01  0.51100000000E-03 0.  1.
</event>
<event>
 8    1  0.1086235E+005  0.1043930E+01  0.7957747E-01            NaN
         13   -1    0    0    0    0  0.00000000000E+00  0.00000000000E+00  0.74505805969E-08  0.10566000000E+00  0.10566000000E+00 0. -1.
     999900   -1    0    0    0    0 -0.00000000000E+00 -0.00000000000E+00 -0.74505805969E-08  0.93827000000E+00  0.93827000000E+00 0.  1.
     999902    2    1    2    0    0  0.17246806015E-02 -0.12838057182E-01  0.19515611558E-01  0.10205067353E+01  0.10202378877E+01 0.  0.
     999903    2    3    3    0    0  0.94756573373E-01  0.44463746580E-01 -0.72396345639E-01  0.12899889030E+00  0.21062997901E-01 0.  0.
         14    1    1    2    0    0 -0.17246806015E-02  0.12838057182E-01 -0.19515611558E-01  0.23423264714E-01  0.00000000000E+00 0.  1.
     999901    1    3    3    0    0 -0.93031892772E-01 -0.57301803762E-01  0.91911957197E-01  0.89150784498E+00  0.88000000000E+00 0. -1.
        -11    1    4    4    0    0  0.59871953832E-01  0.38115776913E-01 -0.43421433546E-01  0.83205440432E-01  0.51100000000E-03 0. -1.
         11    1    4    4    0    0  0.34884619541E-01  0.63479696674E-02 -0.28974912093E-01  0.45793449872E-01  0.51100000000E-03 0.  1.
</event>
<event>
 8    1  0.1638345E+005  0.1043930E+01  0.7957747E-01            NaN
         13   -1    0    0    0    0  0.00000000000E+00  0.00000000000E+00  0.74505805969E-08  0.10566000000E+00  0.10566000000E+00 0. -1.
     999900   -1    0    0    0    0 -0.00000000000E+00 -0.00000000000E+00 -0.74505805969E-08  0.93827000000E+00  0.93827000000E+00 0. -1.
     999902    2    1    2    0    0 -0.18443347211E-01 -0.15686894398E-01 -0.19197165306E-02  0.10196417102E+01  0.10193523905E+01 0.  0.
     999903    2    3    3    0    0  0.53145607946E-01 -0.71879394662E-01  0.92096983407E-01  0.12996664843E+00  0.20454151900E-01 0.  0.
         14    1    1    2    0    0  0.18443347211E-01  0.15686894398E-01  0.19197165306E-02  0.24288289848E-01  0.00000000000E+00 0. -1.
     999901    1    3    3    0    0 -0.71588955157E-01  0.56192500264E-01 -0.94016699938E-01  0.88967506172E+00  0.88000000000E+00 0. -1.
        -11    1    4    4    0    0  0.32285962757E-01 -0.35248753375E-01  0.61417380172E-01  0.77828103625E-01  0.51100000000E-03 0.  1.
         11    1    4    4    0    0  0.20859645190E-01 -0.36630641287E-01  0.30679603235E-01  0.52138544803E-01  0.51100000000E-03 0. -1.
</event>
<event>
 8    1  0.1086235E+005  0.1043930E+01  0.7957747E-01            NaN
         13   -1    0    0    0    0  0.00000000000E+00  0.00000000000E+00  0.74505805969E-08  0.10566000000E+00  0.10566000000E+00 0. -1.
     999900   -1    0    0    0    0 -0.00000000000E+00 -0.00000000000E+00 -0.74505805969E-08  0.93827000000E+00  0.93827000000E+00 0.  1.
     999902    2    1    2    0    0  0.33406596790E-02  0.21393553446E-01  0.57285390199E-03  0.10222696146E+01  0.10220401130E+01 0.  0.
     999903    2    3    3    0    0  0.70666225829E-01 -0.94530594293E-01 -0.52555882840E-01  0.13053321709E+00  0.18629310594E-01 0.  0.
         14    1    1    2    0    0 -0.33406596790E-02 -0.21393553446E-01 -0.57285390199E-03  0.21660385448E-01  0.00000000000E+00 0.  1.
     999901    1    3    3    0    0 -0.67325566150E-01  0.11592414774E+00  0.53128736742E-01  0.89173639746E+00  0.88000000000E+00 0. -1.
        -11    1    4    4    0    0  0.49596905396E-01 -0.73827264743E-01 -0.46546173103E-01  0.10038488629E+00  0.51100000000E-03 0.  1.
         11    1    4    4    0    0  0.21069320432E-01 -0.20703329550E-01 -0.60097097370E-02  0.30148330800E-01  0.51100000000E-03 0. -1.
</event>
<event>
 8    1  0.1086235E+005  0.1043930E+01  0.7957747E-01            NaN
         13   -1    0    0    0    0  0.00000000000E+00  0.00000000000E+00  0.74505805969E-08  0.10566000000E+00  0.10566000000E+00 0. -1.
     999900   -1    0    0    0    0 -0.00000000000E+00 -0.00000000000E+00 -0.74505805969E-08  0.93827000000E+00  0.93827000000E+00 0.  1.
     999902    2    1    2    0    0  0.27220200854E-02 -0.62506709910E-03  0.24344687377E-01  0.10194256350E+01  0.10191310815E+01 0.  0.
     999903    2    3    3    0    0 -0.26086908691E-02 -0.10015321888E+00  0.83359157252E-01  0.13183508909E+00  0.19856210545E-01 0.  0.
         14    1    1    2    0    0 -0.27220200854E-02  0.62506709910E-03 -0.24344687377E-01  0.24504365034E-01  0.00000000000E+00 0.  1.
     999901    1    3    3    0    0  0.53307109545E-02  0.99528151781E-01 -0.59014469875E-01  0.88759054588E+00  0.88000000000E+00 0. -1.
        -11    1    4    4    0    0 -0.64325211693E-02 -0.91997657256E-01  0.70299700101E-01  0.11596230088E+00  0.51100000000E-03 0.  1.
         11    1    4    4    0    0  0.38238303002E-02 -0.81555616239E-02  0.13059457151E-01  0.15872788212E-01  0.51100000000E-03 0. -1.
</event>
<event>
 8    1  0.1086235E+005  0.1043930E+01  0.7957747E-01            NaN
         13   -1    0    0    0    0  0.00000000000E+00  0.00000000000E+00  0.74505805969E-08  0.10566000000E+00  0.10566000000E+00 0.  1.
     999900   -1    0    0    0    0 -0.00000000000E+00 -0.00000000000E+00 -0.74505805969E-08  0.93827000000E+00  0.93827000000E+00 0. -1.
     999902    2    1    2    0    0  0.10616535946E-01  0.17999555036E-01 -0.22611284559E-01  0.10131409596E+01  0.10126730169E+01 0.  0.
     999903    2    3    3    0    0 -0.10948195853E-05  0.97364510608E-01 -0.80067618617E-01  0.12763954203E+00  0.20029508546E-01 0.  0.
         14    1    1    2    0    0 -0.10616535946E-01 -0.17999555036E-01  0.22611284559E-01  0.30789040362E-01  0.00000000000E+00 0.  1.
     999901    1    3    3    0    0  0.10617630766E-01 -0.79364955572E-01  0.57456334058E-01  0.88550141760E+00  0.88000000000E+00 0. -1.
        -11    1    4    4    0    0 -0.51795814816E-02  0.69304742397E-02 -0.90952842233E-02  0.12563632182E-01  0.51100000000E-03 0.  1.
         11    1    4    4    0    0  0.51784866620E-02  0.90434036368E-01 -0.70972334393E-01  0.11507590985E+00  0.51100000000E-03 0. -1.
</event>
<event>
 8    1  0.1086235E+005  0.1043930E+01  0.7957747E-01            NaN
         13   -1    0    0    0    0  0.00000000000E+00  0.00000000000E+00  0.74505805969E-08  0.10566000000E+00  0.10566000000E+00 0. -1.
     999900   -1    0    0    0    0 -0.00000000000E+00 -0.00000000000E+00 -0.74505805969E-08  0.93827000000E+00  0.93827000000E+00 0.  1.
     999902    2    1    2    0    0  0.23585865449E-01  0.78055929467E-04 -0.31844979556E-02  0.10201299965E+01  0.10198523273E+01 0.  0.
     999903    2    3    3    0    0  0.12266304420E+00  0.45733349520E-01 -0.14196955715E-01  0.13332563956E+00  0.20890450939E-01 0.  0.
         14    1    1    2    0    0 -0.23585865449E-01 -0.78055929467E-04  0.31844979556E-02  0.23800003549E-01  0.00000000000E+00 0.  1.
     999901    1    3    3    0    0 -0.99077178752E-01 -0.45655293591E-01  0.11012457759E-01  0.88680435690E+00  0.88000000000E+00 0.  1.
        -11    1    4    4    0    0  0.36437161188E-01  0.24010060655E-01 -0.40593106826E-02  0.43827946020E-01  0.51100000000E-03 0. -1.
         11    1    4    4    0    0  0.86225883013E-01  0.21723288865E-01 -0.10137645032E-01  0.89497693537E-01  0.51100000000E-03 0.  1.
</event>
<event>
 8    1  0.1086235E+005  0.1043930E+01  0.7957747E-01            NaN
         13   -1    0    0    0    0  0.00000000000E+00  0.00000000000E+00  0.74505805969E-08  0.10566000000E+00  0.10566000000E+00 0. -1.
     999900   -1    0    0    0    0 -0.00000000000E+00 -0.00000000000E+00 -0.74505805969E-08  0.93827000000E+00  0.93827000000E+00 0.  1.
     999902    2    1    2    0    0  0.86011620119E-03 -0.14544754667E-01  0.19403171841E-01  0.10196653598E+01  0.10193766101E+01 0.  0.
     999903    2    3    3    0    0 -0.26249527108E-01  0.11419818302E+00  0.50961032686E-01  0.12932521390E+00  0.19942954107E-01 0.  0.
         14    1    1    2    0    0 -0.86011620119E-03  0.14544754667E-01 -0.19403171841E-01  0.24264640234E-01  0.00000000000E+00 0.  1.
     999901    1    3    3    0    0  0.27109643309E-01 -0.12874293769E+00 -0.31557860845E-01  0.89034014587E+00  0.88000000000E+00 0.  1.
        -11    1    4    4    0    0 -0.24555865963E-01  0.90859040902E-01  0.32701892100E-01  0.99639503887E-01  0.51100000000E-03 0. -1.
         11    1    4    4    0    0 -0.16936611450E-02  0.23339142118E-01  0.18259140585E-01  0.29685710010E-01  0.51100000000E-03 0.  1.
</event>
<event>
 8    1  0.1086235E+005  0.1043930E+01  0.7957747E-01            NaN
         13   -1    0    0    0    0  0.00000000000E+00  0.00000000000E+00  0.74505805969E-08  0.10566000000E+00  0.10566000000E+00 0. -1.
     999900   -1    0    0    0    0 -0.00000000000E+00 -0.00000000000E+00 -0.74505805969E-08  0.93827000000E+00  0.93827000000E+00 0. -1.
     999902    2    1    2    0    0  0.22594782397E-01 -0.33983410925E-02 -0.57488619847E-02  0.10203689659E+01  0.10200969092E+01 0.  0.
     999903    2    3    3    0    0 -0.87309768215E-01 -0.83052520539E-01 -0.41806614965E-01  0.12923263508E+00  0.20798175938E-01 0.  0.
         14    1    1    2    0    0 -0.22594782397E-01  0.33983410925E-02  0.57488619847E-02  0.23561034101E-01  0.00000000000E+00 0.  1.
     999901    1    3    3    0    0  0.10990455061E+00  0.79654179446E-01  0.36057752981E-01  0.89113633082E+00  0.88000000000E+00 0.  1.
        -11    1    4    4    0    0 -0.21103629864E-01 -0.26889380126E-01 -0.35918389696E-02  0.34373891040E-01  0.51100000000E-03 0. -1.
         11    1    4    4    0    0 -0.66206138351E-01 -0.56163140412E-01 -0.38214775996E-01  0.94858744045E-01  0.51100000000E-03 0.  1.
</event>
<event>
 8    1  0.1086235E+005  0.1043930E+01  0.7957747E-01            NaN
         13   -1    0    0    0    0  0.00000000000E+00  0.00000000000E+00  0.74505805969E-08  0.10566000000E+00  0.10566000000E+00 0. -1.
     999900   -1    0    0    0    0 -0.00000000000E+00 -0.00000000000E+00 -0.74505805969E-08  0.93827000000E+00  0.93827000000E+00 0. -1.
     999902    2    1    2    0    0  0.21970005588E-01  0.77318264110E-02 -0.56789182383E-02  0.10199568401E+01  0.10196750675E+01 0.  0.
     999903    2    3    3    0    0 -0.27606368701E-02 -0.62505830201E-01 -0.11266200041E+00  0.13035562999E+00  0.19628143286E-01 0.  0.
         14    1    1    2    0    0 -0.21970005588E-01 -0.77318264110E-02  0.56789182383E-02  0.23973159940E-01  0.00000000000E+00 0. -1.
     999901    1    3    3    0    0  0.24730642458E-01  0.70237656612E-01  0.10698308217E+00  0.88960121007E+00  0.88000000000E+00 0.  1.
        -11    1    4    4    0    0 -0.12950958272E-02 -0.16722594052E-01 -0.49955759455E-01  0.52698780334E-01  0.51100000000E-03 0.  1.
         11    1    4    4    0    0 -0.14655410430E-02 -0.45783236149E-01 -0.62706240956E-01  0.77656849657E-01  0.51100000000E-03 0. -1.
</event>
<event>
 8    1  0.1086235E+005  0.1043930E+01  0.7957747E-01            NaN
         13   -1    0    0    0    0  0.00000000000E+00  0.00000000000E+00  0.74505805969E-08  0.10566000000E+00  0.10566000000E+00 0. -1.
     999900   -1    0    0    0    0 -0.00000000000E+00 -0.00000000000E+00 -0.74505805969E-08  0.93827000000E+00  0.93827000000E+00 0. -1.
     999902    2    1    2    0    0 -0.13269914545E-01  0.13597750360E-01 -0.14673522190E-01  0.10199237154E+01  0.10196411543E+01 0.  0.
     999903    2    3    3    0    0  0.23773796639E-01  0.58870845337E-02  0.12415536927E+00  0.12823702602E+00  0.20744347541E-01 0.  0.
         14    1    1    2    0    0  0.13269914545E-01 -0.13597750360E-01  0.14673522190E-01  0.24006284602E-01  0.00000000000E+00 0. -1.
     999901    1    3    3    0    0 -0.37043711184E-01  0.77106658262E-02 -0.13882889146E+00  0.89168668938E+00  0.88000000000E+00 0. -1.
        -11    1    4    4    0    0  0.12270050952E-01  0.11747015208E-01  0.46373664782E-01  0.49389517339E-01  0.51100000000E-03 0. -1.
         11    1    4    4    0    0  0.11503745687E-01 -0.58599306744E-02  0.77781704484E-01  0.78847508684E-01  0.51100000000E-03 0.  1.
</event>
<event>
 8    1  0.1086235E+005  0.1043930E+01  0.7957747E-01            NaN
         13   -1    0    0    0    0  0.00000000000E+00  0.00000000000E+00  0.74505805969E-08  0.10566000000E+00  0.10566000000E+00 0. -1.
     999900   -1    0    0    0    0 -0.00000000000E+00 -0.00000000000E+00 -0.74505805969E-08  0.93827000000E+00  0.93827000000E+00 0. -1.
     999902    2    1    2    0    0 -0.59526195020E-02 -0.50996870633E-03 -0.22146826481E-01  0.10209914806E+01  0.10207337693E+01 0.  0.
     999903    2    3    3    0    0  0.10502985002E+00  0.37683658692E-01 -0.67774982777E-01  0.13202703233E+00  0.19656079171E-01 0.  0.
         14    1    1    2    0    0  0.59526195020E-02  0.50996870633E-03  0.22146826481E-01  0.22938519355E-01  0.00000000000E+00 0. -1.
     999901    1    3    3    0    0 -0.11098246952E+00 -0.38193627398E-01  0.45628156296E-01  0.88896444831E+00  0.88000000000E+00 0.  1.
        -11    1    4    4    0    0  0.72496959188E-01  0.16188966041E-01 -0.43163071600E-01  0.85913931256E-01  0.51100000000E-03 0. -1.
         11    1    4    4    0    0  0.32532890833E-01  0.21494692651E-01 -0.24611911177E-01  0.46113101077E-01  0.51100000000E-03 0.  1.
</event>
<event>
 8    1  0.1086235E+005  0.1043930E+01  0.7957747E-01            NaN
         13   -1    0    0    0    0  0.00000000000E+00  0.00000000000E+00  0.74505805969E-08  0.10566000000E+00  0.10566000000E+00 0. -1.
     999900   -1    0    0    0    0 -0.00000000000E+00 -0.00000000000E+00 -0.74505805969E-08  0.93827000000E+00  0.93827000000E+00 0.  1.
     999902    2    1    2    0    0  0.21391077123E-01  0.19015735674E-02  0.75136487370E-02  0.10211780972E+01  0.10209246090E+01 0.  0.
     999903    2    3    3    0    0  0.11641656904E+00  0.30943242518E-01  0.58010197890E-01  0.13414756555E+00  0.10958306395E-01 0.  0.
         14    1    1    2    0    0 -0.21391077123E-01 -0.19015735674E-02 -0.75136487370E-02  0.22751902774E-01  0.00000000000E+00 0. -1.
     999901    1    3    3    0    0 -0.95025491917E-01 -0.29041668950E-01 -0.50496549153E-01  0.88703053168E+00  0.88000000000E+00 0.  1.
        -11    1    4    4    0    0  0.24574693879E-01  0.86779700997E-02  0.17058984436E-01  0.31152733673E-01  0.51100000000E-03 0. -1.
         11    1    4    4    0    0  0.91841875161E-01  0.22265272418E-01  0.40951213454E-01  0.10299483188E+00  0.51100000000E-03 0.  1.
</event>
<event>
 8    1  0.1086235E+005  0.1043930E+01  0.7957747E-01            NaN
         13   -1    0    0    0    0  0.00000000000E+00  0.00000000000E+00  0.74505805969E-08  0.10566000000E+00  0.10566000000E+00 0. -1.
     999900   -1    0    0    0    0 -0.00000000000E+00 -0.00000000000E+00 -0.74505805969E-08  0.93827000000E+00  0.93827000000E+00 0.  1.
     999902    2    1    2    0    0  0.78031743512E-02  0.21845551418E-01  0.29286619581E-02  0.10205484965E+01  0.10202806177E+01 0.  0.
     999903    2    3    3    0    0  0.10180556844E+00  0.47028363365E-01  0.68123215998E-01  0.13278673000E+00  0.20383875530E-01 0.  0.
         14    1    1    2    0    0 -0.78031743512E-02 -0.21845551418E-01 -0.29286619581E-02  0.23381503536E-01  0.00000000000E+00 0. -1.
     999901    1    3    3    0    0 -0.94002394086E-01 -0.25182811947E-01 -0.65194554040E-01  0.88776176646E+00  0.88000000000E+00 0.  1.
        -11    1    4    4    0    0  0.18665431788E-01  0.11290292521E-01  0.22855754772E-01  0.31599298984E-01  0.51100000000E-03 0. -1.
         11    1    4    4    0    0  0.83140136649E-01  0.35738070844E-01  0.45267461226E-01  0.10118743102E+00  0.51100000000E-03 0.  1.
</event>
<event>
 8    1  0.1086235E+005  0.1043930E+01  0.7957747E-01            NaN
         13   -1    0    0    0    0  0.00000000000E+00  0.00000000000E+00  0.74505805969E-08  0.10566000000E+00  0.10566000000E+00 0.  1.
     999900   -1    0    0    0    0 -0.00000000000E+00 -0.00000000000E+00 -0.74505805969E-08  0.93827000000E+00  0.93827000000E+00 0.  1.
     999902    2    1    2    0    0 -0.44279734678E-02 -0.21237542591E-01 -0.79552032717E-02  0.10208231737E+01  0.10205616231E+01 0.  0.
     999903    2    3    3    0    0  0.37015349450E-01  0.43564393283E-01 -0.11609804303E+00  0.13087277409E+00  0.19517554779E-01 0.  0.
         14    1    1    2    0    0  0.44279734678E-02  0.21237542591E-01  0.79552032717E-02  0.23106826338E-01  0.00000000000E+00 0.  1.
     999901    1    3    3    0    0 -0.41443322918E-01 -0.64801935874E-01  0.10814283976E+00  0.88995039957E+00  0.88000000000E+00 0. -1.
        -11    1    4    4    0    0  0.37829592059E-01  0.35399262768E-01 -0.94651563167E-01  0.10790442702E+00  0.51100000000E-03 0.  1.
         11    1    4    4    0    0 -0.81424260924E-03  0.81651305156E-02 -0.21446479866E-01  0.22968347068E-01  0.51100000000E-03 0. -1.
</event>
<event>
 8    1  0.1086235E+005  0.1043930E+01  0.7957747E-01            NaN
         13   -1    0    0    0    0  0.00000000000E+00  0.00000000000E+00  0.74505805969E-08  0.10566000000E+00  0.10566000000E+00 0.  1.
     999900   -1    0    0    0    0 -0.00000000000E+00 -0.00000000000E+00 -0.74505805969E-08  0.93827000000E+00  0.93827000000E+00 0. -1.
     999902    2    1    2    0    0 -0.10425781806E-02 -0.19299111936E-01  0.13821117608E-01  0.10201694027E+01  0.10198926631E+01 0.  0.
     999903    2    3    3    0    0  0.77346320557E-01 -0.10079679218E+00 -0.28926099309E-01  0.13190479357E+00  0.20486793975E-01 0.  0.
         14    1    1    2    0    0  0.10425781806E-02  0.19299111936E-01 -0.13821117608E-01  0.23760597272E-01  0.00000000000E+00 0. -1.
     999901    1    3    3    0    0 -0.78388898738E-01  0.81497680246E-01  0.42747216917E-01  0.88826460916E+00  0.88000000000E+00 0.  1.
        -11    1    4    4    0    0  0.15522885810E-02 -0.19322683440E-02 -0.41925994806E-02  0.48971698149E-02  0.51100000000E-03 0.  1.
         11    1    4    4    0    0  0.75794031976E-01 -0.98864523838E-01 -0.24733499829E-01  0.12700762375E+00  0.51100000000E-03 0. -1.
</event>
<event>
 8    1  0.1086235E+005  0.1043930E+01  0.7957747E-01            NaN
         13   -1    0    0    0    0  0.00000000000E+00  0.00000000000E+00  0.74505805969E-08  0.10566000000E+00  0.10566000000E+00 0. -1.
     999900   -1    0    0    0    0 -0.00000000000E+00 -0.00000000000E+00 -0.74505805969E-08  0.93827000000E+00  0.93827000000E+00 0. -1.
     999902    2    1    2    0    0 -0.52407236843E-02 -0.13561714125E-01  0.18658318404E-01  0.10202758646E+01  0.10200016283E+01 0.  0.
     999903    2    3    3    0    0  0.63015112220E-01 -0.69620295213E-01 -0.86915847839E-01  0.12957539408E+00  0.20433508553E-01 0.  0.
         14    1    1    2    0    0  0.52407236843E-02  0.13561714125E-01 -0.18658318404E-01  0.23654135376E-01  0.00000000000E+00 0.  1.
     999901    1    3    3    0    0 -0.68255835904E-01  0.56058581087E-01  0.10557416624E+00  0.89070047054E+00  0.88000000000E+00 0.  1.
        -11    1    4    4    0    0  0.18862255234E-01 -0.95934611152E-02 -0.14433931311E-01  0.25620668664E-01  0.51100000000E-03 0. -1.
         11    1    4    4    0    0  0.44152856986E-01 -0.60026834097E-01 -0.72481916528E-01  0.10395472542E+00  0.51100000000E-03 0.  1.
</event>
<event>
 8    1  0.1086235E+005  0.1043930E+01  0.7957747E-01            NaN
         13   -1    0    0    0    0  0.00000000000E+00  0.00000000000E+00  0.74505805969E-08  0.10566000000E+00  0.10566000000E+00 0. -1.
     999900   -1    0    0    0    0 -0.00000000000E+00 -0.00000000000E+00 -0.74505805969E-08  0.93827000000E+00  0.93827000000E+00 0. -1.
     999902    2    1    2    0    0 -0.16245047059E-01  0.38191896539E-03 -0.18987466488E-01  0.10189385755E+01  0.10186320480E+01 0.  0.
     999903    2    3    3    0    0 -0.14918427388E-01  0.10703407423E+00 -0.71028271993E-01  0.13097197274E+00  0.20731369906E-01 0.  0.
         14    1    1    2    0    0  0.16245047059E-01 -0.38191896539E-03  0.18987466488E-01  0.24991424522E-01  0.00000000000E+00 0. -1.
     999901    1    3    3    0    0 -0.13266196708E-02 -0.10665215527E+00  0.52040805505E-01  0.88796660274E+00  0.88000000000E+00 0. -1.
        -11    1    4    4    0    0 -0.28588833924E-02  0.66077837986E-01 -0.52420437310E-01  0.84395599743E-01  0.51100000000E-03 0. -1.
         11    1    4    4    0    0 -0.12059543995E-01  0.40956236246E-01 -0.18607834683E-01  0.46576372995E-01  0.51100000000E-03 0.  1.
</event>
<event>
 8    1  0.1086235E+005  0.1043930E+01  0.7957747E-01            NaN
         13   -1    0    0    0    0  0.00000000000E+00  0.00000000000E+00  0.74505805969E-08  0.10566000000E+00  0.10566000000E+00 0. -1.
     999900   -1    0    0    0    0 -0.00000000000E+00 -0.00000000000E+00 -0.74505805969E-08  0.93827000000E+00  0.93827000000E+00 0. -1.
     999902    2    1    2    0    0  0.20708707573E-01  0.66072999712E-02 -0.93652825648E-02  0.10202611280E+01  0.10199865459E+01 0.  0.
     999903    2    3    3    0    0  0.26207651702E-01 -0.11112469227E+00 -0.60836148158E-01  0.13091287770E+00  0.20040119383E-01 0.  0.
         14    1    1    2    0    0 -0.20708707573E-01 -0.66072999712E-02  0.93652825648E-02  0.23668871959E-01  0.00000000000E+00 0. -1.
     999901    1    3    3    0    0 -0.54989441284E-02  0.11773199224E+00  0.51470865593E-01  0.88934825034E+00  0.88000000000E+00 0.  1.
        -11    1    4    4    0    0  0.17652327101E-01 -0.50119929073E-01 -0.37489886433E-01  0.65033565550E-01  0.51100000000E-03 0.  1.
         11    1    4    4    0    0  0.85553246013E-02 -0.61004763196E-01 -0.23346261726E-01  0.65879312149E-01  0.51100000000E-03 0. -1.
</event>
<event>
 8    1  0.1086235E+005  0.1043930E+01  0.7957747E-01            NaN
         13   -1    0    0    0    0  0.00000000000E+00  0.00000000000E+00  0.74505805969E-08  0.10566000000E+00  0.10566000000E+00 0.  1.
     999900   -1    0    0    0    0 -0.00000000000E+00 -0.00000000000E+00 -0.74505805969E-08  0.93827000000E+00  0.93827000000E+00 0.  1.
     999902    2    1    2    0    0 -0.19949329111E-02  0.62538766917E-02 -0.22575624299E-01  0.10204193738E+01  0.10201484936E+01 0.  0.
     999903    2    3    3    0    0 -0.47058703838E-01 -0.78172805698E-01  0.87525681451E-01  0.12840989759E+00  0.22424266509E-01 0.  0.
         14    1    1    2    0    0  0.19949329111E-02 -0.62538766917E-02  0.22575624299E-01  0.23510626182E-01  0.00000000000E+00 0.  1.
     999901    1    3    3    0    0  0.45063770927E-01  0.84426682390E-01 -0.11010130575E+00  0.89200947623E+00  0.88000000000E+00 0.  1.
        -11    1    4    4    0    0 -0.28000180110E-01 -0.25831646626E-01  0.39195279507E-01  0.54660910258E-01  0.51100000000E-03 0.  1.
         11    1    4    4    0    0 -0.19058523728E-01 -0.52341159072E-01  0.48330401944E-01  0.73748987334E-01  0.51100000000E-03 0. -1.
</event>
<event>
 8    1  0.1086235E+005  0.1043930E+01  0.7957747E-01            NaN
         13   -1    0    0    0    0  0.00000000000E+00  0.00000000000E+00  0.74505805969E-08  0.10566000000E+00  0.10566000000E+00 0. -1.
     999900   -1    0    0    0    0 -0.00000000000E+00 -0.00000000000E+00 -0.74505805969E-08  0.93827000000E+00  0.93827000000E+00 0. -1.
     999902    2    1    2    0    0  0.43413829477E-03  0.90196256631E-02 -0.22632504254E-01  0.10195625551E+01  0.10192713237E+01 0.  0.
     999903    2    3    3    0    0  0.84793288849E-01  0.78388940634E-01 -0.60907146682E-01  0.13198522527E+00  0.19382758442E-01 0.  0.
         14    1    1    2    0    0 -0.43413829477E-03 -0.90196256631E-02  0.22632504254E-01  0.24367444921E-01  0.00000000000E+00 0. -1.
     999901    1    3    3    0    0 -0.84359150554E-01 -0.69369314971E-01  0.38274642428E-01  0.88757732981E+00  0.88000000000E+00 0.  1.
        -11    1    4    4    0    0  0.40796817465E-01  0.27126538090E-01 -0.31904252596E-01  0.58466843927E-01  0.51100000000E-03 0.  1.
         11    1    4    4    0    0  0.43996471383E-01  0.51262402544E-01 -0.29002894086E-01  0.73518381342E-01  0.51100000000E-03 0. -1.
</event>
<event>
 8    1  0.1086235E+005  0.1043930E+01  0.7957747E-01            NaN
         13   -1    0    0    0    0  0.00000000000E+00  0.00000000000E+00  0.74505805969E-08  0.10566000000E+00  0.10566000000E+00 0. -1.
     999900   -1    0    0    0    0 -0.00000000000E+00 -0.00000000000E+00 -0.74505805969E-08  0.93827000000E+00  0.93827000000E+00 0. -1.
     999902    2    1    2    0    0 -0.48639065090E-02  0.76511435874E-02  0.21870358553E-01  0.10202549041E+01  0.10199801758E+01 0.  0.
     999903    2    3    3    0    0  0.44930280769E-01  0.76837607650E-01  0.96748235036E-01  0.13297088849E+00  0.19957157195E-01 0.  0.
         14    1    1    2    0    0  0.48639065090E-02 -0.76511435874E-02 -0.21870358553E-01  0.23675095944E-01  0.00000000000E+00 0.  1.
     999901    1    3    3    0    0 -0.49794187278E-01 -0.69186464062E-01 -0.74877876483E-01  0.88728401557E+00  0.88000000000E+00 0. -1.
        -11    1    4    4    0    0  0.10606820056E-01  0.35389716885E-01  0.32962794578E-01  0.49515084977E-01  0.51100000000E-03 0.  1.
         11    1    4    4    0    0  0.34323460713E-01  0.41447890765E-01  0.63785440458E-01  0.83455803510E-01  0.51100000000E-03 0. -1.
</event>
<event>
 8    1  0.1086235E+005  0.1043930E+01  0.7957747E-01            NaN
         13   -1    0    0    0    0  0.00000000000E+00  0.00000000000E+00  0.74505805969E-08  0.10566000000E+00  0.10566000000E+00 0.  1.
     999900   -1    0    0    0    0 -0.00000000000E+00 -0.00000000000E+00 -0.74505805969E-08  0.93827000000E+00  0.93827000000E+00 0.  1.
     999902    2    1    2    0    0 -0.58038184166E-02  0.31842799524E-02  0.21217944355E-01  0.10217033244E+01  0.10214615303E+01 0.  0.
     999903    2    3    3    0    0  0.32996787144E-01  0.92150932450E-01 -0.83367525408E-01  0.13021093924E+00  0.20595195868E-01 0.  0.
         14    1    1    2    0    0  0.58038184166E-02 -0.31842799524E-02 -0.21217944355E-01  0.22226675632E-01  0.00000000000E+00 0. -1.
     999901    1    3    3    0    0 -0.38800605560E-01 -0.88966652498E-01  0.10458546976E+00  0.89149238512E+00  0.88000000000E+00 0.  1.
        -11    1    4    4    0    0  0.10371536494E-01  0.42143504870E-01 -0.48955870051E-01  0.65426157654E-01  0.51100000000E-03 0.  1.
         11    1    4    4    0    0  0.22625250650E-01  0.50007427580E-01 -0.34411655357E-01  0.64784781589E-01  0.51100000000E-03 0. -1.
</event>
<event>
 8    1  0.1086235E+005  0.1043930E+01  0.7957747E-01            NaN
         13   -1    0    0    0    0  0.00000000000E+00  0.00000000000E+00  0.74505805969E-08  0.10566000000E+00  0.10566000000E+00 0. -1.
     999900   -1    0    0    0    0 -0.00000000000E+00 -0.00000000000E+00 -0.74505805969E-08  0.93827000000E+00  0.93827000000E+00 0. -1.
     999902    2    1    2    0    0  0.95455094919E-02 -0.11354653909E-01 -0.17858404787E-01  0.10207143256E+01  0.10204502766E+01 0.  0.
     999903    2    3    3    0    0  0.11701923226E+00  0.44740215287E-01  0.32777654510E-01  0.13096085078E+00  0.19523888394E-01 0.  0.
         14    1    1    2    0    0 -0.95455094919E-02  0.11354653909E-01  0.17858404787E-01  0.23215674412E-01  0.00000000000E+00 0. -1.
     999901    1    3    3    0    0 -0.10747372277E+00 -0.56094869196E-01 -0.50636059297E-01  0.88975347481E+00  0.88000000000E+00 0. -1.
        -11    1    4    4    0    0  0.98100840593E-01  0.38220608625E-01  0.34691349987E-01  0.11085278857E+00  0.51100000000E-03 0.  1.
         11    1    4    4    0    0  0.18918391669E-01  0.65196066623E-02 -0.19136954774E-02  0.20108062208E-01  0.51100000000E-03 0. -1.
</event>
<event>
 8    1  0.1086235E+005  0.1043930E+01  0.7957747E-01            NaN
         13   -1    0    0    0    0  0.00000000000E+00  0.00000000000E+00  0.74505805969E-08  0.10566000000E+00  0.10566000000E+00 0.  1.
     999900   -1    0    0    0    0 -0.00000000000E+00 -0.00000000000E+00 -0.74505805969E-08  0.93827000000E+00  0.93827000000E+00 0.  1.
     999902    2    1    2    0    0 -0.91425750236E-02  0.18813181499E-01  0.11399551742E-01  0.10201083238E+01  0.10198301428E+01 0.  0.
     999903    2    3    3    0    0  0.81656458814E-01  0.10084823672E+00  0.97143967105E-02  0.13163938538E+00  0.19910152282E-01 0.  0.
         14    1    1    2    0    0  0.91425750236E-02 -0.18813181499E-01 -0.11399551742E-01  0.23821676181E-01  0.00000000000E+00 0. -1.
     999901    1    3    3    0    0 -0.90799033837E-01 -0.82035055217E-01  0.16851550310E-02  0.88846893844E+00  0.88000000000E+00 0.  1.
        -11    1    4    4    0    0  0.37953746572E-01  0.38939661388E-01 -0.43927242531E-02  0.54555854455E-01  0.51100000000E-03 0. -1.
         11    1    4    4    0    0  0.43702712242E-01  0.61908575328E-01  0.14107120964E-01  0.77083530921E-01  0.51100000000E-03 0.  1.
</event>
<event>
 8    1  0.1086235E+005  0.1043930E+01  0.7957747E-01            NaN
         13   -1    0    0    0    0  0.00000000000E+00  0.00000000000E+00  0.74505805969E-08  0.10566000000E+00  0.10566000000E+00 0.  1.
     999900   -1    0    0    0    0 -0.00000000000E+00 -0.00000000000E+00 -0.74505805969E-08  0.93827000000E+00  0.93827000000E+00 0. -1.
     999902    2    1    2    0    0 -0.15679655195E-01  0.23959522037E-02  0.17718002314E-01  0.10201493402E+01  0.10198721275E+01 0.  0.
     999903    2    3    3    0    0  0.11314195158E+00  0.51440840041E-01 -0.25293817965E-01  0.12838119541E+00  0.19866878859E-01 0.  0.
         14    1    1    2    0    0  0.15679655195E-01 -0.23959522037E-02 -0.17718002314E-01  0.23780659789E-01  0.00000000000E+00 0. -1.
     999901    1    3    3    0    0 -0.12882160678E+00 -0.49044887838E-01  0.43011820279E-01  0.89176814480E+00  0.88000000000E+00 0.  1.
        -11    1    4    4    0    0  0.85467304877E-01  0.43136413136E-01 -0.26879865954E-01  0.99439422041E-01  0.51100000000E-03 0. -1.
         11    1    4    4    0    0  0.27674646707E-01  0.83044269051E-02  0.15860479888E-02  0.28941773370E-01  0.51100000000E-03 0.  1.
</event>
<event>
 8    1  0.1086235E+005  0.1043930E+01  0.7957747E-01            NaN
         13   -1    0    0    0    0  0.00000000000E+00  0.00000000000E+00  0.74505805969E-08  0.10566000000E+00  0.10566000000E+00 0.  1.
     999900   -1    0    0    0    0 -0.00000000000E+00 -0.00000000000E+00 -0.74505805969E-08  0.93827000000E+00  0.93827000000E+00 0.  1.
     999902    2    1    2    0    0 -0.22645559675E-01 -0.34921029639E-02 -0.44751482568E-02  0.10205838417E+01  0.10203167816E+01 0.  0.
     999903    2    3    3    0    0 -0.47027719398E-01 -0.10000320274E+00 -0.70647642157E-01  0.13250294388E+00  0.18806749971E-01 0.  0.
         14    1    1    2    0    0  0.22645559675E-01  0.34921029639E-02  0.44751482568E-02  0.23346158314E-01  0.00000000000E+00 0.  1.
     999901    1    3    3    0    0  0.24382159723E-01  0.96511099780E-01  0.66172493900E-01  0.88808089780E+00  0.88000000000E+00 0. -1.
        -11    1    4    4    0    0 -0.44635726947E-01 -0.78434891759E-01 -0.54241108459E-01  0.10529358638E+00  0.51100000000E-03 0. -1.
         11    1    4    4    0    0 -0.23919924511E-02 -0.21568310986E-01 -0.16406533698E-01  0.27209357501E-01  0.51100000000E-03 0.  1.
</event>
<event>
 8    1  0.1086235E+005  0.1043930E+01  0.7957747E-01            NaN
         13   -1    0    0    0    0  0.00000000000E+00  0.00000000000E+00  0.74505805969E-08  0.10566000000E+00  0.10566000000E+00 0.  1.
     999900   -1    0    0    0    0 -0.00000000000E+00 -0.00000000000E+00 -0.74505805969E-08  0.93827000000E+00  0.93827000000E+00 0.  1.
     999902    2    1    2    0    0 -0.81652257260E-02  0.14094166642E-01  0.16014746904E-01  0.10210873083E+01  0.10208317700E+01 0.  0.
     999903    2    3    3    0    0 -0.23693726031E-01 -0.97717849139E-01 -0.78038491473E-01  0.12890511121E+00  0.20404677212E-01 0.  0.
         14    1    1    2    0    0  0.81652257260E-02 -0.14094166642E-01 -0.16014746904E-01  0.22842691673E-01  0.00000000000E+00 0. -1.
     999901    1    3    3    0    0  0.15528500305E-01  0.11181201578E+00  0.94053238377E-01  0.89218219711E+00  0.88000000000E+00 0. -1.
        -11    1    4    4    0    0 -0.12210268401E-02 -0.63069216424E-02 -0.12934223983E-01  0.14450724487E-01  0.51100000000E-03 0. -1.
         11    1    4    4    0    0 -0.22472699191E-01 -0.91410927497E-01 -0.65104267490E-01  0.11445438673E+00  0.51100000000E-03 0.  1.
</event>
<event>
 8    1  0.1086235E+005  0.1043930E+01  0.7957747E-01            NaN
         13   -1    0    0    0    0  0.00000000000E+00  0.00000000000E+00  0.74505805969E-08  0.10566000000E+00  0.10566000000E+00 0.  1.
     999900   -1    0    0    0    0 -0.00000000000E+00 -0.00000000000E+00 -0.74505805969E-08  0.93827000000E+00  0.93827000000E+00 0.  1.
     999902    2    1    2    0    0 -0.88103393643E-02 -0.14543415865E-01 -0.12557266452E-01  0.10227919309E+01  0.10225734770E+01 0.  0.
     999903    2    3    3    0    0 -0.83777729611E-01 -0.95573278737E-01 -0.41940132204E-01  0.13540852950E+00  0.20579980172E-01 0.  0.
         14    1    1    2    0    0  0.88103393643E-02  0.14543415865E-01  0.12557266452E-01  0.21138069105E-01  0.00000000000E+00 0.  1.
     999901    1    3    3    0    0  0.74967390247E-01  0.81029862872E-01  0.29382865752E-01  0.88738340140E+00  0.88000000000E+00 0.  1.
        -11    1    4    4    0    0 -0.28996616515E-01 -0.48478167962E-01 -0.19435479195E-01  0.59740568383E-01  0.51100000000E-03 0.  1.
         11    1    4    4    0    0 -0.54781113096E-01 -0.47095110775E-01 -0.22504653009E-01  0.75667961113E-01  0.51100000000E-03 0. -1.
</event>
<event>
 8    1  0.1086235E+005  0.1043930E+01  0.7957747E-01            NaN
         13   -1    0    0    0    0  0.00000000000E+00  0.00000000000E+00  0.74505805969E-08  0.10566000000E+00  0.10566000000E+00 0. -1.
     999900   -1    0    0    0    0 -0.00000000000E+00 -0.00000000000E+00 -0.74505805969E-08  0.93827000000E+00  0.93827000000E+00 0.  1.
     999902    2    1    2    0    0 -0.14171762591E-02  0.83908778476E-02 -0.20801580986E-01  0.10214551031E+01  0.10212078176E+01 0.  0.
     999903    2    3    3    0    0  0.48391026925E-01 -0.69879489271E-01 -0.10034366558E+00  0.13301036609E+00  0.19951735720E-01 0.  0.
         14    1    1    2    0    0  0.14171762591E-02 -0.83908778476E-02  0.20801580986E-01  0.22474896910E-01  0.00000000000E+00 0. -1.
     999901    1    3    3    0    0 -0.49808203185E-01  0.78270367119E-01  0.79542084596E-01  0.88844473700E+00  0.88000000000E+00 0. -1.
        -11    1    4    4    0    0  0.25715982088E-01 -0.27139706330E-01 -0.56272958923E-01  0.67563173559E-01  0.51100000000E-03 0.  1.
         11    1    4    4    0    0  0.22675044838E-01 -0.42739782941E-01 -0.44070706659E-01  0.65447192535E-01  0.51100000000E-03 0. -1.
</event>
<event>
 8    1  0.1086235E+005  0.1043930E+01  0.7957747E-01            NaN
         13   -1    0    0    0    0  0.00000000000E+00  0.00000000000E+00  0.74505805969E-08  0.10566000000E+00  0.10566000000E+00 0. -1.
     999900   -1    0    0    0    0 -0.00000000000E+00 -0.00000000000E+00 -0.74505805969E-08  0.93827000000E+00  0.93827000000E+00 0.  1.
     999902    2    1    2    0    0  0.71605171173E-02 -0.36635834871E-02  0.24196523964E-01  0.10184316349E+01  0.10181123850E+01 0.  0.
     999903    2    3    3    0    0 -0.91453873822E-01 -0.40834229793E-01  0.81205270470E-01  0.13031201898E+00  0.18859506353E-01 0.  0.
         14    1    1    2    0    0 -0.71605171173E-02  0.36635834871E-02 -0.24196523964E-01  0.25498365071E-01  0.00000000000E+00 0.  1.
     999901    1    3    3    0    0  0.98614390939E-01  0.37170646306E-01 -0.57008746506E-01  0.88811961594E+00  0.88000000000E+00 0.  1.
        -11    1    4    4    0    0 -0.34755043805E-01 -0.58484068387E-02  0.26309053846E-01  0.43983455613E-01  0.51100000000E-03 0. -1.
         11    1    4    4    0    0 -0.56698830018E-01 -0.34985822954E-01  0.54896216624E-01  0.86328563371E-01  0.51100000000E-03 0.  1.
</event>
<event>
 8    1  0.1086235E+005  0.1043930E+01  0.7957747E-01            NaN
         13   -1    0    0    0    0  0.00000000000E+00  0.00000000000E+00  0.74505805969E-08  0.10566000000E+00  0.10566000000E+00 0. -1.
     999900   -1    0    0    0    0 -0.00000000000E+00 -0.00000000000E+00 -0.74505805969E-08  0.93827000000E+00  0.93827000000E+00 0. -1.
     999902    2    1    2    0    0 -0.43843394301E-02  0.23085020167E-01  0.20582896086E-02  0.10203423519E+01  0.10200696730E+01 0.  0.
     999903    2    3    3    0    0 -0.19509325761E-02  0.85196094386E-02  0.12906431185E+00  0.13110188813E+00  0.21300671275E-01 0.  0.
         14    1    1    2    0    0  0.43843394301E-02 -0.23085020167E-01 -0.20582896086E-02  0.23587648133E-01  0.00000000000E+00 0.  1.
     999901    1    3    3    0    0 -0.24334068540E-02  0.14565410728E-01 -0.12700602224E+00  0.88924046373E+00  0.88000000000E+00 0. -1.
        -11    1    4    4    0    0  0.85410712727E-02 -0.97005485091E-03  0.39688849600E-01  0.40612274111E-01  0.51100000000E-03 0.  1.
         11    1    4    4    0    0 -0.10492003849E-01  0.94896642895E-02  0.89375462245E-01  0.90489614021E-01  0.51100000000E-03 0. -1.
</event>
<event>
 8    1  0.1086235E+005  0.1043930E+01  0.7957747E-01            NaN
         13   -1    0    0    0    0  0.00000000000E+00  0.00000000000E+00  0.74505805969E-08  0.10566000000E+00  0.10566000000E+00 0.  1.
     999900   -1    0    0    0    0 -0.00000000000E+00 -0.00000000000E+00 -0.74505805969E-08  0.93827000000E+00  0.93827000000E+00 0. -1.
     999902    2    1    2    0    0  0.12683308264E-01 -0.14898183728E-01  0.15743929177E-01  0.10188163883E+01  0.10185068186E+01 0.  0.
     999903    2    3    3    0    0  0.32322843316E-01 -0.10919443345E-01  0.12565068363E+00  0.13175323587E+00  0.20169789863E-01 0.  0.
         14    1    1    2    0    0 -0.12683308264E-01  0.14898183728E-01 -0.15743929177E-01  0.25113611705E-01  0.00000000000E+00 0. -1.
     999901    1    3    3    0    0 -0.19639535051E-01 -0.39787403831E-02 -0.10990675445E+00  0.88706315242E+00  0.88000000000E+00 0. -1.
        -11    1    4    4    0    0  0.14771353417E-02  0.45255734761E-02  0.10393566018E-01  0.11443342155E-01  0.51100000000E-03 0.  1.
         11    1    4    4    0    0  0.30845707974E-01 -0.15445016821E-01  0.11525711761E+00  0.12030989372E+00  0.51100000000E-03 0. -1.
</event>
<event>
 8    1  0.1086235E+005  0.1043930E+01  0.7957747E-01            NaN
         13   -1    0    0    0    0  0.00000000000E+00  0.00000000000E+00  0.74505805969E-08  0.10566000000E+00  0.10566000000E+00 0.  1.
     999900   -1    0    0    0    0 -0.00000000000E+00 -0.00000000000E+00 -0.74505805969E-08  0.93827000000E+00  0.93827000000E+00 0.  1.
     999902    2    1    2    0    0 -0.23020763308E-01 -0.70859218895E-03 -0.23093304122E-02  0.10207828478E+01  0.10205203730E+01 0.  0.
     999903    2    3    3    0    0 -0.41115427192E-01 -0.12289545432E+00  0.13385793833E-01  0.13201775904E+00  0.21348025201E-01 0.  0.
         14    1    1    2    0    0  0.23020763308E-01  0.70859218895E-03  0.23093304122E-02  0.23147152161E-01  0.00000000000E+00 0. -1.
     999901    1    3    3    0    0  0.18094663883E-01  0.12218686213E+00 -0.15695124245E-01  0.88876508880E+00  0.88000000000E+00 0.  1.
        -11    1    4    4    0    0 -0.27877814778E-01 -0.52872251251E-01  0.10537652145E-01  0.60695557852E-01  0.51100000000E-03 0. -1.
         11    1    4    4    0    0 -0.13237612414E-01 -0.70023203070E-01  0.28481416878E-02  0.71322201191E-01  0.51100000000E-03 0.  1.
</event>
<event>
 8    1  0.1086235E+005  0.1043930E+01  0.7957747E-01            NaN
         13   -1    0    0    0    0  0.00000000000E+00  0.00000000000E+00  0.74505805969E-08  0.10566000000E+00  0.10566000000E+00 0. -1.
     999900   -1    0    0    0    0 -0.00000000000E+00 -0.00000000000E+00 -0.74505805969E-08  0.93827000000E+00  0.93827000000E+00 0.  1.
     999902    2    1    2    0    0 -0.18953092303E-01  0.10343092151E-01  0.92770301215E-02  0.10204297330E+01  0.10201590941E+01 0.  0.
     999903    2    3    3    0    0 -0.12318440763E+00 -0.25613459800E-01  0.38584810253E-01  0.13306510289E+00  0.19674511921E-01 0.  0.
         14    1    1    2    0    0  0.18953092303E-01 -0.10343092151E-01 -0.92770301215E-02  0.23500267040E-01  0.00000000000E+00 0.  1.
     999901    1    3    3    0    0  0.10423131533E+00  0.35956551951E-01 -0.29307780131E-01  0.88736463007E+00  0.88000000000E+00 0.  1.
        -11    1    4    4    0    0 -0.79800398449E-01 -0.22547360840E-01  0.17604380417E-01  0.84774184776E-01  0.51100000000E-03 0. -1.
         11    1    4    4    0    0 -0.43384009179E-01 -0.30660989602E-02  0.20980429835E-01  0.48290918114E-01  0.51100000000E-03 0.  1.
</event>
<event>
 8    1  0.1086235E+005  0.1043930E+01  0.7957747E-01            NaN
         13   -1    0    0    0    0  0.00000000000E+00  0.00000000000E+00  0.74505805969E-08  0.10566000000E+00  0.10566000000E+00 0. -1.
     999900   -1    0    0    0    0 -0.00000000000E+00 -0.00000000000E+00 -0.74505805969E-08  0.93827000000E+00  0.93827000000E+00 0.  1.
     999902    2    1    2    0    0 -0.22276808069E-03  0.21618050648E-01 -0.78465324080E-02  0.10209309172E+01  0.10206718277E+01 0.  0.
     999903    2    3    3    0    0  0.77298444836E-01  0.75740646756E-01 -0.75331039983E-01  0.13329757361E+00  0.19539252832E-01 0.  0.
         14    1    1    2    0    0  0.22276808069E-03 -0.21618050648E-01  0.78465324080E-02  0.22999082813E-01  0.00000000000E+00 0.  1.
     999901    1    3    3    0    0 -0.77521212916E-01 -0.54122596108E-01  0.67484507575E-01  0.88763334357E+00  0.88000000000E+00 0. -1.
        -11    1    4    4    0    0  0.22564119432E-01  0.27480299529E-01 -0.14924045399E-01  0.38565458639E-01  0.51100000000E-03 0.  1.
         11    1    4    4    0    0  0.54734325404E-01  0.48260347227E-01 -0.60406994584E-01  0.94732114974E-01  0.51100000000E-03 0. -1.
</event>
<event>
 8    1  0.1086235E+005  0.1043930E+01  0.7957747E-01            NaN
         13   -1    0    0    0    0  0.00000000000E+00  0.00000000000E+00  0.74505805969E-08  0.10566000000E+00  0.10566000000E+00 0.  1.
     999900   -1    0    0    0    0 -0.00000000000E+00 -0.00000000000E+00 -0.74505805969E-08  0.93827000000E+00  0.93827000000E+00 0.  1.
     999902    2    1    2    0    0 -0.86083028788E-03 -0.49008432557E-02 -0.23533191155E-01  0.10198765100E+01  0.10195928233E+01 0.  0.
     999903    2    3    3    0    0  0.69254693865E-03  0.12293185041E+00  0.32483460783E-01  0.12887624301E+00  0.21004554789E-01 0.  0.
         14    1    1    2    0    0  0.86083028788E-03  0.49008432557E-02  0.23533191155E-01  0.24053489961E-01  0.00000000000E+00 0.  1.
     999901    1    3    3    0    0 -0.15533772265E-02 -0.12783269366E+00 -0.56016651937E-01  0.89100026703E+00  0.88000000000E+00 0.  1.
        -11    1    4    4    0    0  0.46556773809E-02  0.46021770016E-01  0.28139522188E-02  0.46344989970E-01  0.51100000000E-03 0. -1.
         11    1    4    4    0    0 -0.39631304423E-02  0.76910080393E-01  0.29669508564E-01  0.82531253040E-01  0.51100000000E-03 0.  1.
</event>
<event>
 8    1  0.1086235E+005  0.1043930E+01  0.7957747E-01            NaN
         13   -1    0    0    0    0  0.00000000000E+00  0.00000000000E+00  0.74505805969E-08  0.10566000000E+00  0.10566000000E+00 0.  1.
     999900   -1    0    0    0    0 -0.00000000000E+00 -0.00000000000E+00 -0.74505805969E-08  0.93827000000E+00  0.93827000000E+00 0.  1.
     999902    2    1    2    0    0  0.14671200173E-02 -0.21018120369E-01  0.21106713893E-02  0.10227552802E+01  0.10225360602E+01 0.  0.
     999903    2    3    3    0    0  0.12392849026E+00 -0.38815022570E-02  0.43962512436E-01  0.13312500448E+00  0.20401655814E-01 0.  0.
         14    1    1    2    0    0 -0.14671200173E-02  0.21018120369E-01 -0.21106713893E-02  0.21174719803E-01  0.00000000000E+00 0.  1.
     999901    1    3    3    0    0 -0.12246137024E+00 -0.17136618112E-01 -0.41851841047E-01  0.88963027572E+00  0.88000000000E+00 0. -1.
        -11    1    4    4    0    0  0.68849161178E-01 -0.79045846633E-02  0.33251574113E-01  0.76867533820E-01  0.51100000000E-03 0.  1.
         11    1    4    4    0    0  0.55079329079E-01  0.40230824063E-02  0.10710938323E-01  0.56257470656E-01  0.51100000000E-03 0. -1.
</event>
<event>
 8    1  0.1086235E+005  0.1043930E+01  0.7957747E-01            NaN
         13   -1    0    0    0    0  0.00000000000E+00  0.00000000000E+00  0.74505805969E-08  0.10566000000E+00  0.10566000000E+00 0. -1.
     999900   -1    0    0    0    0 -0.00000000000E+00 -0.00000000000E+00 -0.74505805969E-08  0.93827000000E+00  0.93827000000E+00 0. -1.
     999902    2    1    2    0    0  0.19397735817E-01  0.56559340097E-02 -0.32058921377E-02  0.10234717623E+01  0.10232672714E+01 0.  0.
     999903    2    3    3    0    0 -0.15454714164E-01  0.85272280283E-01  0.99517999028E-01  0.13324389617E+00  0.18436207894E-01 0.  0.
         14    1    1    2    0    0 -0.19397735817E-01 -0.56559340097E-02  0.32058921377E-02  0.20458237675E-01  0.00000000000E+00 0. -1.
     999901    1    3    3    0    0  0.34852449981E-01 -0.79616346273E-01 -0.10272389117E+00  0.89022786616E+00  0.88000000000E+00 0. -1.
        -11    1    4    4    0    0  0.32607131505E-02  0.13463649078E-01  0.21394038866E-01  0.25492510993E-01  0.51100000000E-03 0.  1.
         11    1    4    4    0    0 -0.18715427315E-01  0.71808631205E-01  0.78123960162E-01  0.10775138518E+00  0.51100000000E-03 0. -1.
</event>
<event>
 8    1  0.1253779E+005  0.1043930E+01  0.7957747E-01            NaN
         13   -1    0    0    0    0  0.00000000000E+00  0.00000000000E+00  0.74505805969E-08  0.10566000000E+00  0.10566000000E+00 0. -1.
     999900   -1    0    0    0    0 -0.00000000000E+00 -0.00000000000E+00 -0.74505805969E-08  0.93827000000E+00  0.93827000000E+00 0.  1.
     999902    2    1    2    0    0  0.17682715944E-01 -0.76387186176E-02 -0.22077710614E-01  0.10146306182E+01  0.10142074924E+01 0.  0.
     999903    2    3    3    0    0  0.50400836596E-01 -0.71008988348E-01  0.87359599490E-01  0.12498867266E+00  0.20197720512E-01 0.  0.
         14    1    1    2    0    0 -0.17682715944E-01  0.76387186176E-02  0.22077710614E-01  0.29299381756E-01  0.00000000000E+00 0. -1.
     999901    1    3    3    0    0 -0.32718120652E-01  0.63370269730E-01 -0.10943731010E+00  0.88964194559E+00  0.88000000000E+00 0.  1.
        -11    1    4    4    0    0  0.12290431603E-01 -0.65904970002E-02  0.19344053995E-01  0.23852524094E-01  0.51100000000E-03 0.  1.
         11    1    4    4    0    0  0.38110404993E-01 -0.64418491348E-01  0.68015545495E-01  0.10113614856E+00  0.51100000000E-03 0. -1.
</event>
<event>
 8    1  0.1086235E+005  0.1043930E+01  0.7957747E-01            NaN
         13   -1    0    0    0    0  0.00000000000E+00  0.00000000000E+00  0.74505805969E-08  0.10566000000E+00  0.10566000000E+00 0. -1.
     999900   -1    0    0    0    0 -0.00000000000E+00 -0.00000000000E+00 -0.74505805969E-08  0.93827000000E+00  0.93827000000E+00 0.  1.
     999902    2    1    2    0    0 -0.19217411654E-01 -0.11832045244E-01 -0.10029895105E-01  0.10192337452E+01  0.10189345035E+01 0.  0.
     999903    2    3    3    0    0  0.33586411792E-01  0.12090583727E+00 -0.11970941325E-01  0.12771181228E+00  0.20511826244E-01 0.  0.
         14    1    1    2    0    0  0.19217411654E-01  0.11832045244E-01  0.10029895105E-01  0.24696254800E-01  0.00000000000E+00 0.  1.
     999901    1    3    3    0    0 -0.52803823446E-01 -0.13273788251E+00  0.19410462199E-02  0.89152193292E+00  0.88000000000E+00 0.  1.
        -11    1    4    4    0    0  0.13067991942E-01  0.82789519755E-01 -0.63309762323E-02  0.84054859322E-01  0.51100000000E-03 0.  1.
         11    1    4    4    0    0  0.20518419849E-01  0.38116317514E-01 -0.56399650924E-02  0.43656952953E-01  0.51100000000E-03 0. -1.
</event>
<event>
 8    1  0.1086235E+005  0.1043930E+01  0.7957747E-01            NaN
         13   -1    0    0    0    0  0.00000000000E+00  0.00000000000E+00  0.74505805969E-08  0.10566000000E+00  0.10566000000E+00 0. -1.
     999900   -1    0    0    0    0 -0.00000000000E+00 -0.00000000000E+00 -0.74505805969E-08  0.93827000000E+00  0.93827000000E+00 0.  1.
     999902    2    1    2    0    0 -0.59997637773E-02  0.16975580342E-01  0.15363299373E-01  0.10202614880E+01  0.10199869143E+01 0.  0.
     999903    2    3    3    0    0  0.11324003888E+00  0.83116845711E-02 -0.58295956817E-01  0.12912800772E+00  0.19576345172E-01 0.  0.
         14    1    1    2    0    0  0.59997637773E-02 -0.16975580342E-01 -0.15363299373E-01  0.23668512014E-01  0.00000000000E+00 0.  1.
     999901    1    3    3    0    0 -0.11923980266E+00  0.86638957710E-02  0.73659256190E-01  0.89113348027E+00  0.88000000000E+00 0.  1.
        -11    1    4    4    0    0  0.74877686962E-01  0.13373481043E-01 -0.33126872255E-01  0.82964864770E-01  0.51100000000E-03 0. -1.
         11    1    4    4    0    0  0.38362351919E-01 -0.50617964714E-02 -0.25169084562E-01  0.46163142950E-01  0.51100000000E-03 0.  1.
</event>
<event>
 8    1  0.1086235E+005  0.1043930E+01  0.7957747E-01            NaN
         13   -1    0    0    0    0  0.00000000000E+00  0.00000000000E+00  0.74505805969E-08  0.10566000000E+00  0.10566000000E+00 0. -1.
     999900   -1    0    0    0    0 -0.00000000000E+00 -0.00000000000E+00 -0.74505805969E-08  0.93827000000E+00  0.93827000000E+00 0.  1.
     999902    2    1    2    0    0 -0.23675802997E-02  0.23203924777E-01  0.27973709163E-02  0.10204384516E+01  0.10201680159E+01 0.  0.
     999903    2    3    3    0    0  0.15297068052E-01 -0.12534054498E+00  0.48273591407E-02  0.12781220276E+00  0.19193834145E-01 0.  0.
         14    1    1    2    0    0  0.23675802997E-02 -0.23203924777E-01 -0.27973709163E-02  0.23491548386E-01  0.00000000000E+00 0. -1.
     999901    1    3    3    0    0 -0.17664648351E-01  0.14854446976E+00 -0.20299882244E-02  0.89262624886E+00  0.88000000000E+00 0. -1.
        -11    1    4    4    0    0  0.52993766151E-02 -0.41054551846E-01  0.10612298773E-01  0.42736888352E-01  0.51100000000E-03 0.  1.
         11    1    4    4    0    0  0.99976914364E-02 -0.84285993138E-01 -0.57849396327E-02  0.85075314403E-01  0.51100000000E-03 0. -1.
</event>
<event>
 8    1  0.1086235E+005  0.1043930E+01  0.7957747E-01            NaN
         13   -1    0    0    0    0  0.00000000000E+00  0.00000000000E+00  0.74505805969E-08  0.10566000000E+00  0.10566000000E+00 0.  1.
     999900   -1    0    0    0    0 -0.00000000000E+00 -0.00000000000E+00 -0.74505805969E-08  0.93827000000E+00  0.93827000000E+00 0.  1.
     999902    2    1    2    0    0  0.19400220021E-01 -0.69527332871E-02  0.85895243801E-02  0.10216031335E+01  0.10213591305E+01 0.  0.
     999903    2    3    3    0    0  0.10884495652E+00 -0.73924996140E-01  0.25004232363E-01  0.13438552352E+00  0.11051139422E-01 0.  0.
         14    1    1    2    0    0 -0.19400220021E-01  0.69527332871E-02 -0.85895243801E-02  0.22326866464E-01  0.00000000000E+00 0. -1.
     999901    1    3    3    0    0 -0.89444736499E-01  0.66972262853E-01 -0.16414707983E-01  0.88721761001E+00  0.88000000000E+00 0.  1.
        -11    1    4    4    0    0  0.58895182793E-01 -0.45587705657E-01  0.11165955971E-01  0.75311494189E-01  0.51100000000E-03 0. -1.
         11    1    4    4    0    0  0.49949773726E-01 -0.28337290484E-01  0.13838276392E-01  0.59074029334E-01  0.51100000000E-03 0.  1.
</event>
<event>
 8    1  0.1086235E+005  0.1043930E+01  0.7957747E-01            NaN
         13   -1    0    0    0    0  0.00000000000E+00  0.00000000000E+00  0.74505805969E-08  0.10566000000E+00  0.10566000000E+00 0.  1.
     999900   -1    0    0    0    0 -0.00000000000E+00 -0.00000000000E+00 -0.74505805969E-08  0.93827000000E+00  0.93827000000E+00 0. -1.
     999902    2    1    2    0    0  0.21180773737E-01  0.10291965184E-01  0.14820962536E-02  0.10203345273E+01  0.10200616654E+01 0.  0.
     999903    2    3    3    0    0  0.11589467085E+00  0.14876802450E-01  0.61087722216E-01  0.13323556229E+00  0.19160148003E-01 0.  0.
         14    1    1    2    0    0 -0.21180773737E-01 -0.10291965184E-01 -0.14820962536E-02  0.23595472718E-01  0.00000000000E+00 0. -1.
     999901    1    3    3    0    0 -0.94713897112E-01 -0.45848372662E-02 -0.59605625963E-01  0.88709896499E+00  0.88000000000E+00 0. -1.
        -11    1    4    4    0    0  0.37392665510E-01  0.81400256858E-02  0.29607570441E-01  0.48387403325E-01  0.51100000000E-03 0. -1.
         11    1    4    4    0    0  0.78502005339E-01  0.67367767647E-02  0.31480151775E-01  0.84848158968E-01  0.51100000000E-03 0.  1.
</event>
<event>
 8    1  0.1086235E+005  0.1043930E+01  0.7957747E-01            NaN
         13   -1    0    0    0    0  0.00000000000E+00  0.00000000000E+00  0.74505805969E-08  0.10566000000E+00  0.10566000000E+00 0. -1.
     999900   -1    0    0    0    0 -0.00000000000E+00 -0.00000000000E+00 -0.74505805969E-08  0.93827000000E+00  0.93827000000E+00 0.  1.
     999902    2    1    2    0    0  0.73619835015E-05 -0.88517891041E-03  0.23735357398E-01  0.10201781414E+01  0.10199016077E+01 0.  0.
     999903    2    3    3    0    0 -0.28857620145E-01  0.59077886586E-01  0.11397482534E+00  0.13306376434E+00  0.19817811332E-01 0.  0.
         14    1    1    2    0    0 -0.73619835015E-05  0.88517891041E-03 -0.23735357398E-01  0.23751858595E-01  0.00000000000E+00 0.  1.
     999901    1    3    3    0    0  0.28864982129E-01 -0.59963065497E-01 -0.90239467940E-01  0.88711437706E+00  0.88000000000E+00 0.  1.
        -11    1    4    4    0    0 -0.38673485416E-03 -0.60146894800E-03  0.87018242420E-02  0.87460959794E-02  0.51100000000E-03 0.  1.
         11    1    4    4    0    0 -0.28470885291E-01  0.59679355534E-01  0.10527300110E+00  0.12431766836E+00  0.51100000000E-03 0. -1.
</event>
<event>
 8    1  0.1086235E+005  0.1043930E+01  0.7957747E-01            NaN
         13   -1    0    0    0    0  0.00000000000E+00  0.00000000000E+00  0.74505805969E-08  0.10566000000E+00  0.10566000000E+00 0. -1.
     999900   -1    0    0    0    0 -0.00000000000E+00 -0.00000000000E+00 -0.74505805969E-08  0.93827000000E+00  0.93827000000E+00 0.  1.
     999902    2    1    2    0    0 -0.60651353933E-02  0.23331776943E-01 -0.56191417855E-02  0.10191765672E+01  0.10188759211E+01 0.  0.
     999903    2    3    3    0    0  0.12293942882E+00 -0.15531833939E-01 -0.27717316422E-01  0.12864813575E+00  0.20657980965E-01 0.  0.
         14    1    1    2    0    0  0.60651353933E-02 -0.23331776943E-01  0.56191417855E-02  0.24753432834E-01  0.00000000000E+00 0.  1.
     999901    1    3    3    0    0 -0.12900456422E+00  0.38863610882E-01  0.22098174637E-01  0.89052843142E+00  0.88000000000E+00 0. -1.
        -11    1    4    4    0    0  0.29976424002E-01 -0.12340658146E-01 -0.41156471385E-02  0.32681455167E-01  0.51100000000E-03 0. -1.
         11    1    4    4    0    0  0.92963004820E-01 -0.31911757930E-02 -0.23601669284E-01  0.95966680583E-01  0.51100000000E-03 0.  1.
</event>
<event>
 8    1  0.1086235E+005  0.1043930E+01  0.7957747E-01            NaN
         13   -1    0    0    0    0  0.00000000000E+00  0.00000000000E+00  0.74505805969E-08  0.10566000000E+00  0.10566000000E+00 0. -1.
     999900   -1    0    0    0    0 -0.00000000000E+00 -0.00000000000E+00 -0.74505805969E-08  0.93827000000E+00  0.93827000000E+00 0. -1.
     999902    2    1    2    0    0 -0.84156712511E-03  0.21131966194E-01 -0.94722258093E-02  0.10207569274E+01  0.10204938577E+01 0.  0.
     999903    2    3    3    0    0  0.11297191080E+00  0.60187602538E-01  0.24034895439E-01  0.13193659820E+00  0.21080550639E-01 0.  0.
         14    1    1    2    0    0  0.84156712511E-03 -0.21131966194E-01  0.94722258093E-02  0.23173072568E-01  0.00000000000E+00 0. -1.
     999901    1    3    3    0    0 -0.11381347793E+00 -0.39055636344E-01 -0.33507121248E-01  0.88882032924E+00  0.88000000000E+00 0. -1.
        -11    1    4    4    0    0  0.58855466922E-01  0.39898152994E-01  0.58512711050E-02  0.71346528251E-01  0.51100000000E-03 0.  1.
         11    1    4    4    0    0  0.54116443881E-01  0.20289449544E-01  0.18183624334E-01  0.60590069946E-01  0.51100000000E-03 0. -1.
</event>
<event>
 8    1  0.1086235E+005  0.1043930E+01  0.7957747E-01            NaN
         13   -1    0    0    0    0  0.00000000000E+00  0.00000000000E+00  0.74505805969E-08  0.10566000000E+00  0.10566000000E+00 0. -1.
     999900   -1    0    0    0    0 -0.00000000000E+00 -0.00000000000E+00 -0.74505805969E-08  0.93827000000E+00  0.93827000000E+00 0. -1.
     999902    2    1    2    0    0  0.61092319617E-02 -0.45527685850E-02 -0.22777483396E-01  0.10199120033E+01  0.10196291631E+01 0.  0.
     999903    2    3    3    0    0 -0.10657539818E+00  0.23508429326E-02  0.68058670171E-01  0.12806185189E+00  0.20100083718E-01 0.  0.
         14    1    1    2    0    0 -0.61092319617E-02  0.45527685850E-02  0.22777483396E-01  0.24017996727E-01  0.00000000000E+00 0. -1.
     999901    1    3    3    0    0  0.11268463014E+00 -0.69036115175E-02 -0.90836153567E-01  0.89185015138E+00  0.88000000000E+00 0. -1.
        -11    1    4    4    0    0 -0.81442461596E-01 -0.38655249166E-02  0.43690212498E-01  0.92503581676E-01  0.51100000000E-03 0.  1.
         11    1    4    4    0    0 -0.25132936581E-01  0.62163678492E-02  0.24368457673E-01  0.35558270217E-01  0.51100000000E-03 0. -1.
</event>
<event>
 8    1  0.1086235E+005  0.1043930E+01  0.7957747E-01            NaN
         13   -1    0    0    0    0  0.00000000000E+00  0.00000000000E+00  0.74505805969E-08  0.10566000000E+00  0.10566000000E+00 0. -1.
     999900   -1    0    0    0    0 -0.00000000000E+00 -0.00000000000E+00 -0.74505805969E-08  0.93827000000E+00  0.93827000000E+00 0. -1.
     999902    2    1    2    0    0 -0.20766034655E-01  0.80296647094E-02 -0.78299289877E-02  0.10203289090E+01  0.10200559156E+01 0.  0.
     999903    2    3    3    0    0  0.77464871948E-01 -0.30214576414E-01 -0.97317183883E-01  0.12953156849E+00  0.19851094232E-01 0.  0.
         14    1    1    2    0    0  0.20766034655E-01 -0.80296647094E-02  0.78299289877E-02  0.23601091047E-01  0.00000000000E+00 0. -1.
     999901    1    3    3    0    0 -0.98230906603E-01  0.38244241124E-01  0.89487254895E-01  0.89079734047E+00  0.88000000000E+00 0.  1.
        -11    1    4    4    0    0  0.43885892394E-01 -0.18986933898E-01 -0.40912304015E-01  0.62932924220E-01  0.51100000000E-03 0.  1.
         11    1    4    4    0    0  0.33578979554E-01 -0.11227642516E-01 -0.56404879869E-01  0.66598644268E-01  0.51100000000E-03 0. -1.
</event>
<event>
 8    1  0.1086235E+005  0.1043930E+01  0.7957747E-01            NaN
         13   -1    0    0    0    0  0.00000000000E+00  0.00000000000E+00  0.74505805969E-08  0.10566000000E+00  0.10566000000E+00 0. -1.
     999900   -1    0    0    0    0 -0.00000000000E+00 -0.00000000000E+00 -0.74505805969E-08  0.93827000000E+00  0.93827000000E+00 0. -1.
     999902    2    1    2    0    0 -0.17540726111E-02 -0.50144342598E-02 -0.23373108686E-01  0.10199607795E+01  0.10196791006E+01 0.  0.
     999903    2    3    3    0    0  0.11883629996E+00  0.38693673864E-01  0.26705163015E-01  0.12925304406E+00  0.19336935687E-01 0.  0.
         14    1    1    2    0    0  0.17540726111E-02  0.50144342598E-02  0.23373108686E-01  0.23969220499E-01  0.00000000000E+00 0. -1.
     999901    1    3    3    0    0 -0.12059037257E+00 -0.43708108124E-01 -0.50078271701E-01  0.89070773544E+00  0.88000000000E+00 0. -1.
        -11    1    4    4    0    0  0.57677545716E-01  0.18367073497E-01  0.22798844395E-01  0.64684597049E-01  0.51100000000E-03 0.  1.
         11    1    4    4    0    0  0.61158754248E-01  0.20326600366E-01  0.39063186194E-02  0.64568447014E-01  0.51100000000E-03 0. -1.
</event>
<event>
 8    1  0.1086235E+005  0.1043930E+01  0.7957747E-01            NaN
         13   -1    0    0    0    0  0.00000000000E+00  0.00000000000E+00  0.74505805969E-08  0.10566000000E+00  0.10566000000E+00 0. -1.
     999900   -1    0    0    0    0 -0.00000000000E+00 -0.00000000000E+00 -0.74505805969E-08  0.93827000000E+00  0.93827000000E+00 0. -1.
     999902    2    1    2    0    0 -0.97084232613E-02  0.18418906761E-01 -0.10935271689E-01  0.10204121392E+01  0.10201410903E+01 0.  0.
     999903    2    3    3    0    0  0.15803503959E-02 -0.72870964518E-02  0.12725600086E+00  0.12918542126E+00  0.20956717998E-01 0.  0.
         14    1    1    2    0    0  0.97084232613E-02 -0.18418906761E-01  0.10935271689E-01  0.23517860774E-01  0.00000000000E+00 0. -1.
     999901    1    3    3    0    0 -0.11288773657E-01  0.25706003212E-01 -0.13819127255E+00  0.89122671797E+00  0.88000000000E+00 0. -1.
        -11    1    4    4    0    0  0.92526654696E-02 -0.49703353247E-02  0.34115857419E-01  0.35699704480E-01  0.51100000000E-03 0.  1.
         11    1    4    4    0    0 -0.76723150737E-02 -0.23167611271E-02  0.93140143439E-01  0.93485716779E-01  0.51100000000E-03 0. -1.
</event>
<event>
 8    1  0.1086235E+005  0.1043930E+01  0.7957747E-01            NaN
         13   -1    0    0    0    0  0.00000000000E+00  0.00000000000E+00  0.74505805969E-08  0.10566000000E+00  0.10566000000E+00 0.  1.
     999900   -1    0    0    0    0 -0.00000000000E+00 -0.00000000000E+00 -0.74505805969E-08  0.93827000000E+00  0.93827000000E+00 0.  1.
     999902    2    1    2    0    0  0.16076306870E-01 -0.17577211375E-01  0.34125490892E-02  0.10198665112E+01  0.10195825857E+01 0.  0.
     999903    2    3    3    0    0  0.32292096369E-01 -0.15283503424E-02 -0.12459892976E+00  0.13031187179E+00  0.20277457667E-01 0.  0.
         14    1    1    2    0    0 -0.16076306870E-01  0.17577211375E-01 -0.34125490892E-02  0.24063488807E-01  0.00000000000E+00 0. -1.
     999901    1    3    3    0    0 -0.16215789499E-01 -0.16048861033E-01  0.12801147885E+00  0.88955463940E+00  0.88000000000E+00 0. -1.
        -11    1    4    4    0    0  0.19616936145E-01 -0.10003969156E-01 -0.59417499565E-01  0.63368793252E-01  0.51100000000E-03 0.  1.
         11    1    4    4    0    0  0.12675160224E-01  0.84756188137E-02 -0.65181430192E-01  0.66943078536E-01  0.51100000000E-03 0. -1.
</event>
<event>
 8    1  0.1086235E+005  0.1043930E+01  0.7957747E-01            NaN
         13   -1    0    0    0    0  0.00000000000E+00  0.00000000000E+00  0.74505805969E-08  0.10566000000E+00  0.10566000000E+00 0. -1.
     999900   -1    0    0    0    0 -0.00000000000E+00 -0.00000000000E+00 -0.74505805969E-08  0.93827000000E+00  0.93827000000E+00 0.  1.
     999902    2    1    2    0    0  0.22909209478E-01  0.30534341029E-02 -0.19784460624E-02  0.10207336730E+01  0.10204700689E+01 0.  0.
     999903    2    3    3    0    0  0.23142621146E-01 -0.44031375368E-01  0.11948638562E+00  0.13114346445E+00  0.21148734915E-01 0.  0.
         14    1    1    2    0    0 -0.22909209478E-01 -0.30534341029E-02  0.19784460624E-02  0.23196327027E-01  0.00000000000E+00 0. -1.
     999901    1    3    3    0    0 -0.23341166721E-03  0.47084809471E-01 -0.12146483168E+00  0.88959020852E+00  0.88000000000E+00 0.  1.
        -11    1    4    4    0    0  0.70724549736E-02 -0.10454470280E-01  0.57211083319E-01  0.58589117963E-01  0.51100000000E-03 0.  1.
         11    1    4    4    0    0  0.16070166172E-01 -0.33576905089E-01  0.62275302303E-01  0.72554346487E-01  0.51100000000E-03 0. -1.
</event>
<event>
 8    1  0.1086235E+005  0.1043930E+01  0.7957747E-01            NaN
         13   -1    0    0    0    0  0.00000000000E+00  0.00000000000E+00  0.74505805969E-08  0.10566000000E+00  0.10566000000E+00 0. -1.
     999900   -1    0    0    0    0 -0.00000000000E+00 -0.00000000000E+00 -0.74505805969E-08  0.93827000000E+00  0.93827000000E+00 0. -1.
     999902    2    1    2    0    0 -0.15440932695E-01  0.12790843981E-01 -0.12373393993E-01  0.10203688249E+01  0.10200967650E+01 0.  0.
     999903    2    3    3    0    0  0.78271141774E-01 -0.87618740500E-01  0.45957537531E-01  0.12780704267E+00  0.20472654430E-01 0.  0.
         14    1    1    2    0    0  0.15440932695E-01 -0.12790843981E-01  0.12373393993E-01  0.23561175080E-01  0.00000000000E+00 0. -1.
     999901    1    3    3    0    0 -0.93712074469E-01  0.10040958448E+00 -0.58330931524E-01  0.89256178225E+00  0.88000000000E+00 0. -1.
        -11    1    4    4    0    0  0.12153704223E-01 -0.62847090464E-02  0.10138348429E-01  0.17036939984E-01  0.51100000000E-03 0.  1.
         11    1    4    4    0    0  0.66117437551E-01 -0.81334031454E-01  0.35819189102E-01  0.11077010269E+00  0.51100000000E-03 0. -1.
</event>
<event>
 8    1  0.1086235E+005  0.1043930E+01  0.7957747E-01            NaN
         13   -1    0    0    0    0  0.00000000000E+00  0.00000000000E+00  0.74505805969E-08  0.10566000000E+00  0.10566000000E+00 0. -1.
     999900   -1    0    0    0    0 -0.00000000000E+00 -0.00000000000E+00 -0.74505805969E-08  0.93827000000E+00  0.93827000000E+00 0.  1.
     999902    2    1    2    0    0  0.22929770156E-01 -0.51182508364E-02  0.28071619923E-02  0.10202688291E+01  0.10199944277E+01 0.  0.
     999903    2    3    3    0    0  0.12904212956E+00  0.17364978974E-02  0.27475512972E-01  0.13352458864E+00  0.20470108305E-01 0.  0.
         14    1    1    2    0    0 -0.22929770156E-01  0.51182508364E-02 -0.28071619923E-02  0.23661170924E-01  0.00000000000E+00 0. -1.
     999901    1    3    3    0    0 -0.10611235940E+00 -0.68547487338E-02 -0.24668350980E-01  0.88674424043E+00  0.88000000000E+00 0.  1.
        -11    1    4    4    0    0  0.87264054781E-01 -0.81440071881E-02  0.20748260015E-01  0.90067150086E-01  0.51100000000E-03 0.  1.
         11    1    4    4    0    0  0.41778074776E-01  0.98805050855E-02  0.67272529570E-02  0.43457438559E-01  0.51100000000E-03 0. -1.
</event>
<event>
 8    1  0.1086235E+005  0.1043930E+01  0.7957747E-01            NaN
         13   -1    0    0    0    0  0.00000000000E+00  0.00000000000E+00  0.74505805969E-08  0.10566000000E+00  0.10566000000E+00 0. -1.
     999900   -1    0    0    0    0 -0.00000000000E+00 -0.00000000000E+00 -0.74505805969E-08  0.93827000000E+00  0.93827000000E+00 0.  1.
     999902    2    1    2    0    0 -0.21130128951E-02  0.18178221350E-01 -0.14924981031E-01  0.10203150129E+01  0.10200416943E+01 0.  0.
     999903    2    3    3    0    0 -0.80439508112E-01 -0.17219841156E-01  0.97583179911E-01  0.12899792629E+00  0.18733675314E-01 0.  0.
         14    1    1    2    0    0  0.21130128951E-02 -0.18178221350E-01  0.14924981031E-01  0.23614987057E-01  0.00000000000E+00 0. -1.
     999901    1    3    3    0    0  0.78326495217E-01  0.35398062506E-01 -0.11250816094E+00  0.89131708665E+00  0.88000000000E+00 0.  1.
        -11    1    4    4    0    0 -0.38841702852E-01 -0.17082732172E-01  0.43559022465E-01  0.60812393293E-01  0.51100000000E-03 0.  1.
         11    1    4    4    0    0 -0.41597805260E-01 -0.13710898467E-03  0.54024157446E-01  0.68185532997E-01  0.51100000000E-03 0. -1.
</event>
<event>
 8    1  0.1086235E+005  0.1043930E+01  0.7957747E-01            NaN
         13   -1    0    0    0    0  0.00000000000E+00  0.00000000000E+00  0.74505805969E-08  0.10566000000E+00  0.10566000000E+00 0.  1.
     999900   -1    0    0    0    0 -0.00000000000E+00 -0.00000000000E+00 -0.74505805969E-08  0.93827000000E+00  0.93827000000E+00 0.  1.
     999902    2    1    2    0    0 -0.14650461567E-01  0.21927475690E-02 -0.18518055492E-01  0.10202158155E+01  0.10199401687E+01 0.  0.
     999903    2    3    3    0    0  0.55842921516E-01 -0.10065984080E-01  0.11189076593E+00  0.12773273207E+00  0.24007320188E-01 0.  0.
         14    1    1    2    0    0  0.14650461567E-01 -0.21927475690E-02  0.18518055492E-01  0.23714184473E-01  0.00000000000E+00 0.  1.
     999901    1    3    3    0    0 -0.70493383083E-01  0.12258731649E-01 -0.13040882142E+00  0.89248308346E+00  0.88000000000E+00 0.  1.
        -11    1    4    4    0    0  0.20266741788E-01  0.74894376382E-02  0.33366732040E-01  0.39754652896E-01  0.51100000000E-03 0.  1.
         11    1    4    4    0    0  0.35576179728E-01 -0.17555421718E-01  0.78524033887E-01  0.87978079171E-01  0.51100000000E-03 0. -1.
</event>
<event>
 8    1  0.1086235E+005  0.1043930E+01  0.7957747E-01            NaN
         13   -1    0    0    0    0  0.00000000000E+00  0.00000000000E+00  0.74505805969E-08  0.10566000000E+00  0.10566000000E+00 0.  1.
     999900   -1    0    0    0    0 -0.00000000000E+00 -0.00000000000E+00 -0.74505805969E-08  0.93827000000E+00  0.93827000000E+00 0.  1.
     999902    2    1    2    0    0  0.23147932132E-01 -0.15296689193E-02  0.37408690000E-02  0.10204318990E+01  0.10201613107E+01 0.  0.
     999903    2    3    3    0    0 -0.12609845410E+00 -0.15502655555E-02  0.40026525146E-02  0.12786562542E+00  0.20745444958E-01 0.  0.
         14    1    1    2    0    0 -0.23147932132E-01  0.15296689193E-02 -0.37408690000E-02  0.23498100984E-01  0.00000000000E+00 0. -1.
     999901    1    3    3    0    0  0.14924638624E+00  0.20596636251E-04 -0.26178351454E-03  0.89256627359E+00  0.88000000000E+00 0.  1.
        -11    1    4    4    0    0 -0.67913252255E-01  0.88392686147E-02 -0.14818693334E-02  0.68504011264E-01  0.51100000000E-03 0.  1.
         11    1    4    4    0    0 -0.58185201849E-01 -0.10389534170E-01  0.54845218480E-02  0.59361614157E-01  0.51100000000E-03 0. -1.
</event>
<event>
 8    1  0.1086235E+005  0.1043930E+01  0.7957747E-01            NaN
         13   -1    0    0    0    0  0.00000000000E+00  0.00000000000E+00  0.74505805969E-08  0.10566000000E+00  0.10566000000E+00 0.  1.
     999900   -1    0    0    0    0 -0.00000000000E+00 -0.00000000000E+00 -0.74505805969E-08  0.93827000000E+00  0.93827000000E+00 0.  1.
     999902    2    1    2    0    0  0.56155125492E-02  0.86051374702E-02 -0.21185437938E-01  0.10203841903E+01  0.10201124893E+01 0.  0.
     999903    2    3    3    0    0 -0.32265719806E-01  0.12191442954E+00  0.33365976703E-01  0.13063712500E+00  0.69688752861E-02 0.  0.
         14    1    1    2    0    0 -0.56155125492E-02 -0.86051374702E-02  0.21185437938E-01  0.23545809663E-01  0.00000000000E+00 0.  1.
     999901    1    3    3    0    0  0.37881232356E-01 -0.11330929207E+00 -0.54551414641E-01  0.88974706534E+00  0.88000000000E+00 0.  1.
        -11    1    4    4    0    0 -0.23237374809E-01  0.91922652846E-01  0.22188422488E-01  0.97377291541E-01  0.51100000000E-03 0.  1.
         11    1    4    4    0    0 -0.90283449971E-02  0.29991776693E-01  0.11177554215E-01  0.33259833460E-01  0.51100000000E-03 0. -1.
</event>
<event>
 8    1  0.1086235E+005  0.1043930E+01  0.7957747E-01            NaN
         13   -1    0    0    0    0  0.00000000000E+00  0.00000000000E+00  0.74505805969E-08  0.10566000000E+00  0.10566000000E+00 0. -1.
     999900   -1    0    0    0    0 -0.00000000000E+00 -0.00000000000E+00 -0.74505805969E-08  0.93827000000E+00  0.93827000000E+00 0.  1.
     999902    2    1    2    0    0  0.10300064261E-01  0.18159800783E-01  0.10722545275E-01  0.10204599624E+01  0.10201900275E+01 0.  0.
     999903    2    3    3    0    0 -0.95160155407E-01  0.16994115932E-01 -0.83316279605E-01  0.12918754762E+00  0.20088923769E-01 0.  0.
         14    1    1    2    0    0 -0.10300064261E-01 -0.18159800783E-01 -0.10722545275E-01  0.23470037610E-01  0.00000000000E+00 0.  1.
     999901    1    3    3    0    0  0.10546021967E+00  0.11656848503E-02  0.94038824880E-01  0.89127241477E+00  0.88000000000E+00 0. -1.
        -11    1    4    4    0    0 -0.73041918488E-01  0.42163068763E-02 -0.60702423483E-01  0.95068104208E-01  0.51100000000E-03 0. -1.
         11    1    4    4    0    0 -0.22118236919E-01  0.12777809056E-01 -0.22613856122E-01  0.34119443407E-01  0.51100000000E-03 0.  1.
</event>
<event>
 8    1  0.1086235E+005  0.1043930E+01  0.7957747E-01            NaN
         13   -1    0    0    0    0  0.00000000000E+00  0.00000000000E+00  0.74505805969E-08  0.10566000000E+00  0.10566000000E+00 0.  1.
     999900   -1    0    0    0    0 -0.00000000000E+00 -0.00000000000E+00 -0.74505805969E-08  0.93827000000E+00  0.93827000000E+00 0. -1.
     999902    2    1    2    0    0 -0.18440394983E-01 -0.14046657689E-01 -0.27174787869E-02  0.10205903031E+01  0.10203233925E+01 0.  0.
     999903    2    3    3    0    0 -0.26050571705E-01  0.11584598536E+00  0.46599664667E-01  0.12965697557E+00  0.23248181813E-01 0.  0.
         14    1    1    2    0    0  0.18440394983E-01  0.14046657689E-01  0.27174787869E-02  0.23339696877E-01  0.00000000000E+00 0.  1.
     999901    1    3    3    0    0  0.76101767222E-02 -0.12989264304E+00 -0.49317143454E-01  0.89093332755E+00  0.88000000000E+00 0.  1.
        -11    1    4    4    0    0 -0.18095647836E-01  0.33961968603E-01  0.18664146366E-01  0.42772412400E-01  0.51100000000E-03 0.  1.
         11    1    4    4    0    0 -0.79549238689E-02  0.81884016753E-01  0.27935518301E-01  0.86884563170E-01  0.51100000000E-03 0. -1.
</event>
<event>
 8    1  0.1086235E+005  0.1043930E+01  0.7957747E-01            NaN
         13   -1    0    0    0    0  0.00000000000E+00  0.00000000000E+00  0.74505805969E-08  0.10566000000E+00  0.10566000000E+00 0. -1.
     999900   -1    0    0    0    0 -0.00000000000E+00 -0.00000000000E+00 -0.74505805969E-08  0.93827000000E+00  0.93827000000E+00 0. -1.
     999902    2    1    2    0    0  0.24327709854E-01  0.13573505952E-02  0.31300690869E-02  0.10193642271E+01  0.10190681774E+01 0.  0.
     999903    2    3    3    0    0 -0.12090993974E+00 -0.30170251348E-01  0.12745224273E-01  0.12685068893E+00  0.19979963616E-01 0.  0.
         14    1    1    2    0    0 -0.24327709854E-01 -0.13573505952E-02 -0.31300690869E-02  0.24565772935E-01  0.00000000000E+00 0.  1.
     999901    1    3    3    0    0  0.14523764959E+00  0.31527601943E-01 -0.96151551861E-02  0.89251353813E+00  0.88000000000E+00 0.  1.
        -11    1    4    4    0    0 -0.10204846539E+00 -0.30985688818E-01  0.15479750023E-01  0.10776774091E+00  0.51100000000E-03 0.  1.
         11    1    4    4    0    0 -0.18861474354E-01  0.81543746978E-03 -0.27345257499E-02  0.19082948021E-01  0.51100000000E-03 0. -1.
</event>
<event>
 8    1  0.1086235E+005  0.1043930E+01  0.7957747E-01            NaN
         13   -1    0    0    0    0  0.00000000000E+00  0.00000000000E+00  0.74505805969E-08  0.10566000000E+00  0.10566000000E+00 0.  1.
     999900   -1    0    0    0    0 -0.00000000000E+00 -0.00000000000E+00 -0.74505805969E-08  0.93827000000E+00  0.93827000000E+00 0. -1.
     999902    2    1    2    0    0  0.11806963648E-01  0.24942630361E-02  0.19773692575E-01  0.10207648396E+01  0.10205019515E+01 0.  0.
     999903    2    3    3    0    0 -0.11796304998E+00  0.27300427992E-01  0.44671515687E-01  0.13055390737E+00  0.19702382768E-01 0.  0.
         14    1    1    2    0    0 -0.11806963648E-01 -0.24942630361E-02 -0.19773692575E-01  0.23165160408E-01  0.00000000000E+00 0. -1.
     999901    1    3    3    0    0  0.12977001362E+00 -0.24806164956E-01 -0.24897823112E-01  0.89021093222E+00  0.88000000000E+00 0. -1.
        -11    1    4    4    0    0 -0.33465465365E-01  0.16906366565E-01  0.15209845996E-01  0.40464344042E-01  0.51100000000E-03 0.  1.
         11    1    4    4    0    0 -0.84497584612E-01  0.10394061427E-01  0.29461669692E-01  0.90089563326E-01  0.51100000000E-03 0. -1.
</event>
<event>
 8    1  0.1086235E+005  0.1043930E+01  0.7957747E-01            NaN
         13   -1    0    0    0    0  0.00000000000E+00  0.00000000000E+00  0.74505805969E-08  0.10566000000E+00  0.10566000000E+00 0.  1.
     999900   -1    0    0    0    0 -0.00000000000E+00 -0.00000000000E+00 -0.74505805969E-08  0.93827000000E+00  0.93827000000E+00 0.  1.
     999902    2    1    2    0    0  0.13706636106E-01  0.19696611866E-01  0.21704185585E-01  0.10115741649E+01  0.10110565716E+01 0.  0.
     999903    2    3    3    0    0  0.32998862041E-01 -0.21685583001E-01  0.11714576952E+00  0.12523688601E+00  0.20048862663E-01 0.  0.
         14    1    1    2    0    0 -0.13706636106E-01 -0.19696611866E-01 -0.21704185585E-01  0.32355835088E-01  0.00000000000E+00 0. -1.
     999901    1    3    3    0    0 -0.19292225935E-01  0.41382194867E-01 -0.95441583934E-01  0.88633727891E+00  0.88000000000E+00 0.  1.
        -11    1    4    4    0    0  0.18198177843E-02 -0.72048700377E-02  0.41244218405E-01  0.41911437125E-01  0.51100000000E-03 0. -1.
         11    1    4    4    0    0  0.31179044257E-01 -0.14480712963E-01  0.75901551115E-01  0.83325448882E-01  0.51100000000E-03 0.  1.
</event>
<event>
 8    1  0.1086235E+005  0.1043930E+01  0.7957747E-01            NaN
         13   -1    0    0    0    0  0.00000000000E+00  0.00000000000E+00  0.74505805969E-08  0.10566000000E+00  0.10566000000E+00 0. -1.
     999900   -1    0    0    0    0 -0.00000000000E+00 -0.00000000000E+00 -0.74505805969E-08  0.93827000000E+00  0.93827000000E+00 0.  1.
     999902    2    1    2    0    0 -0.12191445608E-01 -0.14526013575E-01 -0.15440601605E-01  0.10194749679E+01  0.10191816137E+01 0.  0.
     999903    2    3    3    0    0 -0.11318790286E-01 -0.73463753316E-01  0.10409467503E+00  0.12943951859E+00  0.19845642822E-01 0.  0.
         14    1    1    2    0    0  0.12191445608E-01  0.14526013575E-01  0.15440601605E-01  0.24455032086E-01  0.00000000000E+00 0. -1.
     999901    1    3    3    0    0 -0.87265532264E-03  0.58937739741E-01 -0.11953527663E+00  0.89003544932E+00  0.88000000000E+00 0.  1.
        -11    1    4    4    0    0 -0.14516012492E-01 -0.34383583662E-01  0.44232129358E-01  0.57876487736E-01  0.51100000000E-03 0.  1.
         11    1    4    4    0    0  0.31972222068E-02 -0.39080169654E-01  0.59862545670E-01  0.71563030855E-01  0.51100000000E-03 0. -1.
</event>
<event>
 8    1  0.1086235E+005  0.1043930E+01  0.7957747E-01            NaN
         13   -1    0    0    0    0  0.00000000000E+00  0.00000000000E+00  0.74505805969E-08  0.10566000000E+00  0.10566000000E+00 0.  1.
     999900   -1    0    0    0    0 -0.00000000000E+00 -0.00000000000E+00 -0.74505805969E-08  0.93827000000E+00  0.93827000000E+00 0. -1.
     999902    2    1    2    0    0 -0.12123247618E-01 -0.11935894225E-01  0.16252215197E-01  0.10204018636E+01  0.10201305750E+01 0.  0.
     999903    2    3    3    0    0 -0.76545691740E-01 -0.89309052973E-01  0.60295371348E-01  0.13356667225E+00  0.19213908100E-01 0.  0.
         14    1    1    2    0    0  0.12123247618E-01  0.11935894225E-01 -0.16252215197E-01  0.23528136402E-01  0.00000000000E+00 0. -1.
     999901    1    3    3    0    0  0.64422444122E-01  0.77373158748E-01 -0.44043156151E-01  0.88683519134E+00  0.88000000000E+00 0.  1.
        -11    1    4    4    0    0 -0.64980129738E-01 -0.75434803942E-01  0.58323917359E-01  0.11538963283E+00  0.51100000000E-03 0.  1.
         11    1    4    4    0    0 -0.11565562002E-01 -0.13874249031E-01  0.19714539890E-02  0.18177039430E-01  0.51100000000E-03 0. -1.
</event>
<event>
 8    1  0.1086235E+005  0.1043930E+01  0.7957747E-01            NaN
         13   -1    0    0    0    0  0.00000000000E+00  0.00000000000E+00  0.74505805969E-08  0.10566000000E+00  0.10566000000E+00 0. -1.
     999900   -1    0    0    0    0 -0.00000000000E+00 -0.00000000000E+00 -0.74505805969E-08  0.93827000000E+00  0.93827000000E+00 0. -1.
     999902    2    1    2    0    0  0.26439803976E-01  0.78982928354E-02  0.12716522852E-01  0.10135465141E+01  0.10130910028E+01 0.  0.
     999903    2    3    3    0    0  0.13759066769E-01  0.80652586619E-01  0.94523944005E-01  0.12667197812E+00  0.20417208502E-01 0.  0.
         14    1    1    2    0    0 -0.26439803976E-01 -0.78982928354E-02 -0.12716522852E-01  0.30383485934E-01  0.00000000000E+00 0.  1.
     999901    1    3    3    0    0  0.12680737207E-01 -0.72754293784E-01 -0.81807421153E-01  0.88687453595E+00  0.88000000000E+00 0.  1.
        -11    1    4    4    0    0  0.10019929515E-02  0.48151883442E-01  0.43875186131E-01  0.65152904371E-01  0.51100000000E-03 0.  1.
         11    1    4    4    0    0  0.12757073818E-01  0.32500703177E-01  0.50648757874E-01  0.61519073746E-01  0.51100000000E-03 0. -1.
</event>
<event>
 8    1  0.1086235E+005  0.1043930E+01  0.7957747E-01            NaN
         13   -1    0    0    0    0  0.00000000000E+00  0.00000000000E+00  0.74505805969E-08  0.10566000000E+00  0.10566000000E+00 0. -1.
     999900   -1    0    0    0    0 -0.00000000000E+00 -0.00000000000E+00 -0.74505805969E-08  0.93827000000E+00  0.93827000000E+00 0.  1.
     999902    2    1    2    0    0 -0.12412063814E-01  0.14735782503E-01 -0.12869265539E-01  0.10207606105E+01  0.10204976254E+01 0.  0.
     999903    2    3    3    0    0  0.48773819948E-01 -0.69646850781E-01  0.93426263940E-01  0.12825689580E+00  0.22176455770E-01 0.  0.
         14    1    1    2    0    0  0.12412063814E-01 -0.14735782503E-01  0.12869265539E-01  0.23169389496E-01  0.00000000000E+00 0. -1.
     999901    1    3    3    0    0 -0.61185883762E-01  0.84382633285E-01 -0.10629552948E+00  0.89250371470E+00  0.88000000000E+00 0.  1.
        -11    1    4    4    0    0  0.46532294462E-02 -0.22747059497E-01  0.20582570426E-01  0.31031992949E-01  0.51100000000E-03 0. -1.
         11    1    4    4    0    0  0.44120590501E-01 -0.46899791285E-01  0.72843693515E-01  0.97224902852E-01  0.51100000000E-03 0.  1.
</event>
<event>
 8    1  0.1086235E+005  0.1043930E+01  0.7957747E-01            NaN
         13   -1    0    0    0    0  0.00000000000E+00  0.00000000000E+00  0.74505805969E-08  0.10566000000E+00  0.10566000000E+00 0.  1.
     999900   -1    0    0    0    0 -0.00000000000E+00 -0.00000000000E+00 -0.74505805969E-08  0.93827000000E+00  0.93827000000E+00 0. -1.
     999902    2    1    2    0    0  0.18622981769E-01 -0.50022054467E-02  0.13935053859E-01  0.10201387572E+01  0.10198612948E+01 0.  0.
     999903    2    3    3    0    0  0.69297468091E-02  0.11364398146E+00  0.61559441568E-01  0.13082344092E+00  0.19032391739E-01 0.  0.
         14    1    1    2    0    0 -0.18622981769E-01  0.50022054467E-02 -0.13935053859E-01  0.23791242829E-01  0.00000000000E+00 0. -1.
     999901    1    3    3    0    0  0.11693234960E-01 -0.11864618691E+00 -0.47624387708E-01  0.88931531625E+00  0.88000000000E+00 0. -1.
        -11    1    4    4    0    0 -0.40599893442E-02  0.15333677794E-01  0.39777064354E-02  0.16361187538E-01  0.51100000000E-03 0. -1.
         11    1    4    4    0    0  0.10989736153E-01  0.98310303666E-01  0.57581735132E-01  0.11446225338E+00  0.51100000000E-03 0.  1.
</event>
<event>
 8    1  0.1379793E+005  0.1043930E+01  0.7957747E-01            NaN
         13   -1    0    0    0    0  0.00000000000E+00  0.00000000000E+00  0.74505805969E-08  0.10566000000E+00  0.10566000000E+00 0. -1.
     999900   -1    0    0    0    0 -0.00000000000E+00 -0.00000000000E+00 -0.74505805969E-08  0.93827000000E+00  0.93827000000E+00 0.  1.
     999902    2    1    2    0    0  0.13750048540E-01  0.23959845245E-01  0.25379159856E-01  0.10064168053E+01  0.10057174286E+01 0.  0.
     999903    2    3    3    0    0 -0.74209933738E-01  0.24426076363E-02 -0.85138039648E-01  0.11489338927E+00  0.20950525207E-01 0.  0.
         14    1    1    2    0    0 -0.13750048540E-01 -0.23959845245E-01 -0.25379159856E-01  0.37513194666E-01  0.00000000000E+00 0.  1.
     999901    1    3    3    0    0  0.87959982278E-01  0.21517237609E-01  0.11051719950E+00  0.89152341606E+00  0.88000000000E+00 0.  1.
        -11    1    4    4    0    0 -0.48754149239E-01  0.11459640956E-01 -0.53254436295E-01  0.73106679209E-01  0.51100000000E-03 0.  1.
         11    1    4    4    0    0 -0.25455784499E-01 -0.90170333195E-02 -0.31883603353E-01  0.41786710066E-01  0.51100000000E-03 0. -1.
</event>
<event>
 8    1  0.1086235E+005  0.1043930E+01  0.7957747E-01            NaN
         13   -1    0    0    0    0  0.00000000000E+00  0.00000000000E+00  0.74505805969E-08  0.10566000000E+00  0.10566000000E+00 0.  1.
     999900   -1    0    0    0    0 -0.00000000000E+00 -0.00000000000E+00 -0.74505805969E-08  0.93827000000E+00  0.93827000000E+00 0. -1.
     999902    2    1    2    0    0  0.17183936918E-01  0.71736947002E-02 -0.12879754520E-01  0.10212884970E+01  0.10210374902E+01 0.  0.
     999903    2    3    3    0    0 -0.68462249160E-01  0.10038797287E+00  0.42893550259E-01  0.13048277606E+00  0.20520076481E-01 0.  0.
         14    1    1    2    0    0 -0.17183936918E-01 -0.71736947002E-02  0.12879754520E-01  0.22641503045E-01  0.00000000000E+00 0. -1.
     999901    1    3    3    0    0  0.85646186078E-01 -0.93214278170E-01 -0.55773304779E-01  0.89080572089E+00  0.88000000000E+00 0. -1.
        -11    1    4    4    0    0 -0.44972243242E-01  0.60149312597E-01  0.16374620408E-01  0.76868925988E-01  0.51100000000E-03 0.  1.
         11    1    4    4    0    0 -0.23490005918E-01  0.40238660273E-01  0.26518929850E-01  0.53613850077E-01  0.51100000000E-03 0. -1.
</event>
<event>
 8    1  0.1086235E+005  0.1043930E+01  0.7957747E-01            NaN
         13   -1    0    0    0    0  0.00000000000E+00  0.00000000000E+00  0.74505805969E-08  0.10566000000E+00  0.10566000000E+00 0.  1.
     999900   -1    0    0    0    0 -0.00000000000E+00 -0.00000000000E+00 -0.74505805969E-08  0.93827000000E+00  0.93827000000E+00 0. -1.
     999902    2    1    2    0    0  0.13825626012E-01 -0.15956325657E-01 -0.10022958689E-01  0.10205588219E+01  0.10202911825E+01 0.  0.
     999903    2    3    3    0    0  0.73586859634E-01  0.43047928684E-01 -0.98559677699E-01  0.13213794325E+00  0.21869519971E-01 0.  0.
         14    1    1    2    0    0 -0.13825626012E-01  0.15956325657E-01  0.10022958689E-01  0.23371178062E-01  0.00000000000E+00 0.  1.
     999901    1    3    3    0    0 -0.59761233622E-01 -0.59004254341E-01  0.88536719010E-01  0.88842087869E+00  0.88000000000E+00 0.  1.
        -11    1    4    4    0    0  0.37798820648E-01  0.21110370544E-01 -0.33649156818E-01  0.54835439840E-01  0.51100000000E-03 0.  1.
         11    1    4    4    0    0  0.35788038986E-01  0.21937558140E-01 -0.64910520880E-01  0.77302503411E-01  0.51100000000E-03 0. -1.
</event>
<event>
 8    1  0.1086235E+005  0.1043930E+01  0.7957747E-01            NaN
         13   -1    0    0    0    0  0.00000000000E+00  0.00000000000E+00  0.74505805969E-08  0.10566000000E+00  0.10566000000E+00 0.  1.
     999900   -1    0    0    0    0 -0.00000000000E+00 -0.00000000000E+00 -0.74505805969E-08  0.93827000000E+00  0.93827000000E+00 0. -1.
     999902    2    1    2    0    0  0.21109190539E-01  0.11021723589E-01  0.47328030475E-03  0.10201119331E+01  0.10198338373E+01 0.  0.
     999903    2    3    3    0    0  0.76697990365E-01  0.10681510498E+00  0.17357876169E-02  0.13316882304E+00  0.20949322016E-01 0.  0.
         14    1    1    2    0    0 -0.21109190539E-01 -0.11021723589E-01 -0.47328030475E-03  0.23818066889E-01  0.00000000000E+00 0.  1.
     999901    1    3    3    0    0 -0.55588799826E-01 -0.95793381388E-01 -0.12625073122E-02  0.88694311007E+00  0.88000000000E+00 0.  1.
        -11    1    4    4    0    0  0.20100363836E-01  0.19360281837E-01 -0.65392005875E-02  0.28668229880E-01  0.51100000000E-03 0.  1.
         11    1    4    4    0    0  0.56597626529E-01  0.87454823140E-01  0.82749882044E-02  0.10450059316E+00  0.51100000000E-03 0. -1.
</event>
<event>
 8    1  0.1086235E+005  0.1043930E+01  0.7957747E-01            NaN
         13   -1    0    0    0    0  0.00000000000E+00  0.00000000000E+00  0.74505805969E-08  0.10566000000E+00  0.10566000000E+00 0. -1.
     999900   -1    0    0    0    0 -0.00000000000E+00 -0.00000000000E+00 -0.74505805969E-08  0.93827000000E+00  0.93827000000E+00 0.  1.
     999902    2    1    2    0    0  0.89555122884E-02 -0.12808450586E-01  0.19713406301E-01  0.10187729733E+01  0.10184623189E+01 0.  0.
     999903    2    3    3    0    0 -0.51817384822E-01 -0.98243696857E-01 -0.62312675744E-01  0.12876128543E+00  0.18966647695E-01 0.  0.
         14    1    1    2    0    0 -0.89555122884E-02  0.12808450586E-01 -0.19713406301E-01  0.25157026748E-01  0.00000000000E+00 0.  1.
     999901    1    3    3    0    0  0.60772897110E-01  0.85435246271E-01  0.82026082045E-01  0.89001168782E+00  0.88000000000E+00 0. -1.
        -11    1    4    4    0    0 -0.21862299894E-01 -0.59242746991E-01 -0.40034777994E-01  0.74771035821E-01  0.51100000000E-03 0.  1.
         11    1    4    4    0    0 -0.29955084928E-01 -0.39000949866E-01 -0.22277897750E-01  0.53990249607E-01  0.51100000000E-03 0. -1.
</event>
<event>
 8    1  0.1086235E+005  0.1043930E+01  0.7957747E-01            NaN
         13   -1    0    0    0    0  0.00000000000E+00  0.00000000000E+00  0.74505805969E-08  0.10566000000E+00  0.10566000000E+00 0.  1.
     999900   -1    0    0    0    0 -0.00000000000E+00 -0.00000000000E+00 -0.74505805969E-08  0.93827000000E+00  0.93827000000E+00 0. -1.
     999902    2    1    2    0    0 -0.69776043482E-02  0.13798824252E-01  0.18851261461E-01  0.10195483558E+01  0.10192567809E+01 0.  0.
     999903    2    3    3    0    0  0.10091863229E+00  0.58644340287E-01 -0.51285460860E-01  0.12905867145E+00  0.20055253455E-01 0.  0.
         14    1    1    2    0    0  0.69776043482E-02 -0.13798824252E-01 -0.18851261461E-01  0.24381644158E-01  0.00000000000E+00 0. -1.
     999901    1    3    3    0    0 -0.10789623663E+00 -0.44845516035E-01  0.70136722321E-01  0.89048968439E+00  0.88000000000E+00 0.  1.
        -11    1    4    4    0    0  0.82772427823E-01  0.38458126308E-01 -0.38787073853E-01  0.99171571057E-01  0.51100000000E-03 0. -1.
         11    1    4    4    0    0  0.18146204462E-01  0.20186213979E-01 -0.12498387007E-01  0.29887100394E-01  0.51100000000E-03 0.  1.
</event>
<event>
 8    1  0.1086235E+005  0.1043930E+01  0.7957747E-01            NaN
         13   -1    0    0    0    0  0.00000000000E+00  0.00000000000E+00  0.74505805969E-08  0.10566000000E+00  0.10566000000E+00 0. -1.
     999900   -1    0    0    0    0 -0.00000000000E+00 -0.00000000000E+00 -0.74505805969E-08  0.93827000000E+00  0.93827000000E+00 0.  1.
     999902    2    1    2    0    0 -0.44335055598E-03 -0.16761520144E-01  0.17699804372E-01  0.10195491019E+01  0.10192575450E+01 0.  0.
     999903    2    3    3    0    0  0.10411590504E+00  0.69136982112E-01 -0.23281253922E-01  0.12826315578E+00  0.17011066032E-01 0.  0.
         14    1    1    2    0    0  0.44335055598E-03  0.16761520144E-01 -0.17699804372E-01  0.24380898098E-01  0.00000000000E+00 0.  1.
     999901    1    3    3    0    0 -0.10455925560E+00 -0.85898502257E-01  0.40981058295E-01  0.89128594612E+00  0.88000000000E+00 0. -1.
        -11    1    4    4    0    0  0.46854141134E-01  0.21559142424E-01 -0.69751258328E-02  0.52048253235E-01  0.51100000000E-03 0.  1.
         11    1    4    4    0    0  0.57261763907E-01  0.47577839689E-01 -0.16306128089E-01  0.76214902542E-01  0.51100000000E-03 0. -1.
</event>
<event>
 8    1  0.1086235E+005  0.1043930E+01  0.7957747E-01            NaN
         13   -1    0    0    0    0  0.00000000000E+00  0.00000000000E+00  0.74505805969E-08  0.10566000000E+00  0.10566000000E+00 0. -1.
     999900   -1    0    0    0    0 -0.00000000000E+00 -0.00000000000E+00 -0.74505805969E-08  0.93827000000E+00  0.93827000000E+00 0. -1.
     999902    2    1    2    0    0 -0.19589632733E-01  0.12568702788E-01 -0.24042959484E-02  0.10205311402E+01  0.10202628590E+01 0.  0.
     999903    2    3    3    0    0 -0.11842034747E+00  0.41069081524E-01 -0.42518890317E-01  0.13363263280E+00  0.18433023708E-01 0.  0.
         14    1    1    2    0    0  0.19589632733E-01 -0.12568702788E-01  0.24042959484E-02  0.23398859788E-01  0.00000000000E+00 0.  1.
     999901    1    3    3    0    0  0.98830714740E-01 -0.28500378736E-01  0.40114594369E-01  0.88689850741E+00  0.88000000000E+00 0.  1.
        -11    1    4    4    0    0 -0.29693588839E-01  0.89467646911E-02 -0.19031158385E-01  0.36389557940E-01  0.51100000000E-03 0. -1.
         11    1    4    4    0    0 -0.88726758634E-01  0.32122316833E-01 -0.23487731932E-01  0.97243074862E-01  0.51100000000E-03 0.  1.
</event>
<event>
 8    1  0.1086235E+005  0.1043930E+01  0.7957747E-01            NaN
         13   -1    0    0    0    0  0.00000000000E+00  0.00000000000E+00  0.74505805969E-08  0.10566000000E+00  0.10566000000E+00 0. -1.
     999900   -1    0    0    0    0 -0.00000000000E+00 -0.00000000000E+00 -0.74505805969E-08  0.93827000000E+00  0.93827000000E+00 0.  1.
     999902    2    1    2    0    0  0.16010966497E-01 -0.16166310456E-01 -0.17497202883E-02  0.10211097861E+01  0.10208547561E+01 0.  0.
     999903    2    3    3    0    0  0.88198062369E-01  0.26919206046E-01  0.92546457197E-01  0.13208835348E+00  0.19466497528E-01 0.  0.
         14    1    1    2    0    0 -0.16010966497E-01  0.16166310456E-01  0.17497202883E-02  0.22820213913E-01  0.00000000000E+00 0. -1.
     999901    1    3    3    0    0 -0.72187095872E-01 -0.43085516502E-01 -0.94296177486E-01  0.88902143261E+00  0.88000000000E+00 0.  1.
        -11    1    4    4    0    0  0.40583901505E-02  0.42142204874E-02  0.12254668239E-01  0.13589267809E-01  0.51100000000E-03 0.  1.
         11    1    4    4    0    0  0.84139672219E-01  0.22704985559E-01  0.80291788958E-01  0.11849908567E+00  0.51100000000E-03 0. -1.
</event>
<event>
 8    1  0.1086235E+005  0.1043930E+01  0.7957747E-01            NaN
         13   -1    0    0    0    0  0.00000000000E+00  0.00000000000E+00  0.74505805969E-08  0.10566000000E+00  0.10566000000E+00 0. -1.
     999900   -1    0    0    0    0 -0.00000000000E+00 -0.00000000000E+00 -0.74505805969E-08  0.93827000000E+00  0.93827000000E+00 0. -1.
     999902    2    1    2    0    0  0.12658366064E-01  0.11650347452E-01 -0.16028082279E-01  0.10204169345E+01  0.10201459974E+01 0.  0.
     999903    2    3    3    0    0  0.51905407344E-01  0.11989414106E+00 -0.13662518629E-01  0.13291333170E+00  0.20261119359E-01 0.  0.
         14    1    1    2    0    0 -0.12658366064E-01 -0.11650347452E-01  0.16028082279E-01  0.23513065490E-01  0.00000000000E+00 0. -1.
     999901    1    3    3    0    0 -0.39247041280E-01 -0.10824379361E+00 -0.23655636498E-02  0.88750360281E+00  0.88000000000E+00 0.  1.
        -11    1    4    4    0    0  0.45743207077E-01  0.90316362317E-01 -0.45140735167E-02  0.10134162164E+00  0.51100000000E-03 0. -1.
         11    1    4    4    0    0  0.61622002672E-02  0.29577778741E-01 -0.91484451126E-02  0.31571710064E-01  0.51100000000E-03 0.  1.
</event>
<event>
 8    1  0.1086235E+005  0.1043930E+01  0.7957747E-01            NaN
         13   -1    0    0    0    0  0.00000000000E+00  0.00000000000E+00  0.74505805969E-08  0.10566000000E+00  0.10566000000E+00 0.  1.
     999900   -1    0    0    0    0 -0.00000000000E+00 -0.00000000000E+00 -0.74505805969E-08  0.93827000000E+00  0.93827000000E+00 0.  1.
     999902    2    1    2    0    0 -0.15933038064E-01 -0.15809589106E-01 -0.78771931208E-02  0.10201422935E+01  0.10198649146E+01 0.  0.
     999903    2    3    3    0    0  0.33074161918E-01 -0.12590997868E+00 -0.61885445033E-02  0.13192686187E+00  0.20473785189E-01 0.  0.
         14    1    1    2    0    0  0.15933038064E-01  0.15809589106E-01  0.78771931208E-02  0.23787706512E-01  0.00000000000E+00 0. -1.
     999901    1    3    3    0    0 -0.49007199982E-01  0.11010038958E+00 -0.16886486175E-02  0.88821543162E+00  0.88000000000E+00 0. -1.
        -11    1    4    4    0    0  0.20768151861E-01 -0.43909874024E-01 -0.64787718989E-02  0.49006415650E-01  0.51100000000E-03 0. -1.
         11    1    4    4    0    0  0.12306010058E-01 -0.82000104661E-01  0.29022739563E-03  0.82920446217E-01  0.51100000000E-03 0.  1.
</event>
<event>
 8    1  0.1086235E+005  0.1043930E+01  0.7957747E-01            NaN
         13   -1    0    0    0    0  0.00000000000E+00  0.00000000000E+00  0.74505805969E-08  0.10566000000E+00  0.10566000000E+00 0. -1.
     999900   -1    0    0    0    0 -0.00000000000E+00 -0.00000000000E+00 -0.74505805969E-08  0.93827000000E+00  0.93827000000E+00 0. -1.
     999902    2    1    2    0    0  0.23303761926E-02 -0.10949834286E-01 -0.20338650848E-01  0.10207138366E+01  0.10204497763E+01 0.  0.
     999903    2    3    3    0    0  0.75950489312E-01 -0.58801124249E-01 -0.90601116134E-01  0.13355743494E+00  0.20074290585E-01 0.  0.
         14    1    1    2    0    0 -0.23303761926E-02  0.10949834286E-01  0.20338650848E-01  0.23216163387E-01  0.00000000000E+00 0. -1.
     999901    1    3    3    0    0 -0.73620113120E-01  0.47851289963E-01  0.70262465287E-01  0.88715640168E+00  0.88000000000E+00 0.  1.
        -11    1    4    4    0    0  0.17618673526E-01 -0.18106032212E-01 -0.35549407309E-01  0.43614992150E-01  0.51100000000E-03 0.  1.
         11    1    4    4    0    0  0.58331815786E-01 -0.40695092037E-01 -0.55051708826E-01  0.89942442787E-01  0.51100000000E-03 0. -1.
</event>
<event>
 8    1  0.1086235E+005  0.1043930E+01  0.7957747E-01            NaN
         13   -1    0    0    0    0  0.00000000000E+00  0.00000000000E+00  0.74505805969E-08  0.10566000000E+00  0.10566000000E+00 0.  1.
     999900   -1    0    0    0    0 -0.00000000000E+00 -0.00000000000E+00 -0.74505805969E-08  0.93827000000E+00  0.93827000000E+00 0.  1.
     999902    2    1    2    0    0  0.13402576775E-01 -0.17466785937E-01  0.74456931796E-02  0.10206887431E+01  0.10204241051E+01 0.  0.
     999903    2    3    3    0    0  0.11458491643E+00 -0.59040693133E-01 -0.26914356680E-01  0.13325036854E+00  0.20390478201E-01 0.  0.
         14    1    1    2    0    0 -0.13402576775E-01  0.17466785937E-01 -0.74456931796E-02  0.23241256896E-01  0.00000000000E+00 0. -1.
     999901    1    3    3    0    0 -0.10118233966E+00  0.41573907196E-01  0.34360049860E-01  0.88743837456E+00  0.88000000000E+00 0.  1.
        -11    1    4    4    0    0  0.61192625203E-01 -0.40882296026E-01 -0.93821354318E-02  0.74190195403E-01  0.51100000000E-03 0. -1.
         11    1    4    4    0    0  0.53392291231E-01 -0.18158397107E-01 -0.17532221248E-01  0.59060173139E-01  0.51100000000E-03 0.  1.
</event>
<event>
 8    1  0.1086235E+005  0.1043930E+01  0.7957747E-01            NaN
         13   -1    0    0    0    0  0.00000000000E+00  0.00000000000E+00  0.74505805969E-08  0.10566000000E+00  0.10566000000E+00 0. -1.
     999900   -1    0    0    0    0 -0.00000000000E+00 -0.00000000000E+00 -0.74505805969E-08  0.93827000000E+00  0.93827000000E+00 0. -1.
     999902    2    1    2    0    0  0.21153710285E-01 -0.46336796959E-02  0.92105554649E-02  0.10203973678E+01  0.10201259743E+01 0.  0.
     999903    2    3    3    0    0  0.37135459436E-01  0.79738949157E-01  0.96310276907E-01  0.13193773547E+00  0.19863389502E-01 0.  0.
         14    1    1    2    0    0 -0.21153710285E-01  0.46336796959E-02 -0.92105554649E-02  0.23532632201E-01  0.00000000000E+00 0. -1.
     999901    1    3    3    0    0 -0.15981749151E-01 -0.84372628853E-01 -0.87099721442E-01  0.88845963233E+00  0.88000000000E+00 0. -1.
        -11    1    4    4    0    0  0.51073589324E-02  0.24162397758E-01  0.37547329421E-01  0.44944072449E-01  0.51100000000E-03 0. -1.
         11    1    4    4    0    0  0.32028100504E-01  0.55576551399E-01  0.58762947486E-01  0.86993663019E-01  0.51100000000E-03 0.  1.
</event>
<event>
 8    1  0.1086235E+005  0.1043930E+01  0.7957747E-01            NaN
         13   -1    0    0    0    0  0.00000000000E+00  0.00000000000E+00  0.74505805969E-08  0.10566000000E+00  0.10566000000E+00 0.  1.
     999900   -1    0    0    0    0 -0.00000000000E+00 -0.00000000000E+00 -0.74505805969E-08  0.93827000000E+00  0.93827000000E+00 0. -1.
     999902    2    1    2    0    0 -0.17902529952E-02 -0.22043627092E-01 -0.96450313384E-02  0.10198021503E+01  0.10195166858E+01 0.  0.
     999903    2    3    3    0    0 -0.98972190172E-01 -0.77842731628E-01  0.34587741892E-01  0.13159361218E+00  0.16296673973E-01 0.  0.
         14    1    1    2    0    0  0.17902529952E-02  0.22043627092E-01  0.96450313384E-02  0.24127849690E-01  0.00000000000E+00 0.  1.
     999901    1    3    3    0    0  0.97181937177E-01  0.55799104536E-01 -0.44232773231E-01  0.88820853813E+00  0.88000000000E+00 0. -1.
        -11    1    4    4    0    0 -0.30513912572E-01 -0.33126090066E-01  0.15413115959E-01  0.47605272482E-01  0.51100000000E-03 0. -1.
         11    1    4    4    0    0 -0.68458277599E-01 -0.44716641562E-01  0.19174625933E-01  0.83988339698E-01  0.51100000000E-03 0.  1.
</event>
<event>
 8    1  0.1086235E+005  0.1043930E+01  0.7957747E-01            NaN
         13   -1    0    0    0    0  0.00000000000E+00  0.00000000000E+00  0.74505805969E-08  0.10566000000E+00  0.10566000000E+00 0.  1.
     999900   -1    0    0    0    0 -0.00000000000E+00 -0.00000000000E+00 -0.74505805969E-08  0.93827000000E+00  0.93827000000E+00 0. -1.
     999902    2    1    2    0    0  0.11266926070E-01  0.28264686829E-02  0.19635612781E-01  0.10211157536E+01  0.10208608585E+01 0.  0.
     999903    2    3    3    0    0  0.26157250440E-01 -0.12602976037E+00 -0.14141404556E-01  0.13096602666E+00  0.19606594926E-01 0.  0.
         14    1    1    2    0    0 -0.11266926070E-01 -0.28264686829E-02 -0.19635612781E-01  0.22814246373E-01  0.00000000000E+00 0. -1.
     999901    1    3    3    0    0 -0.14890324370E-01  0.12885622906E+00  0.33777017336E-01  0.89014972697E+00  0.88000000000E+00 0.  1.
        -11    1    4    4    0    0  0.15882307344E-01 -0.61912184642E-01 -0.16399319643E-01  0.65989128646E-01  0.51100000000E-03 0.  1.
         11    1    4    4    0    0  0.10274943096E-01 -0.64117575733E-01  0.22579150873E-02  0.64976898010E-01  0.51100000000E-03 0. -1.
</event>
<event>
 8    1  0.1086235E+005  0.1043930E+01  0.7957747E-01            NaN
         13   -1    0    0    0    0  0.00000000000E+00  0.00000000000E+00  0.74505805969E-08  0.10566000000E+00  0.10566000000E+00 0. -1.
     999900   -1    0    0    0    0 -0.00000000000E+00 -0.00000000000E+00 -0.74505805969E-08  0.93827000000E+00  0.93827000000E+00 0.  1.
     999902    2    1    2    0    0  0.24104817454E-01 -0.43133214513E-02 -0.62881183313E-02  0.10186478443E+01  0.10183340529E+01 0.  0.
     999903    2    3    3    0    0  0.89160766591E-01 -0.91321339269E-01 -0.25966700170E-01  0.13174879800E+00  0.19855652897E-01 0.  0.
         14    1    1    2    0    0 -0.24104817454E-01  0.43133214513E-02  0.62881183313E-02  0.25282155734E-01  0.00000000000E+00 0.  1.
     999901    1    3    3    0    0 -0.65055949137E-01  0.87008017818E-01  0.19678581838E-01  0.88689904627E+00  0.88000000000E+00 0.  1.
        -11    1    4    4    0    0  0.28158579503E-01 -0.42349889329E-01 -0.80197748145E-02  0.51487829969E-01  0.51100000000E-03 0. -1.
         11    1    4    4    0    0  0.61002187087E-01 -0.48971449940E-01 -0.17946925355E-01  0.80260968031E-01  0.51100000000E-03 0.  1.
</event>
<event>
 8    1  0.1086235E+005  0.1043930E+01  0.7957747E-01            NaN
         13   -1    0    0    0    0  0.00000000000E+00  0.00000000000E+00  0.74505805969E-08  0.10566000000E+00  0.10566000000E+00 0. -1.
     999900   -1    0    0    0    0 -0.00000000000E+00 -0.00000000000E+00 -0.74505805969E-08  0.93827000000E+00  0.93827000000E+00 0. -1.
     999902    2    1    2    0    0  0.66521009421E-02  0.19442202928E-01 -0.86497305286E-02  0.10216349885E+01  0.10213916889E+01 0.  0.
     999903    2    3    3    0    0  0.11821713757E+00  0.43166715748E-02  0.55582940348E-01  0.13213997717E+00  0.19431547509E-01 0.  0.
         14    1    1    2    0    0 -0.66521009421E-02 -0.19442202928E-01  0.86497305286E-02  0.22295011547E-01  0.00000000000E+00 0.  1.
     999901    1    3    3    0    0 -0.11156503663E+00  0.15125531354E-01 -0.64232670877E-01  0.88949501129E+00  0.88000000000E+00 0. -1.
        -11    1    4    4    0    0  0.64648471912E-01 -0.43936025666E-02  0.22591154059E-01  0.68624704202E-01  0.51100000000E-03 0.  1.
         11    1    4    4    0    0  0.53568665660E-01  0.87102741415E-02  0.32991786289E-01  0.63515272965E-01  0.51100000000E-03 0. -1.
</event>
<event>
 8    1  0.1086235E+005  0.1043930E+01  0.7957747E-01            NaN
         13   -1    0    0    0    0  0.00000000000E+00  0.00000000000E+00  0.74505805969E-08  0.10566000000E+00  0.10566000000E+00 0.  1.
     999900   -1    0    0    0    0 -0.00000000000E+00 -0.00000000000E+00 -0.74505805969E-08  0.93827000000E+00  0.93827000000E+00 0.  1.
     999902    2    1    2    0    0  0.20995542654E-01 -0.50641962068E-02  0.97019293104E-02  0.10202532957E+01  0.10199785297E+01 0.  0.
     999903    2    3    3    0    0  0.67290585575E-01  0.41107840998E-01  0.10492095525E+00  0.13270512747E+00  0.19605267314E-01 0.  0.
         14    1    1    2    0    0 -0.20995542654E-01  0.50641962068E-02 -0.97019293104E-02  0.23676704308E-01  0.00000000000E+00 0.  1.
     999901    1    3    3    0    0 -0.46295042921E-01 -0.46172037205E-01 -0.95219025941E-01  0.88754816823E+00  0.88000000000E+00 0.  1.
        -11    1    4    4    0    0  0.34443358949E-01  0.27511803431E-01  0.70951741042E-01  0.83532358889E-01  0.51100000000E-03 0.  1.
         11    1    4    4    0    0  0.32847226626E-01  0.13596037567E-01  0.33969214210E-01  0.49172768577E-01  0.51100000000E-03 0. -1.
</event>
<event>
 8    1  0.1086235E+005  0.1043930E+01  0.7957747E-01            NaN
         13   -1    0    0    0    0  0.00000000000E+00  0.00000000000E+00  0.74505805969E-08  0.10566000000E+00  0.10566000000E+00 0.  1.
     999900   -1    0    0    0    0 -0.00000000000E+00 -0.00000000000E+00 -0.74505805969E-08  0.93827000000E+00  0.93827000000E+00 0. -1.
     999902    2    1    2    0    0  0.17899700557E-01  0.14664580738E-01 -0.67265436476E-02  0.10198323736E+01  0.10195476324E+01 0.  0.
     999903    2    3    3    0    0  0.62711822714E-02 -0.91704340178E-01  0.87574023243E-01  0.12834924607E+00  0.18849553965E-01 0.  0.
         14    1    1    2    0    0 -0.17899700557E-01 -0.14664580738E-01  0.67265436476E-02  0.24097626391E-01  0.00000000000E+00 0.  1.
     999901    1    3    3    0    0  0.11628518285E-01  0.10636892092E+00 -0.94300566890E-01  0.89148312754E+00  0.88000000000E+00 0. -1.
        -11    1    4    4    0    0  0.32559896379E-02 -0.48232037601E-01  0.33109197963E-01  0.58595315772E-01  0.51100000000E-03 0. -1.
         11    1    4    4    0    0  0.30151926335E-02 -0.43472302577E-01  0.54464825279E-01  0.69753930296E-01  0.51100000000E-03 0.  1.
</event>
<event>
 8    1  0.1220058E+005  0.1043930E+01  0.7957747E-01            NaN
         13   -1    0    0    0    0  0.00000000000E+00  0.00000000000E+00  0.74505805969E-08  0.10566000000E+00  0.10566000000E+00 0. -1.
     999900   -1    0    0    0    0 -0.00000000000E+00 -0.00000000000E+00 -0.74505805969E-08  0.93827000000E+00  0.93827000000E+00 0.  1.
     999902    2    1    2    0    0 -0.13030725924E-01  0.11781387907E-01 -0.14276467000E-01  0.10212933388E+01  0.10210424406E+01 0.  0.
     999903    2    3    3    0    0  0.39857140536E-01  0.40431961750E-01  0.11497724183E+00  0.12982011823E+00  0.20252451067E-01 0.  0.
         14    1    1    2    0    0  0.13030725924E-01 -0.11781387907E-01  0.14276467000E-01  0.22636661175E-01  0.00000000000E+00 0. -1.
     999901    1    3    3    0    0 -0.52887866460E-01 -0.28650573843E-01 -0.12925370883E+00  0.89147322060E+00  0.88000000000E+00 0.  1.
        -11    1    4    4    0    0  0.22851722253E-01  0.32205605836E-01  0.61365395786E-01  0.72975168230E-01  0.51100000000E-03 0.  1.
         11    1    4    4    0    0  0.17005418283E-01  0.82263559139E-02  0.53611846045E-01  0.56844949995E-01  0.51100000000E-03 0. -1.
</event>
<event>
 8    1  0.1086235E+005  0.1043930E+01  0.7957747E-01            NaN
         13   -1    0    0    0    0  0.00000000000E+00  0.00000000000E+00  0.74505805969E-08  0.10566000000E+00  0.10566000000E+00 0. -1.
     999900   -1    0    0    0    0 -0.00000000000E+00 -0.00000000000E+00 -0.74505805969E-08  0.93827000000E+00  0.93827000000E+00 0.  1.
     999902    2    1    2    0    0 -0.17925467593E-01 -0.18385365719E-01  0.10326652404E-01  0.10162535875E+01  0.10158766511E+01 0.  0.
     999903    2    3    3    0    0  0.39655609152E-01 -0.12009812341E+00  0.12218525771E-01  0.12852353578E+00  0.19310108556E-01 0.  0.
         14    1    1    2    0    0  0.17925467593E-01  0.18385365719E-01 -0.10326652404E-01  0.27676412537E-01  0.00000000000E+00 0. -1.
     999901    1    3    3    0    0 -0.57581076745E-01  0.10171275770E+00 -0.18918733665E-02  0.88773005168E+00  0.88000000000E+00 0.  1.
        -11    1    4    4    0    0  0.20206342902E-02 -0.14878724116E-01 -0.41396737733E-02  0.15583883156E-01  0.51100000000E-03 0.  1.
         11    1    4    4    0    0  0.37634974861E-01 -0.10521939930E+00  0.16358199544E-01  0.11293965262E+00  0.51100000000E-03 0. -1.
</event>
<event>
 8    1  0.1086235E+005  0.1043930E+01  0.7957747E-01            NaN
         13   -1    0    0    0    0  0.00000000000E+00  0.00000000000E+00  0.74505805969E-08  0.10566000000E+00  0.10566000000E+00 0.  1.
     999900   -1    0    0    0    0 -0.00000000000E+00 -0.00000000000E+00 -0.74505805969E-08  0.93827000000E+00  0.93827000000E+00 0.  1.
     999902    2    1    2    0    0  0.57927842782E-02 -0.10601000304E-02  0.23027687934E-01  0.10201612269E+01  0.10198842946E+01 0.  0.
     999903    2    3    3    0    0  0.78111959851E-01 -0.10268174180E+00  0.14514329619E-01  0.13132519115E+00  0.19764151762E-01 0.  0.
         14    1    1    2    0    0 -0.57927842782E-02  0.10601000304E-02 -0.23027687934E-01  0.23768773072E-01  0.00000000000E+00 0. -1.
     999901    1    3    3    0    0 -0.72319175573E-01  0.10162164177E+00  0.85133583142E-02  0.88883603578E+00  0.88000000000E+00 0. -1.
        -11    1    4    4    0    0  0.46568721418E-01 -0.72050116612E-01  0.16260571129E-01  0.87318568545E-01  0.51100000000E-03 0.  1.
         11    1    4    4    0    0  0.31543238433E-01 -0.30631625189E-01 -0.17462415092E-02  0.44006622603E-01  0.51100000000E-03 0. -1.
</event>
<event>
 8    1  0.1086235E+005  0.1043930E+01  0.7957747E-01            NaN
         13   -1    0    0    0    0  0.00000000000E+00  0.00000000000E+00  0.74505805969E-08  0.10566000000E+00  0.10566000000E+00 0.  1.
     999900   -1    0    0    0    0 -0.00000000000E+00 -0.00000000000E+00 -0.74505805969E-08  0.93827000000E+00  0.93827000000E+00 0. -1.
     999902    2    1    2    0    0 -0.61507595227E-02 -0.19614892736E-01 -0.11120967617E-01  0.10205579701E+01  0.10202903109E+01 0.  0.
     999903    2    3    3    0    0  0.62204784680E-01  0.43277334939E-01  0.10173412949E+00  0.12850181401E+00  0.20506587805E-01 0.  0.
         14    1    1    2    0    0  0.61507595227E-02  0.19614892736E-01  0.11120967617E-01  0.23372029875E-01  0.00000000000E+00 0. -1.
     999901    1    3    3    0    0 -0.68355544203E-01 -0.62892227675E-01 -0.11285509711E+00  0.89205615612E+00  0.88000000000E+00 0. -1.
        -11    1    4    4    0    0  0.43108077408E-01  0.30297028026E-01  0.53863920717E-01  0.75351173322E-01  0.51100000000E-03 0. -1.
         11    1    4    4    0    0  0.19096707272E-01  0.12980306913E-01  0.47870208773E-01  0.53150640684E-01  0.51100000000E-03 0.  1.
</event>
<event>
 8    1  0.1086235E+005  0.1043930E+01  0.7957747E-01            NaN
         13   -1    0    0    0    0  0.00000000000E+00  0.00000000000E+00  0.74505805969E-08  0.10566000000E+00  0.10566000000E+00 0. -1.
     999900   -1    0    0    0    0 -0.00000000000E+00 -0.00000000000E+00 -0.74505805969E-08  0.93827000000E+00  0.93827000000E+00 0.  1.
     999902    2    1    2    0    0 -0.85761899542E-02 -0.21303136199E-01 -0.44760852308E-02  0.10205332057E+01  0.10202649724E+01 0.  0.
     999903    2    3    3    0    0 -0.68918897651E-01 -0.18960293456E-01  0.10835232218E+00  0.13127678550E+00  0.19597487306E-01 0.  0.
         14    1    1    2    0    0  0.85761899542E-02  0.21303136199E-01  0.44760852308E-02  0.23396794333E-01  0.00000000000E+00 0. -1.
     999901    1    3    3    0    0  0.60342707697E-01 -0.23428427432E-02 -0.11282840741E+00  0.88925642016E+00  0.88000000000E+00 0.  1.
        -11    1    4    4    0    0 -0.51230020789E-01 -0.13765276688E-01  0.93885892790E-01  0.10783700598E+00  0.51100000000E-03 0.  1.
         11    1    4    4    0    0 -0.17688876862E-01 -0.51950167684E-02  0.14466429390E-01  0.23439779525E-01  0.51100000000E-03 0. -1.
</event>
<event>
 8    1  0.1086235E+005  0.1043930E+01  0.7957747E-01            NaN
         13   -1    0    0    0    0  0.00000000000E+00  0.00000000000E+00  0.74505805969E-08  0.10566000000E+00  0.10566000000E+00 0. -1.
     999900   -1    0    0    0    0 -0.00000000000E+00 -0.00000000000E+00 -0.74505805969E-08  0.93827000000E+00  0.93827000000E+00 0. -1.
     999902    2    1    2    0    0  0.48051836179E-02  0.23503799299E-01 -0.47000133150E-03  0.10199354324E+01  0.10196531504E+01 0.  0.
     999903    2    3    3    0    0  0.86975062457E-01  0.57814472361E-01 -0.78220909024E-01  0.13203098098E+00  0.20161711898E-01 0.  0.
         14    1    1    2    0    0 -0.48051836179E-02 -0.23503799299E-01  0.47000133150E-03  0.23994567559E-01  0.00000000000E+00 0. -1.
     999901    1    3    3    0    0 -0.82169878839E-01 -0.34310673062E-01  0.77750907693E-01  0.88790445146E+00  0.88000000000E+00 0.  1.
        -11    1    4    4    0    0  0.61036828017E-01  0.47711126898E-01 -0.48990810356E-01  0.91663551233E-01  0.51100000000E-03 0. -1.
         11    1    4    4    0    0  0.25938234439E-01  0.10103345464E-01 -0.29230098668E-01  0.40367429749E-01  0.51100000000E-03 0.  1.
</event>
<event>
 8    1  0.1086235E+005  0.1043930E+01  0.7957747E-01            NaN
         13   -1    0    0    0    0  0.00000000000E+00  0.00000000000E+00  0.74505805969E-08  0.10566000000E+00  0.10566000000E+00 0. -1.
     999900   -1    0    0    0    0 -0.00000000000E+00 -0.00000000000E+00 -0.74505805969E-08  0.93827000000E+00  0.93827000000E+00 0. -1.
     999902    2    1    2    0    0 -0.15479316005E-01 -0.48368369771E-02  0.17011732821E-01  0.10204267392E+01  0.10201560306E+01 0.  0.
     999903    2    3    3    0    0 -0.12251180934E+00  0.32339058647E-01 -0.30668962545E-01  0.13188217048E+00  0.19933978174E-01 0.  0.
         14    1    1    2    0    0  0.15479316005E-01  0.48368369771E-02 -0.17011732821E-01  0.23503260826E-01  0.00000000000E+00 0.  1.
     999901    1    3    3    0    0  0.10703249333E+00 -0.37175895625E-01  0.47680695365E-01  0.88854456869E+00  0.88000000000E+00 0.  1.
        -11    1    4    4    0    0 -0.42951435169E-01  0.25727808722E-02 -0.14502997827E-01  0.45409724195E-01  0.51100000000E-03 0. -1.
         11    1    4    4    0    0 -0.79560374168E-01  0.29766277775E-01 -0.16165964718E-01  0.86472446285E-01  0.51100000000E-03 0.  1.
</event>
<event>
 8    1  0.1086235E+005  0.1043930E+01  0.7957747E-01            NaN
         13   -1    0    0    0    0  0.00000000000E+00  0.00000000000E+00  0.74505805969E-08  0.10566000000E+00  0.10566000000E+00 0.  1.
     999900   -1    0    0    0    0 -0.00000000000E+00 -0.00000000000E+00 -0.74505805969E-08  0.93827000000E+00  0.93827000000E+00 0. -1.
     999902    2    1    2    0    0 -0.12863712472E-01  0.21726805604E-01 -0.53536803865E-03  0.10186749847E+01  0.10183618751E+01 0.  0.
     999903    2    3    3    0    0 -0.80508659262E-01 -0.47562332919E-01 -0.86880639195E-01  0.12916257363E+00  0.19771323455E-01 0.  0.
         14    1    1    2    0    0  0.12863712472E-01 -0.21726805604E-01  0.53536803865E-03  0.25255015329E-01  0.00000000000E+00 0. -1.
     999901    1    3    3    0    0  0.67644946790E-01  0.69289138523E-01  0.86345271156E-01  0.88951241104E+00  0.88000000000E+00 0.  1.
        -11    1    4    4    0    0 -0.44121032000E-01 -0.37265146299E-01 -0.52781810468E-01  0.78240253264E-01  0.51100000000E-03 0.  1.
         11    1    4    4    0    0 -0.36387627262E-01 -0.10297186619E-01 -0.34098828727E-01  0.50922320367E-01  0.51100000000E-03 0. -1.
</event>
<event>
 8    1  0.1086235E+005  0.1043930E+01  0.7957747E-01            NaN
         13   -1    0    0    0    0  0.00000000000E+00  0.00000000000E+00  0.74505805969E-08  0.10566000000E+00  0.10566000000E+00 0. -1.
     999900   -1    0    0    0    0 -0.00000000000E+00 -0.00000000000E+00 -0.74505805969E-08  0.93827000000E+00  0.93827000000E+00 0.  1.
     999902    2    1    2    0    0  0.15162472502E-01 -0.69287522884E-02  0.16738736981E-01  0.10203059975E+01  0.10200324676E+01 0.  0.
     999903    2    3    3    0    0 -0.12073884606E+00 -0.15625068085E-01  0.39619681186E-01  0.12953760337E+00  0.19704310422E-01 0.  0.
         14    1    1    2    0    0 -0.15162472502E-01  0.69287522884E-02 -0.16738736981E-01  0.23624002548E-01  0.00000000000E+00 0.  1.
     999901    1    3    3    0    0  0.13590131856E+00  0.86963157963E-02 -0.22880944205E-01  0.89076839409E+00  0.88000000000E+00 0.  1.
        -11    1    4    4    0    0 -0.10207520090E+00 -0.62683079864E-02  0.35470962172E-01  0.10824550153E+00  0.51100000000E-03 0.  1.
         11    1    4    4    0    0 -0.18663645158E-01 -0.93567600983E-02  0.41487190140E-02  0.21292101836E-01  0.51100000000E-03 0. -1.
</event>
<event>
 8    1  0.1086235E+005  0.1043930E+01  0.7957747E-01            NaN
         13   -1    0    0    0    0  0.00000000000E+00  0.00000000000E+00  0.74505805969E-08  0.10566000000E+00  0.10566000000E+00 0.  1.
     999900   -1    0    0    0    0 -0.00000000000E+00 -0.00000000000E+00 -0.74505805969E-08  0.93827000000E+00  0.93827000000E+00 0.  1.
     999902    2    1    2    0    0  0.86339381116E-02 -0.81702240083E-02  0.19040714826E-01  0.10214834798E+01  0.10212368253E+01 0.  0.
     999903    2    3    3    0    0  0.10754129213E-01  0.68687847540E-01  0.11190447864E+00  0.13326315973E+00  0.20069521833E-01 0.  0.
         14    1    1    2    0    0 -0.86339381116E-02  0.81702240083E-02 -0.19040714826E-01  0.22446520193E-01  0.00000000000E+00 0. -1.
     999901    1    3    3    0    0 -0.21201911017E-02 -0.76858071548E-01 -0.92863763812E-01  0.88822032008E+00  0.88000000000E+00 0.  1.
        -11    1    4    4    0    0  0.17956154900E-02  0.58155451332E-01  0.95190760755E-01  0.11156532978E+00  0.51100000000E-03 0.  1.
         11    1    4    4    0    0  0.89585137232E-02  0.10532396208E-01  0.16713717883E-01  0.21697829949E-01  0.51100000000E-03 0. -1.
</event>
<event>
 8    1  0.1086235E+005  0.1043930E+01  0.7957747E-01            NaN
         13   -1    0    0    0    0  0.00000000000E+00  0.00000000000E+00  0.74505805969E-08  0.10566000000E+00  0.10566000000E+00 0. -1.
     999900   -1    0    0    0    0 -0.00000000000E+00 -0.00000000000E+00 -0.74505805969E-08  0.93827000000E+00  0.93827000000E+00 0.  1.
     999902    2    1    2    0    0  0.83057643407E-02 -0.17760140332E-02  0.21473791195E-01  0.10208374979E+01  0.10205762751E+01 0.  0.
     999903    2    3    3    0    0 -0.53094806624E-01  0.58332929043E-02  0.12063701052E+00  0.13310934367E+00  0.17655686593E-01 0.  0.
         14    1    1    2    0    0 -0.83057643407E-02  0.17760140332E-02 -0.21473791195E-01  0.23092502147E-01  0.00000000000E+00 0.  1.
     999901    1    3    3    0    0  0.61400570964E-01 -0.76093069375E-02 -0.99163219320E-01  0.88772815418E+00  0.88000000000E+00 0.  1.
        -11    1    4    4    0    0 -0.22358722224E-01  0.33422235034E-02  0.72457540699E-01  0.75904145095E-01  0.51100000000E-03 0. -1.
         11    1    4    4    0    0 -0.30736084399E-01  0.24910694009E-02  0.48179469816E-01  0.57205198572E-01  0.51100000000E-03 0.  1.
</event>
<event>
 8    1  0.1086235E+005  0.1043930E+01  0.7957747E-01            NaN
         13   -1    0    0    0    0  0.00000000000E+00  0.00000000000E+00  0.74505805969E-08  0.10566000000E+00  0.10566000000E+00 0. -1.
     999900   -1    0    0    0    0 -0.00000000000E+00 -0.00000000000E+00 -0.74505805969E-08  0.93827000000E+00  0.93827000000E+00 0. -1.
     999902    2    1    2    0    0  0.24118106060E-01  0.84162978104E-02  0.29844821837E-02  0.10182118305E+01  0.10178869817E+01 0.  0.
     999903    2    3    3    0    0 -0.11066326445E+00  0.55790073637E-01 -0.15825019697E-01  0.12649209323E+00  0.19771898890E-01 0.  0.
         14    1    1    2    0    0 -0.24118106060E-01 -0.84162978104E-02 -0.29844821837E-02  0.25718169505E-01  0.00000000000E+00 0.  1.
     999901    1    3    3    0    0  0.13478137051E+00 -0.47373775827E-01  0.18809501880E-01  0.89171973727E+00  0.88000000000E+00 0.  1.
        -11    1    4    4    0    0 -0.50700992118E-01  0.23777686692E-01  0.26077291293E-02  0.56062735916E-01  0.51100000000E-03 0. -1.
         11    1    4    4    0    0 -0.59962272331E-01  0.32012386945E-01 -0.18432748826E-01  0.70429357311E-01  0.51100000000E-03 0.  1.
</event>
<event>
 8    1  0.1086235E+005  0.1043930E+01  0.7957747E-01            NaN
         13   -1    0    0    0    0  0.00000000000E+00  0.00000000000E+00  0.74505805969E-08  0.10566000000E+00  0.10566000000E+00 0.  1.
     999900   -1    0    0    0    0 -0.00000000000E+00 -0.00000000000E+00 -0.74505805969E-08  0.93827000000E+00  0.93827000000E+00 0. -1.
     999902    2    1    2    0    0 -0.35534731183E-02  0.23684035531E-01 -0.74746601234E-02  0.10188415314E+01  0.10185325890E+01 0.  0.
     999903    2    3    3    0    0  0.22103988042E-01  0.76956611947E-01 -0.10277792632E+00  0.13172317111E+00  0.19410957157E-01 0.  0.
         14    1    1    2    0    0  0.35534731183E-02 -0.23684035531E-01  0.74746601234E-02  0.25088468550E-01  0.00000000000E+00 0.  1.
     999901    1    3    3    0    0 -0.25657461161E-01 -0.53272576416E-01  0.95303266197E-01  0.88711836034E+00  0.88000000000E+00 0.  1.
        -11    1    4    4    0    0  0.16090450357E-01  0.46648857387E-01 -0.77118103540E-01  0.91555892781E-01  0.51100000000E-03 0.  1.
         11    1    4    4    0    0  0.60135376855E-02  0.30307754560E-01 -0.25659822780E-01  0.40167278325E-01  0.51100000000E-03 0. -1.
</event>
<event>
 8    1  0.1086235E+005  0.1043930E+01  0.7957747E-01            NaN
         13   -1    0    0    0    0  0.00000000000E+00  0.00000000000E+00  0.74505805969E-08  0.10566000000E+00  0.10566000000E+00 0.  1.
     999900   -1    0    0    0    0 -0.00000000000E+00 -0.00000000000E+00 -0.74505805969E-08  0.93827000000E+00  0.93827000000E+00 0. -1.
     999902    2    1    2    0    0 -0.11126910958E-01 -0.20233803921E-01 -0.49401347931E-02  0.10203160232E+01  0.10200427282E+01 0.  0.
     999903    2    3    3    0    0  0.42029516613E-01  0.19186911043E-01  0.11908146573E+00  0.12915893494E+00  0.19157692212E-01 0.  0.
         14    1    1    2    0    0  0.11126910958E-01  0.20233803921E-01  0.49401347931E-02  0.23613976801E-01  0.00000000000E+00 0.  1.
     999901    1    3    3    0    0 -0.53156427571E-01 -0.39420714964E-01 -0.12402160053E+00  0.89115708826E+00  0.88000000000E+00 0. -1.
        -11    1    4    4    0    0  0.37837940070E-01  0.17991692827E-01  0.84688439448E-01  0.94487055286E-01  0.51100000000E-03 0. -1.
         11    1    4    4    0    0  0.41915765437E-02  0.11952182158E-02  0.34393026285E-01  0.34671879651E-01  0.51100000000E-03 0.  1.
</event>
<event>
 8    1  0.1086235E+005  0.1043930E+01  0.7957747E-01            NaN
         13   -1    0    0    0    0  0.00000000000E+00  0.00000000000E+00  0.74505805969E-08  0.10566000000E+00  0.10566000000E+00 0. -1.
     999900   -1    0    0    0    0 -0.00000000000E+00 -0.00000000000E+00 -0.74505805969E-08  0.93827000000E+00  0.93827000000E+00 0. -1.
     999902    2    1    2    0    0  0.39579441577E-02  0.19561632256E-01  0.12467349938E-01  0.10203979454E+01  0.10201265654E+01 0.  0.
     999903    2    3    3    0    0  0.52678621212E-01  0.10012861279E+00 -0.64969966671E-01  0.13199416293E+00  0.20014650803E-01 0.  0.
         14    1    1    2    0    0 -0.39579441577E-02 -0.19561632256E-01 -0.12467349938E-01  0.23532054585E-01  0.00000000000E+00 0. -1.
     999901    1    3    3    0    0 -0.48720677055E-01 -0.80566980536E-01  0.77437316609E-01  0.88840378248E+00  0.88000000000E+00 0. -1.
        -11    1    4    4    0    0  0.17418882894E-01  0.54059178814E-01 -0.34637445463E-01  0.66526882119E-01  0.51100000000E-03 0.  1.
         11    1    4    4    0    0  0.35259738319E-01  0.46069433978E-01 -0.30332521208E-01  0.65467280814E-01  0.51100000000E-03 0. -1.
</event>
<event>
 8    1  0.1086235E+005  0.1043930E+01  0.7957747E-01            NaN
         13   -1    0    0    0    0  0.00000000000E+00  0.00000000000E+00  0.74505805969E-08  0.10566000000E+00  0.10566000000E+00 0.  1.
     999900   -1    0    0    0    0 -0.00000000000E+00 -0.00000000000E+00 -0.74505805969E-08  0.93827000000E+00  0.93827000000E+00 0. -1.
     999902    2    1    2    0    0 -0.28417117222E-01 -0.12114379499E-01  0.11040985395E-02  0.10130186788E+01  0.10125469539E+01 0.  0.
     999903    2    3    3    0    0 -0.38404657521E-01 -0.10087213025E+00  0.62686832710E-01  0.12635632912E+00  0.19651425725E-01 0.  0.
         14    1    1    2    0    0  0.28417117222E-01  0.12114379499E-01 -0.11040985395E-02  0.30911321153E-01  0.00000000000E+00 0. -1.
     999901    1    3    3    0    0  0.99875402989E-02  0.88757750748E-01 -0.61582734170E-01  0.88666234973E+00  0.88000000000E+00 0. -1.
        -11    1    4    4    0    0 -0.20738578640E-01 -0.53933548223E-01  0.22216459379E-01  0.61909195248E-01  0.51100000000E-03 0.  1.
         11    1    4    4    0    0 -0.17666078881E-01 -0.46938582024E-01  0.40470373331E-01  0.64447133870E-01  0.51100000000E-03 0. -1.
</event>
<event>
 8    1  0.1086235E+005  0.1043930E+01  0.7957747E-01            NaN
         13   -1    0    0    0    0  0.00000000000E+00  0.00000000000E+00  0.74505805969E-08  0.10566000000E+00  0.10566000000E+00 0. -1.
     999900   -1    0    0    0    0 -0.00000000000E+00 -0.00000000000E+00 -0.74505805969E-08  0.93827000000E+00  0.93827000000E+00 0. -1.
     999902    2    1    2    0    0  0.20863683344E-01  0.10755570709E-01 -0.70988987563E-02  0.10194071546E+01  0.10191121513E+01 0.  0.
     999903    2    3    3    0    0 -0.40953628342E-01 -0.11196561494E+00 -0.42258555804E-01  0.12804972295E+00  0.19936083038E-01 0.  0.
         14    1    1    2    0    0 -0.20863683344E-01 -0.10755570709E-01  0.70988987563E-02  0.24522845420E-01  0.00000000000E+00 0. -1.
     999901    1    3    3    0    0  0.61817311686E-01  0.12272118565E+00  0.35159657048E-01  0.89135743163E+00  0.88000000000E+00 0. -1.
        -11    1    4    4    0    0 -0.28000367334E-01 -0.97438943616E-01 -0.36351492211E-01  0.10770357659E+00  0.51100000000E-03 0.  1.
         11    1    4    4    0    0 -0.12953261008E-01 -0.14526671323E-01 -0.59070635935E-02  0.20346146362E-01  0.51100000000E-03 0. -1.
</event>
<event>
 8    1  0.1086235E+005  0.1043930E+01  0.7957747E-01            NaN
         13   -1    0    0    0    0  0.00000000000E+00  0.00000000000E+00  0.74505805969E-08  0.10566000000E+00  0.10566000000E+00 0. -1.
     999900   -1    0    0    0    0 -0.00000000000E+00 -0.00000000000E+00 -0.74505805969E-08  0.93827000000E+00  0.93827000000E+00 0.  1.
     999902    2    1    2    0    0  0.22023068393E-02 -0.22201561492E-01  0.78364981362E-02  0.10202832203E+01  0.10200091565E+01 0.  0.
     999903    2    3    3    0    0  0.10215433872E+00 -0.74438439701E-01 -0.33350481761E-01  0.13213038015E+00  0.19224788690E-01 0.  0.
         14    1    1    2    0    0 -0.22023068393E-02  0.22201561492E-01 -0.78364981362E-02  0.23646779720E-01  0.00000000000E+00 0. -1.
     999901    1    3    3    0    0 -0.99952031879E-01  0.52236878209E-01  0.41186979897E-01  0.88815284013E+00  0.88000000000E+00 0. -1.
        -11    1    4    4    0    0  0.53233051314E-01 -0.27628795678E-01 -0.12331725156E-01  0.61232676482E-01  0.51100000000E-03 0. -1.
         11    1    4    4    0    0  0.48921287404E-01 -0.46809644023E-01 -0.21018756605E-01  0.70897703666E-01  0.51100000000E-03 0.  1.
</event>
<event>
 8    1  0.1086235E+005  0.1043930E+01  0.7957747E-01            NaN
         13   -1    0    0    0    0  0.00000000000E+00  0.00000000000E+00  0.74505805969E-08  0.10566000000E+00  0.10566000000E+00 0.  1.
     999900   -1    0    0    0    0 -0.00000000000E+00 -0.00000000000E+00 -0.74505805969E-08  0.93827000000E+00  0.93827000000E+00 0. -1.
     999902    2    1    2    0    0 -0.24365664732E-02 -0.14608140015E-01 -0.19943040411E-01  0.10190893182E+01  0.10187865228E+01 0.  0.
     999903    2    3    3    0    0 -0.69396660693E-01 -0.84865348703E-01  0.66294855597E-01  0.12956320600E+00  0.19328542257E-01 0.  0.
         14    1    1    2    0    0  0.24365664732E-02  0.14608140015E-01  0.19943040411E-01  0.24840681788E-01  0.00000000000E+00 0. -1.
     999901    1    3    3    0    0  0.66960094219E-01  0.70257208687E-01 -0.86237896008E-01  0.88952611221E+00  0.88000000000E+00 0.  1.
        -11    1    4    4    0    0 -0.49754845544E-01 -0.46002854789E-01  0.40996712926E-01  0.79201003122E-01  0.51100000000E-03 0.  1.
         11    1    4    4    0    0 -0.19641815149E-01 -0.38862493914E-01  0.25298142672E-01  0.50362202883E-01  0.51100000000E-03 0. -1.
</event>
<event>
 8    1  0.1086235E+005  0.1043930E+01  0.7957747E-01            NaN
         13   -1    0    0    0    0  0.00000000000E+00  0.00000000000E+00  0.74505805969E-08  0.10566000000E+00  0.10566000000E+00 0.  1.
     999900   -1    0    0    0    0 -0.00000000000E+00 -0.00000000000E+00 -0.74505805969E-08  0.93827000000E+00  0.93827000000E+00 0. -1.
     999902    2    1    2    0    0  0.20618002567E-01  0.95492943939E-02  0.67357180970E-02  0.10202306128E+01  0.10199553139E+01 0.  0.
     999903    2    3    3    0    0  0.47817552262E-01 -0.58183433506E-01  0.10584135240E+00  0.13166465318E+00  0.21479263943E-01 0.  0.
         14    1    1    2    0    0 -0.20618002567E-01 -0.95492943939E-02 -0.67357180970E-02  0.23699387156E-01  0.00000000000E+00 0.  1.
     999901    1    3    3    0    0 -0.27199549695E-01  0.67732727900E-01 -0.99105634301E-01  0.88856595967E+00  0.88000000000E+00 0. -1.
        -11    1    4    4    0    0  0.25879726792E-01 -0.44288730048E-01  0.59670714215E-01  0.78689942966E-01  0.51100000000E-03 0.  1.
         11    1    4    4    0    0  0.21937825470E-01 -0.13894703458E-01  0.46170638183E-01  0.52974710210E-01  0.51100000000E-03 0. -1.
</event>
<event>
 8    1  0.1086235E+005  0.1043930E+01  0.7957747E-01            NaN
         13   -1    0    0    0    0  0.00000000000E+00  0.00000000000E+00  0.74505805969E-08  0.10566000000E+00  0.10566000000E+00 0.  1.
     999900   -1    0    0    0    0 -0.00000000000E+00 -0.00000000000E+00 -0.74505805969E-08  0.93827000000E+00  0.93827000000E+00 0. -1.
     999902    2    1    2    0    0  0.48706351152E-02 -0.18582625613E-02 -0.22795099096E-01  0.10205463996E+01  0.10202784722E+01 0.  0.
     999903    2    3    3    0    0  0.11483911299E+00 -0.53224734434E-01 -0.31507792149E-01  0.13217289052E+00  0.21355041457E-01 0.  0.
         14    1    1    2    0    0 -0.48706351152E-02  0.18582625613E-02  0.22795099096E-01  0.23383600428E-01  0.00000000000E+00 0.  1.
     999901    1    3    3    0    0 -0.10996847787E+00  0.51366471872E-01  0.87126930527E-02  0.88837350905E+00  0.88000000000E+00 0. -1.
        -11    1    4    4    0    0  0.62106384856E-01 -0.35497260298E-01 -0.87766391113E-02  0.72073220017E-01  0.51100000000E-03 0.  1.
         11    1    4    4    0    0  0.52732728133E-01 -0.17727474136E-01 -0.22731153037E-01  0.60099670507E-01  0.51100000000E-03 0. -1.
</event>
<event>
 8    1  0.1086235E+005  0.1043930E+01  0.7957747E-01            NaN
         13   -1    0    0    0    0  0.00000000000E+00  0.00000000000E+00  0.74505805969E-08  0.10566000000E+00  0.10566000000E+00 0. -1.
     999900   -1    0    0    0    0 -0.00000000000E+00 -0.00000000000E+00 -0.74505805969E-08  0.93827000000E+00  0.93827000000E+00 0. -1.
     999902    2    1    2    0    0  0.12041869128E-01  0.15733952604E-01 -0.12234894565E-01  0.10206435979E+01  0.10203779189E+01 0.  0.
     999903    2    3    3    0    0 -0.11703895395E+00  0.49270238080E-01 -0.22505481634E-01  0.13053572452E+00  0.20184290211E-01 0.  0.
         14    1    1    2    0    0 -0.12041869128E-01 -0.15733952604E-01  0.12234894565E-01  0.23286402076E-01  0.00000000000E+00 0. -1.
     999901    1    3    3    0    0  0.12908082308E+00 -0.33536285476E-01  0.10270587069E-01  0.89010787340E+00  0.88000000000E+00 0. -1.
        -11    1    4    4    0    0 -0.24115165431E-01  0.11424020728E-01 -0.13181660057E-01  0.29766873135E-01  0.51100000000E-03 0.  1.
         11    1    4    4    0    0 -0.92923788518E-01  0.37846217353E-01 -0.93238215765E-02  0.10076885139E+00  0.51100000000E-03 0. -1.
</event>
<event>
 8    1  0.1086235E+005  0.1043930E+01  0.7957747E-01            NaN
         13   -1    0    0    0    0  0.00000000000E+00  0.00000000000E+00  0.74505805969E-08  0.10566000000E+00  0.10566000000E+00 0.  1.
     999900   -1    0    0    0    0 -0.00000000000E+00 -0.00000000000E+00 -0.74505805969E-08  0.93827000000E+00  0.93827000000E+00 0.  1.
     999902    2    1    2    0    0  0.20694509446E-02  0.20355192467E-01 -0.13947706778E-01  0.10191680330E+01  0.10188671770E+01 0.  0.
     999903    2    3    3    0    0 -0.18818609856E-01 -0.12019156881E+00  0.28889856703E-01  0.12674169984E+00  0.20704621899E-01 0.  0.
         14    1    1    2    0    0 -0.20694509446E-02 -0.20355192467E-01  0.13947706778E-01  0.24761967045E-01  0.00000000000E+00 0.  1.
     999901    1    3    3    0    0  0.20888060801E-01  0.14054676128E+00 -0.42837563481E-01  0.89242633311E+00  0.88000000000E+00 0.  1.
        -11    1    4    4    0    0 -0.22895668878E-02 -0.54482143029E-01  0.44634673985E-02  0.54714985952E-01  0.51100000000E-03 0.  1.
         11    1    4    4    0    0 -0.16529042969E-01 -0.65709425783E-01  0.24426389305E-01  0.72026713889E-01  0.51100000000E-03 0. -1.
</event>
<event>
 8    1  0.1086235E+005  0.1043930E+01  0.7957747E-01            NaN
         13   -1    0    0    0    0  0.00000000000E+00  0.00000000000E+00  0.74505805969E-08  0.10566000000E+00  0.10566000000E+00 0. -1.
     999900   -1    0    0    0    0 -0.00000000000E+00 -0.00000000000E+00 -0.74505805969E-08  0.93827000000E+00  0.93827000000E+00 0.  1.
     999902    2    1    2    0    0  0.43609636466E-02  0.23106728822E-01  0.50732427319E-02  0.10198742998E+01  0.10195905603E+01 0.  0.
     999903    2    3    3    0    0 -0.94788948820E-01 -0.27080157166E-01  0.81802970185E-01  0.12957273305E+00  0.19470169186E-01 0.  0.
         14    1    1    2    0    0 -0.43609636466E-02 -0.23106728822E-01 -0.50732427319E-02  0.24055700210E-01  0.00000000000E+00 0. -1.
     999901    1    3    3    0    0  0.99149912466E-01  0.50186885988E-01 -0.76729727453E-01  0.89030156674E+00  0.88000000000E+00 0. -1.
        -11    1    4    4    0    0 -0.75993288823E-01 -0.27164376183E-01  0.58746428700E-01  0.99821276718E-01  0.51100000000E-03 0. -1.
         11    1    4    4    0    0 -0.18795659996E-01  0.84219017369E-04  0.23056541485E-01  0.29751456331E-01  0.51100000000E-03 0.  1.
</event>
<event>
 8    1  0.1086235E+005  0.1043930E+01  0.7957747E-01            NaN
         13   -1    0    0    0    0  0.00000000000E+00  0.00000000000E+00  0.74505805969E-08  0.10566000000E+00  0.10566000000E+00 0.  1.
     999900   -1    0    0    0    0 -0.00000000000E+00 -0.00000000000E+00 -0.74505805969E-08  0.93827000000E+00  0.93827000000E+00 0. -1.
     999902    2    1    2    0    0 -0.91436649858E-02  0.18485958848E-01  0.88535190441E-02  0.10214862462E+01  0.10212396531E+01 0.  0.
     999903    2    3    3    0    0  0.92411051234E-01  0.32690144434E-01  0.86224366632E-01  0.13215989031E+00  0.20570543800E-01 0.  0.
         14    1    1    2    0    0  0.91436649858E-02 -0.18485958848E-01 -0.88535190441E-02  0.22443753772E-01  0.00000000000E+00 0.  1.
     999901    1    3    3    0    0 -0.10155471622E+00 -0.14204185587E-01 -0.77370847588E-01  0.88932635592E+00  0.88000000000E+00 0. -1.
        -11    1    4    4    0    0  0.38809557727E-01  0.95744073645E-02  0.23056379371E-01  0.46148768110E-01  0.51100000000E-03 0.  1.
         11    1    4    4    0    0  0.53601493507E-01  0.23115737070E-01  0.63167987261E-01  0.86011122200E-01  0.51100000000E-03 0. -1.
</event>
<event>
 8    1  0.1086235E+005  0.1043930E+01  0.7957747E-01            NaN
         13   -1    0    0    0    0  0.00000000000E+00  0.00000000000E+00  0.74505805969E-08  0.10566000000E+00  0.10566000000E+00 0.  1.
     999900   -1    0    0    0    0 -0.00000000000E+00 -0.00000000000E+00 -0.74505805969E-08  0.93827000000E+00  0.93827000000E+00 0. -1.
     999902    2    1    2    0    0 -0.98738223105E-02  0.21284902230E-01 -0.35696648770E-02  0.10201964386E+01  0.10199203358E+01 0.  0.
     999903    2    3    3    0    0 -0.81644349694E-01  0.33575597651E-01  0.96882806513E-01  0.13149358116E+00  0.10543390987E-01 0.  0.
         14    1    1    2    0    0  0.98738223105E-02 -0.21284902230E-01  0.35696648770E-02  0.23733561412E-01  0.00000000000E+00 0.  1.
     999901    1    3    3    0    0  0.71770527383E-01 -0.12290695421E-01 -0.10045247139E+00  0.88870285743E+00  0.88000000000E+00 0. -1.
        -11    1    4    4    0    0 -0.65500829793E-01  0.31263595135E-01  0.79802497140E-01  0.10787247450E+00  0.51100000000E-03 0.  1.
         11    1    4    4    0    0 -0.16143519900E-01  0.23120025165E-02  0.17080309373E-01  0.23621106657E-01  0.51100000000E-03 0. -1.
</event>
<event>
 8    1  0.1086235E+005  0.1043930E+01  0.7957747E-01            NaN
         13   -1    0    0    0    0  0.00000000000E+00  0.00000000000E+00  0.74505805969E-08  0.10566000000E+00  0.10566000000E+00 0.  1.
     999900   -1    0    0    0    0 -0.00000000000E+00 -0.00000000000E+00 -0.74505805969E-08  0.93827000000E+00  0.93827000000E+00 0. -1.
     999902    2    1    2    0    0 -0.84855601375E-02  0.16353914607E-02  0.21648425785E-01  0.10206204832E+01  0.10203542704E+01 0.  0.
     999903    2    3    3    0    0  0.99789881493E-01  0.80558813111E-01 -0.71845322239E-02  0.13001180523E+00  0.20092515466E-01 0.  0.
         14    1    1    2    0    0  0.84855601375E-02 -0.16353914607E-02 -0.21648425785E-01  0.23309516835E-01  0.00000000000E+00 0. -1.
     999901    1    3    3    0    0 -0.10827544163E+00 -0.78923421651E-01  0.28832958009E-01  0.89060867793E+00  0.88000000000E+00 0. -1.
        -11    1    4    4    0    0  0.27828532912E-01  0.30104364310E-01 -0.95288218269E-02  0.42092274362E-01  0.51100000000E-03 0. -1.
         11    1    4    4    0    0  0.71961348581E-01  0.50454448801E-01  0.23442896030E-02  0.87919530868E-01  0.51100000000E-03 0.  1.
</event>
<event>
 8    1  0.1086235E+005  0.1043930E+01  0.7957747E-01            NaN
         13   -1    0    0    0    0  0.00000000000E+00  0.00000000000E+00  0.74505805969E-08  0.10566000000E+00  0.10566000000E+00 0. -1.
     999900   -1    0    0    0    0 -0.00000000000E+00 -0.00000000000E+00 -0.74505805969E-08  0.93827000000E+00  0.93827000000E+00 0. -1.
     999902    2    1    2    0    0  0.13042554190E-01  0.12818848685E-01 -0.17761682027E-01  0.10184366979E+01  0.10181175763E+01 0.  0.
     999903    2    3    3    0    0  0.80870860069E-01  0.21405258073E-01  0.95655832693E-01  0.12852774858E+00  0.19262989019E-01 0.  0.
         14    1    1    2    0    0 -0.13042554190E-01 -0.12818848685E-01  0.17761682027E-01  0.25493302058E-01  0.00000000000E+00 0. -1.
     999901    1    3    3    0    0 -0.67828305880E-01 -0.85864093878E-02 -0.11341751472E+00  0.88990894936E+00  0.88000000000E+00 0. -1.
        -11    1    4    4    0    0  0.64356107530E-01  0.23431864245E-01  0.83036633475E-01  0.10763876838E+00  0.51100000000E-03 0.  1.
         11    1    4    4    0    0  0.16514752539E-01 -0.20266061726E-02  0.12619199219E-01  0.20888980203E-01  0.51100000000E-03 0. -1.
</event>
<event>
 8    1  0.1086235E+005  0.1043930E+01  0.7957747E-01            NaN
         13   -1    0    0    0    0  0.00000000000E+00  0.00000000000E+00  0.74505805969E-08  0.10566000000E+00  0.10566000000E+00 0. -1.
     999900   -1    0    0    0    0 -0.00000000000E+00 -0.00000000000E+00 -0.74505805969E-08  0.93827000000E+00  0.93827000000E+00 0.  1.
     999902    2    1    2    0    0  0.22943869608E-01 -0.29401566074E-02  0.29616827030E-02  0.10206096819E+01  0.10203432195E+01 0.  0.
     999903    2    3    3    0    0  0.18292970829E-01  0.10406081554E+00  0.74978178841E-01  0.13119570929E+00  0.20671253462E-01 0.  0.
         14    1    1    2    0    0 -0.22943869608E-01  0.29401566074E-02 -0.29616827030E-02  0.23320318134E-01  0.00000000000E+00 0.  1.
     999901    1    3    3    0    0  0.46508987785E-02 -0.10700097215E+00 -0.72016496138E-01  0.88941397258E+00  0.88000000000E+00 0.  1.
        -11    1    4    4    0    0  0.44884776773E-02  0.39193150763E-01  0.16462534749E-01  0.42749569237E-01  0.51100000000E-03 0.  1.
         11    1    4    4    0    0  0.13804493152E-01  0.64867664781E-01  0.58515644092E-01  0.88446140051E-01  0.51100000000E-03 0. -1.
</event>
<event>
 8    1  0.1086235E+005  0.1043930E+01  0.7957747E-01            NaN
         13   -1    0    0    0    0  0.00000000000E+00  0.00000000000E+00  0.74505805969E-08  0.10566000000E+00  0.10566000000E+00 0.  1.
     999900   -1    0    0    0    0 -0.00000000000E+00 -0.00000000000E+00 -0.74505805969E-08  0.93827000000E+00  0.93827000000E+00 0.  1.
     999902    2    1    2    0    0 -0.20958275402E-01  0.88876362284E-02 -0.75695379386E-03  0.10211525470E+01  0.10208984827E+01 0.  0.
     999903    2    3    3    0    0 -0.52703240273E-01  0.11462769809E+00  0.38396419765E-01  0.13339036594E+00  0.20039061138E-01 0.  0.
         14    1    1    2    0    0  0.20958275402E-01 -0.88876362284E-02  0.75695379386E-03  0.22777452988E-01  0.00000000000E+00 0. -1.
     999901    1    3    3    0    0  0.31744964871E-01 -0.10574006186E+00 -0.39153373559E-01  0.88776218107E+00  0.88000000000E+00 0.  1.
        -11    1    4    4    0    0 -0.46624668454E-01  0.89558541870E-01  0.23760697822E-01  0.10372764343E+00  0.51100000000E-03 0. -1.
         11    1    4    4    0    0 -0.60785718189E-02  0.25069156218E-01  0.14635721943E-01  0.29662722509E-01  0.51100000000E-03 0.  1.
</event>
<event>
 8    1  0.1086235E+005  0.1043930E+01  0.7957747E-01            NaN
         13   -1    0    0    0    0  0.00000000000E+00  0.00000000000E+00  0.74505805969E-08  0.10566000000E+00  0.10566000000E+00 0.  1.
     999900   -1    0    0    0    0 -0.00000000000E+00 -0.00000000000E+00 -0.74505805969E-08  0.93827000000E+00  0.93827000000E+00 0.  1.
     999902    2    1    2    0    0 -0.12940970845E-02 -0.26223119068E-01 -0.69436252408E-02  0.10167723014E+01  0.10164095495E+01 0.  0.
     999903    2    3    3    0    0 -0.69722203625E-01 -0.23067757846E-01 -0.10395295650E+00  0.12879529021E+00  0.19715539184E-01 0.  0.
         14    1    1    2    0    0  0.12940970845E-02  0.26223119068E-01  0.69436252408E-02  0.27157698585E-01  0.00000000000E+00 0.  1.
     999901    1    3    3    0    0  0.68428106541E-01 -0.31553612226E-02  0.97009331262E-01  0.88797701120E+00  0.88000000000E+00 0.  1.
        -11    1    4    4    0    0 -0.61762592267E-02 -0.56759906498E-02 -0.22584636606E-01  0.24097509820E-01  0.51100000000E-03 0.  1.
         11    1    4    4    0    0 -0.63545944399E-01 -0.17391767196E-01 -0.81368319897E-01  0.10469778039E+00  0.51100000000E-03 0. -1.
</event>
<event>
 8    1  0.1086235E+005  0.1043930E+01  0.7957747E-01            NaN
         13   -1    0    0    0    0  0.00000000000E+00  0.00000000000E+00  0.74505805969E-08  0.10566000000E+00  0.10566000000E+00 0.  1.
     999900   -1    0    0    0    0 -0.00000000000E+00 -0.00000000000E+00 -0.74505805969E-08  0.93827000000E+00  0.93827000000E+00 0. -1.
     999902    2    1    2    0    0 -0.20276252141E-01  0.31122600937E-02  0.94803820683E-02  0.10213315441E+01  0.10210815016E+01 0.  0.
     999903    2    3    3    0    0  0.12446665291E+00 -0.94387901056E-02  0.27098584976E-01  0.12924497966E+00  0.19720370530E-01 0.  0.
         14    1    1    2    0    0  0.20276252141E-01 -0.31122600937E-02 -0.94803820683E-02  0.22598455875E-01  0.00000000000E+00 0.  1.
     999901    1    3    3    0    0 -0.14474290505E+00  0.12551050199E-01 -0.17618202908E-01  0.89208656446E+00  0.88000000000E+00 0.  1.
        -11    1    4    4    0    0  0.81609278906E-01 -0.14843457797E-01  0.21442905589E-01  0.85676495983E-01  0.51100000000E-03 0.  1.
         11    1    4    4    0    0  0.42857374006E-01  0.54046676910E-02  0.56556793868E-02  0.43568483677E-01  0.51100000000E-03 0. -1.
</event>
<event>
 8    1  0.1086235E+005  0.1043930E+01  0.7957747E-01            NaN
         13   -1    0    0    0    0  0.00000000000E+00  0.00000000000E+00  0.74505805969E-08  0.10566000000E+00  0.10566000000E+00 0.  1.
     999900   -1    0    0    0    0 -0.00000000000E+00 -0.00000000000E+00 -0.74505805969E-08  0.93827000000E+00  0.93827000000E+00 0. -1.
     999902    2    1    2    0    0 -0.97145475356E-02  0.11063345083E-02 -0.20327574594E-01  0.10213732560E+01  0.10211241459E+01 0.  0.
     999903    2    3    3    0    0 -0.12863127503E+00 -0.25578169380E-01 -0.85748703680E-02  0.13289625752E+00  0.19688554962E-01 0.  0.
         14    1    1    2    0    0  0.97145475356E-02 -0.11063345083E-02  0.20327574594E-01  0.22556743974E-01  0.00000000000E+00 0.  1.
     999901    1    3    3    0    0  0.11891672749E+00  0.26684503888E-01 -0.11752704226E-01  0.88847699851E+00  0.88000000000E+00 0. -1.
        -11    1    4    4    0    0 -0.59101010036E-01 -0.12049230989E-01  0.58648978471E-02  0.60603395140E-01  0.51100000000E-03 0. -1.
         11    1    4    4    0    0 -0.69530264989E-01 -0.13528938390E-01 -0.14439768215E-01  0.72292862376E-01  0.51100000000E-03 0.  1.
</event>
<event>
 8    1  0.1086235E+005  0.1043930E+01  0.7957747E-01            NaN
         13   -1    0    0    0    0  0.00000000000E+00  0.00000000000E+00  0.74505805969E-08  0.10566000000E+00  0.10566000000E+00 0.  1.
     999900   -1    0    0    0    0 -0.00000000000E+00 -0.00000000000E+00 -0.74505805969E-08  0.93827000000E+00  0.93827000000E+00 0. -1.
     999902    2    1    2    0    0 -0.17536138061E-01  0.15014330532E-01  0.46142769956E-02  0.10203877441E+01  0.10201161260E+01 0.  0.
     999903    2    3    3    0    0 -0.83923491873E-01  0.10089650888E-01 -0.99005754618E-01  0.13181099214E+00  0.20665058888E-01 0.  0.
         14    1    1    2    0    0  0.17536138061E-01 -0.15014330532E-01 -0.46142769956E-02  0.23542255874E-01  0.00000000000E+00 0. -1.
     999901    1    3    3    0    0  0.66387353812E-01  0.49246796444E-02  0.10362003161E+00  0.88857675198E+00  0.88000000000E+00 0.  1.
        -11    1    4    4    0    0 -0.57962435764E-01  0.14174227453E-01 -0.58797635840E-01  0.83773359637E-01  0.51100000000E-03 0.  1.
         11    1    4    4    0    0 -0.25961056109E-01 -0.40845765647E-02 -0.40208118778E-01  0.48037632505E-01  0.51100000000E-03 0. -1.
</event>
<event>
 8    1  0.1086235E+005  0.1043930E+01  0.7957747E-01            NaN
         13   -1    0    0    0    0  0.00000000000E+00  0.00000000000E+00  0.74505805969E-08  0.10566000000E+00  0.10566000000E+00 0.  1.
     999900   -1    0    0    0    0 -0.00000000000E+00 -0.00000000000E+00 -0.74505805969E-08  0.93827000000E+00  0.93827000000E+00 0.  1.
     999902    2    1    2    0    0 -0.21550390462E-01 -0.27391042992E-02  0.95319723014E-02  0.10202070045E+01  0.10199311503E+01 0.  0.
     999903    2    3    3    0    0 -0.83079325589E-01 -0.99878385501E-01 -0.14874915072E-01  0.13239083770E+00  0.20693104592E-01 0.  0.
         14    1    1    2    0    0  0.21550390462E-01  0.27391042992E-02 -0.95319723014E-02  0.23722995540E-01  0.00000000000E+00 0. -1.
     999901    1    3    3    0    0  0.61528935127E-01  0.97139281202E-01  0.24406887373E-01  0.88781616676E+00  0.88000000000E+00 0.  1.
        -11    1    4    4    0    0 -0.21843812723E-01 -0.27275226468E-01 -0.13312855177E-01  0.37397638523E-01  0.51100000000E-03 0. -1.
         11    1    4    4    0    0 -0.61235512866E-01 -0.72603159033E-01 -0.15620598947E-02  0.94993199176E-01  0.51100000000E-03 0.  1.
</event>
<event>
 8    1  0.1086235E+005  0.1043930E+01  0.7957747E-01            NaN
         13   -1    0    0    0    0  0.00000000000E+00  0.00000000000E+00  0.74505805969E-08  0.10566000000E+00  0.10566000000E+00 0.  1.
     999900   -1    0    0    0    0 -0.00000000000E+00 -0.00000000000E+00 -0.74505805969E-08  0.93827000000E+00  0.93827000000E+00 0. -1.
     999902    2    1    2    0    0  0.44364633758E-03  0.20701072468E-01  0.14377023734E-01  0.10187222624E+01  0.10184103387E+01 0.  0.
     999903    2    3    3    0    0 -0.16006558616E-01  0.75361464342E-01 -0.10184787431E+00  0.12924680203E+00  0.19904424297E-01 0.  0.
         14    1    1    2    0    0 -0.44364633758E-03 -0.20701072468E-01 -0.14377023734E-01  0.25207737599E-01  0.00000000000E+00 0.  1.
     999901    1    3    3    0    0  0.16450204953E-01 -0.54660391874E-01  0.11622489804E+00  0.88947546037E+00  0.88000000000E+00 0.  1.
        -11    1    4    4    0    0  0.15911051018E-02  0.17461395180E-01 -0.13385756690E-01  0.22065165765E-01  0.51100000000E-03 0. -1.
         11    1    4    4    0    0 -0.17597663717E-01  0.57900069162E-01 -0.88462117618E-01  0.10718163626E+00  0.51100000000E-03 0.  1.
</event>
<event>
 8    1  0.1086235E+005  0.1043930E+01  0.7957747E-01            NaN
         13   -1    0    0    0    0  0.00000000000E+00  0.00000000000E+00  0.74505805969E-08  0.10566000000E+00  0.10566000000E+00 0.  1.
     999900   -1    0    0    0    0 -0.00000000000E+00 -0.00000000000E+00 -0.74505805969E-08  0.93827000000E+00  0.93827000000E+00 0.  1.
     999902    2    1    2    0    0  0.12386938045E-01  0.35898386080E-02  0.20738582234E-01  0.10195084528E+01  0.10192159110E+01 0.  0.
     999903    2    3    3    0    0  0.76538928951E-01 -0.10092989604E+00 -0.20923882344E-01  0.13002792246E+00  0.20600975881E-01 0.  0.
         14    1    1    2    0    0 -0.12386938045E-01 -0.35898386080E-02 -0.20738582234E-01  0.24421547216E-01  0.00000000000E+00 0.  1.
     999901    1    3    3    0    0 -0.64151990906E-01  0.10451973465E+00  0.41662464578E-01  0.88948053032E+00  0.88000000000E+00 0. -1.
        -11    1    4    4    0    0  0.94797256252E-02 -0.24323912554E-01 -0.11472993618E-03  0.26111150948E-01  0.51100000000E-03 0.  1.
         11    1    4    4    0    0  0.67059203325E-01 -0.76605983488E-01 -0.20809152408E-01  0.10391677151E+00  0.51100000000E-03 0. -1.
</event>
<event>
 8    1  0.1086235E+005  0.1043930E+01  0.7957747E-01            NaN
         13   -1    0    0    0    0  0.00000000000E+00  0.00000000000E+00  0.74505805969E-08  0.10566000000E+00  0.10566000000E+00 0.  1.
     999900   -1    0    0    0    0 -0.00000000000E+00 -0.00000000000E+00 -0.74505805969E-08  0.93827000000E+00  0.93827000000E+00 0. -1.
     999902    2    1    2    0    0  0.89872933408E-02 -0.14456650066E-01 -0.16407231401E-01  0.10202875929E+01  0.10200136316E+01 0.  0.
     999903    2    3    3    0    0  0.97633441753E-01  0.55916291970E-01  0.58157633289E-01  0.12991103790E+00  0.28907556125E-01 0.  0.
         14    1    1    2    0    0 -0.89872933408E-02  0.14456650066E-01  0.16407231401E-01  0.23642407131E-01  0.00000000000E+00 0. -1.
     999901    1    3    3    0    0 -0.88646148413E-01 -0.70372942036E-01 -0.74564864690E-01  0.89037655497E+00  0.88000000000E+00 0.  1.
        -11    1    4    4    0    0  0.65163391962E-01  0.45342941554E-01  0.52794957733E-01  0.95340540610E-01  0.51100000000E-03 0.  1.
         11    1    4    4    0    0  0.32470049791E-01  0.10573350417E-01  0.53626755556E-02  0.34570497286E-01  0.51100000000E-03 0. -1.
</event>
<event>
 8    1  0.1086235E+005  0.1043930E+01  0.7957747E-01            NaN
         13   -1    0    0    0    0  0.00000000000E+00  0.00000000000E+00  0.74505805969E-08  0.10566000000E+00  0.10566000000E+00 0.  1.
     999900   -1    0    0    0    0 -0.00000000000E+00 -0.00000000000E+00 -0.74505805969E-08  0.93827000000E+00  0.93827000000E+00 0.  1.
     999902    2    1    2    0    0 -0.19151017541E-01 -0.14221968336E-01  0.99984054012E-03  0.10200547924E+01  0.10197753449E+01 0.  0.
     999903    2    3    3    0    0 -0.36210871942E-01  0.13348032444E-01 -0.12350030507E+00  0.13070029064E+00  0.18461944734E-01 0.  0.
         14    1    1    2    0    0  0.19151017541E-01  0.14221968336E-01 -0.99984054012E-03  0.23875207587E-01  0.00000000000E+00 0. -1.
     999901    1    3    3    0    0  0.17059854402E-01 -0.27570000781E-01  0.12450014561E+00  0.88935450178E+00  0.88000000000E+00 0. -1.
        -11    1    4    4    0    0 -0.25469122675E-01 -0.21035113743E-03 -0.73145372719E-01  0.77454677900E-01  0.51100000000E-03 0.  1.
         11    1    4    4    0    0 -0.10741749267E-01  0.13558383582E-01 -0.50354932349E-01  0.53245612735E-01  0.51100000000E-03 0. -1.
</event>
<event>
 8    1  0.1086235E+005  0.1043930E+01  0.7957747E-01            NaN
         13   -1    0    0    0    0  0.00000000000E+00  0.00000000000E+00  0.74505805969E-08  0.10566000000E+00  0.10566000000E+00 0. -1.
     999900   -1    0    0    0    0 -0.00000000000E+00 -0.00000000000E+00 -0.74505805969E-08  0.93827000000E+00  0.93827000000E+00 0.  1.
     999902    2    1    2    0    0 -0.10346663660E-01 -0.72650838844E-02 -0.18299604139E-01  0.10216879137E+01  0.10214457805E+01 0.  0.
     999903    2    3    3    0    0  0.44884724098E-01 -0.12103737299E+00 -0.22244581066E-01  0.13263774478E+00  0.20815038663E-01 0.  0.
         14    1    1    2    0    0  0.10346663660E-01  0.72650838844E-02  0.18299604139E-01  0.22242086332E-01  0.00000000000E+00 0. -1.
     999901    1    3    3    0    0 -0.55231387758E-01  0.11377228911E+00  0.39449769270E-02  0.88905016889E+00  0.88000000000E+00 0. -1.
        -11    1    4    4    0    0  0.59554171528E-02 -0.42902358430E-01 -0.10325931675E-01  0.44530498967E-01  0.51100000000E-03 0. -1.
         11    1    4    4    0    0  0.38929306945E-01 -0.78135014562E-01 -0.11918649391E-01  0.88107245810E-01  0.51100000000E-03 0.  1.
</event>
<event>
 8    1  0.1086235E+005  0.1043930E+01  0.7957747E-01            NaN
         13   -1    0    0    0    0  0.00000000000E+00  0.00000000000E+00  0.74505805969E-08  0.10566000000E+00  0.10566000000E+00 0. -1.
     999900   -1    0    0    0    0 -0.00000000000E+00 -0.00000000000E+00 -0.74505805969E-08  0.93827000000E+00  0.93827000000E+00 0.  1.
     999902    2    1    2    0    0 -0.19400807344E-01 -0.67878221962E-02 -0.13055998078E-01  0.10195799499E+01  0.10192891392E+01 0.  0.
     999903    2    3    3    0    0 -0.10917809023E+00  0.27466869669E-01 -0.67747396213E-01  0.13266141163E+00  0.18304538413E-01 0.  0.
         14    1    1    2    0    0  0.19400807344E-01  0.67878221962E-02  0.13055998078E-01  0.24350050135E-01  0.00000000000E+00 0. -1.
     999901    1    3    3    0    0  0.89777282884E-01 -0.34254691865E-01  0.54691398135E-01  0.88691853824E+00  0.88000000000E+00 0.  1.
        -11    1    4    4    0    0 -0.35570814622E-01  0.15276350229E-01 -0.30398460592E-01  0.49223746876E-01  0.51100000000E-03 0. -1.
         11    1    4    4    0    0 -0.73607275606E-01  0.12190519440E-01 -0.37348935621E-01  0.83437664753E-01  0.51100000000E-03 0.  1.
</event>
<event>
 8    1  0.1086235E+005  0.1043930E+01  0.7957747E-01            NaN
         13   -1    0    0    0    0  0.00000000000E+00  0.00000000000E+00  0.74505805969E-08  0.10566000000E+00  0.10566000000E+00 0. -1.
     999900   -1    0    0    0    0 -0.00000000000E+00 -0.00000000000E+00 -0.74505805969E-08  0.93827000000E+00  0.93827000000E+00 0. -1.
     999902    2    1    2    0    0 -0.56354832762E-02 -0.23445080434E-02 -0.22115332127E-01  0.10209878269E+01  0.10207300326E+01 0.  0.
     999903    2    3    3    0    0 -0.83191943784E-01  0.99040125048E-01  0.11306087627E-01  0.13115029138E+00  0.18512845030E-01 0.  0.
         14    1    1    2    0    0  0.56354832762E-02  0.23445080434E-02  0.22115332127E-01  0.22942173062E-01  0.00000000000E+00 0. -1.
     999901    1    3    3    0    0  0.77556460507E-01 -0.10138463309E+00 -0.33421419754E-01  0.88983753556E+00  0.88000000000E+00 0.  1.
        -11    1    4    4    0    0 -0.78853738894E-01  0.92199787157E-01  0.14976760952E-01  0.12224269867E+00  0.51100000000E-03 0.  1.
         11    1    4    4    0    0 -0.43382048897E-02  0.68403378910E-02 -0.36706733255E-02  0.89075927046E-02  0.51100000000E-03 0. -1.
</event>
<event>
 8    1  0.1086235E+005  0.1043930E+01  0.7957747E-01            NaN
         13   -1    0    0    0    0  0.00000000000E+00  0.00000000000E+00  0.74505805969E-08  0.10566000000E+00  0.10566000000E+00 0.  1.
     999900   -1    0    0    0    0 -0.00000000000E+00 -0.00000000000E+00 -0.74505805969E-08  0.93827000000E+00  0.93827000000E+00 0. -1.
     999902    2    1    2    0    0 -0.19437511813E-01  0.12943721530E-01 -0.38728327861E-02  0.10202581681E+01  0.10199835165E+01 0.  0.
     999903    2    3    3    0    0 -0.93633473134E-01 -0.41959829505E-01  0.79784741060E-01  0.13148483913E+00  0.19869661099E-01 0.  0.
         14    1    1    2    0    0  0.19437511813E-01 -0.12943721530E-01  0.38728327861E-02  0.23671831918E-01  0.00000000000E+00 0.  1.
     999901    1    3    3    0    0  0.74195961321E-01  0.54903551035E-01 -0.83657573846E-01  0.88877332895E+00  0.88000000000E+00 0. -1.
        -11    1    4    4    0    0 -0.75460114719E-01 -0.30321791965E-01  0.52945725810E-01  0.97042006285E-01  0.51100000000E-03 0. -1.
         11    1    4    4    0    0 -0.18173358415E-01 -0.11638037541E-01  0.26839015250E-01  0.34442832846E-01  0.51100000000E-03 0.  1.
</event>
<event>
 8    1  0.1086235E+005  0.1043930E+01  0.7957747E-01            NaN
         13   -1    0    0    0    0  0.00000000000E+00  0.00000000000E+00  0.74505805969E-08  0.10566000000E+00  0.10566000000E+00 0.  1.
     999900   -1    0    0    0    0 -0.00000000000E+00 -0.00000000000E+00 -0.74505805969E-08  0.93827000000E+00  0.93827000000E+00 0.  1.
     999902    2    1    2    0    0 -0.86095659908E-02 -0.18114986971E-01 -0.14114308955E-01  0.10194046846E+01  0.10191096211E+01 0.  0.
     999903    2    3    3    0    0 -0.86551641451E-01  0.74481276992E-01 -0.58588577278E-01  0.13000770022E+00  0.20754119343E-01 0.  0.
         14    1    1    2    0    0  0.86095659908E-02  0.18114986971E-01  0.14114308955E-01  0.24525315427E-01  0.00000000000E+00 0.  1.
     999901    1    3    3    0    0  0.77942075461E-01 -0.92596263963E-01  0.44474268323E-01  0.88939698435E+00  0.88000000000E+00 0. -1.
        -11    1    4    4    0    0 -0.44704960855E-01  0.24922889460E-01 -0.25108660794E-01  0.57012190906E-01  0.51100000000E-03 0.  1.
         11    1    4    4    0    0 -0.41846680597E-01  0.49558387532E-01 -0.33479916484E-01  0.72995509318E-01  0.51100000000E-03 0. -1.
</event>
<event>
 8    1  0.1086235E+005  0.1043930E+01  0.7957747E-01            NaN
         13   -1    0    0    0    0  0.00000000000E+00  0.00000000000E+00  0.74505805969E-08  0.10566000000E+00  0.10566000000E+00 0.  1.
     999900   -1    0    0    0    0 -0.00000000000E+00 -0.00000000000E+00 -0.74505805969E-08  0.93827000000E+00  0.93827000000E+00 0. -1.
     999902    2    1    2    0    0 -0.11416893672E-01 -0.18971722325E-01  0.86162804256E-02  0.10201705388E+01  0.10198938259E+01 0.  0.
     999903    2    3    3    0    0  0.87986865302E-01 -0.93808938598E-01 -0.17883848387E-01  0.13102264722E+00  0.17472739478E-01 0.  0.
         14    1    1    2    0    0  0.11416893672E-01  0.18971722325E-01 -0.86162804256E-02  0.23759461220E-01  0.00000000000E+00 0. -1.
     999901    1    3    3    0    0 -0.99403758975E-01  0.74837216273E-01  0.26500128812E-01  0.88914789156E+00  0.88000000000E+00 0.  1.
        -11    1    4    4    0    0  0.38943082208E-01 -0.48449830813E-01 -0.12413547170E-02  0.62175170608E-01  0.51100000000E-03 0.  1.
         11    1    4    4    0    0  0.49043783094E-01 -0.45359107785E-01 -0.16642493670E-01  0.68847476612E-01  0.51100000000E-03 0. -1.
</event>
<event>
 8    1  0.1086235E+005  0.1043930E+01  0.7957747E-01            NaN
         13   -1    0    0    0    0  0.00000000000E+00  0.00000000000E+00  0.74505805969E-08  0.10566000000E+00  0.10566000000E+00 0. -1.
     999900   -1    0    0    0    0 -0.00000000000E+00 -0.00000000000E+00 -0.74505805969E-08  0.93827000000E+00  0.93827000000E+00 0. -1.
     999902    2    1    2    0    0  0.24714280903E-01 -0.80889616519E-02  0.22224460794E-02  0.10178308382E+01  0.10174961665E+01 0.  0.
     999903    2    3    3    0    0 -0.11473856630E+00 -0.46880563622E-01 -0.10341661463E-01  0.12591730999E+00  0.19633979498E-01 0.  0.
         14    1    1    2    0    0 -0.24714280903E-01  0.80889616519E-02 -0.22224460794E-02  0.26099161820E-01  0.00000000000E+00 0.  1.
     999901    1    3    3    0    0  0.13945284720E+00  0.38791601970E-01  0.12564107542E-01  0.89191352819E+00  0.88000000000E+00 0.  1.
        -11    1    4    4    0    0 -0.35726421140E-01 -0.73295486263E-02 -0.89065753592E-02  0.37545807438E-01  0.51100000000E-03 0. -1.
         11    1    4    4    0    0 -0.79012145157E-01 -0.39551014995E-01 -0.14350861035E-02  0.88371502548E-01  0.51100000000E-03 0.  1.
</event>
<event>
 8    1  0.1086235E+005  0.1043930E+01  0.7957747E-01            NaN
         13   -1    0    0    0    0  0.00000000000E+00  0.00000000000E+00  0.74505805969E-08  0.10566000000E+00  0.10566000000E+00 0.  1.
     999900   -1    0    0    0    0 -0.00000000000E+00 -0.00000000000E+00 -0.74505805969E-08  0.93827000000E+00  0.93827000000E+00 0.  1.
     999902    2    1    2    0    0  0.15344026283E-02 -0.21125522763E-01 -0.73751155476E-02  0.10215015709E+01  0.10212553182E+01 0.  0.
     999903    2    3    3    0    0  0.52415172544E-01 -0.10248176526E+00  0.64229622773E-01  0.13339407204E+00  0.20461463537E-01 0.  0.
         14    1    1    2    0    0 -0.15344026283E-02  0.21125522763E-01  0.73751155476E-02  0.22428429119E-01  0.00000000000E+00 0.  1.
     999901    1    3    3    0    0 -0.50880769916E-01  0.81356242502E-01 -0.71604738321E-01  0.88810749884E+00  0.88000000000E+00 0.  1.
        -11    1    4    4    0    0  0.24306863466E-02 -0.14282364746E-01  0.14388660307E-01  0.20425201230E-01  0.51100000000E-03 0. -1.
         11    1    4    4    0    0  0.49984486197E-01 -0.88199400519E-01  0.49840962466E-01  0.11296887081E+00  0.51100000000E-03 0.  1.
</event>
<event>
 8    1  0.1086235E+005  0.1043930E+01  0.7957747E-01            NaN
         13   -1    0    0    0    0  0.00000000000E+00  0.00000000000E+00  0.74505805969E-08  0.10566000000E+00  0.10566000000E+00 0. -1.
     999900   -1    0    0    0    0 -0.00000000000E+00 -0.00000000000E+00 -0.74505805969E-08  0.93827000000E+00  0.93827000000E+00 0. -1.
     999902    2    1    2    0    0  0.21547374681E-01  0.13560800761E-02  0.82501682209E-02  0.10208173718E+01  0.10205556883E+01 0.  0.
     999903    2    3    3    0    0 -0.83849096915E-02 -0.58470559866E-01 -0.11394100752E+00  0.12985954339E+00  0.19794815826E-01 0.  0.
         14    1    1    2    0    0 -0.21547374681E-01 -0.13560800761E-02 -0.82501682209E-02  0.23112628247E-01  0.00000000000E+00 0. -1.
     999901    1    3    3    0    0  0.29932284372E-01  0.59826639942E-01  0.12219117574E+00  0.89095782836E+00  0.88000000000E+00 0.  1.
        -11    1    4    4    0    0 -0.12469790006E-01 -0.49455223710E-01 -0.83501141312E-01  0.97846903561E-01  0.51100000000E-03 0.  1.
         11    1    4    4    0    0  0.40848803144E-02 -0.90153361557E-02 -0.30439866206E-01  0.32012639829E-01  0.51100000000E-03 0. -1.
</event>
<event>
 8    1  0.1086235E+005  0.1043930E+01  0.7957747E-01            NaN
         13   -1    0    0    0    0  0.00000000000E+00  0.00000000000E+00  0.74505805969E-08  0.10566000000E+00  0.10566000000E+00 0.  1.
     999900   -1    0    0    0    0 -0.00000000000E+00 -0.00000000000E+00 -0.74505805969E-08  0.93827000000E+00  0.93827000000E+00 0.  1.
     999902    2    1    2    0    0 -0.12556927733E-01  0.20183441198E-01 -0.93334685587E-03  0.10201409506E+01  0.10198635400E+01 0.  0.
     999903    2    3    3    0    0 -0.89923568319E-01 -0.22141202885E-01  0.90577335184E-01  0.13101150141E+00  0.19577508746E-01 0.  0.
         14    1    1    2    0    0  0.12556927733E-01 -0.20183441198E-01  0.93334685587E-03  0.23789049351E-01  0.00000000000E+00 0. -1.
     999901    1    3    3    0    0  0.77366640587E-01  0.42324644083E-01 -0.91510682040E-01  0.88912944924E+00  0.88000000000E+00 0.  1.
        -11    1    4    4    0    0 -0.67304690215E-01 -0.12618729041E-01  0.76667194659E-01  0.10279724464E+00  0.51100000000E-03 0.  1.
         11    1    4    4    0    0 -0.22618878104E-01 -0.95224738439E-02  0.13910140525E-01  0.28214256773E-01  0.51100000000E-03 0. -1.
</event>
<event>
 8    1  0.1086235E+005  0.1043930E+01  0.7957747E-01            NaN
         13   -1    0    0    0    0  0.00000000000E+00  0.00000000000E+00  0.74505805969E-08  0.10566000000E+00  0.10566000000E+00 0. -1.
     999900   -1    0    0    0    0 -0.00000000000E+00 -0.00000000000E+00 -0.74505805969E-08  0.93827000000E+00  0.93827000000E+00 0. -1.
     999902    2    1    2    0    0  0.65307353796E-02 -0.21696670673E-01 -0.97320570376E-02  0.10192701347E+01  0.10189717849E+01 0.  0.
     999903    2    3    3    0    0  0.11527376166E+00 -0.63072491245E-02  0.55618562182E-01  0.13003867804E+00  0.22109088852E-01 0.  0.
         14    1    1    2    0    0 -0.65307353796E-02  0.21696670673E-01  0.97320570376E-02  0.24659865310E-01  0.00000000000E+00 0. -1.
     999901    1    3    3    0    0 -0.10874302628E+00 -0.15389421549E-01 -0.65350619220E-01  0.88923145665E+00  0.88000000000E+00 0.  1.
        -11    1    4    4    0    0  0.61434849036E-01  0.81438120010E-03  0.40758614886E-01  0.73732148357E-01  0.51100000000E-03 0.  1.
         11    1    4    4    0    0  0.53838912620E-01 -0.71216303246E-02  0.14859947295E-01  0.56306529686E-01  0.51100000000E-03 0. -1.
</event>
<event>
 8    1  0.1086235E+005  0.1043930E+01  0.7957747E-01            NaN
         13   -1    0    0    0    0  0.00000000000E+00  0.00000000000E+00  0.74505805969E-08  0.10566000000E+00  0.10566000000E+00 0. -1.
     999900   -1    0    0    0    0 -0.00000000000E+00 -0.00000000000E+00 -0.74505805969E-08  0.93827000000E+00  0.93827000000E+00 0.  1.
     999902    2    1    2    0    0  0.13708812093E-01 -0.19040289014E-02  0.18221227502E-01  0.10210483483E+01  0.10207919276E+01 0.  0.
     999903    2    3    3    0    0  0.80524116429E-01 -0.62830435601E-02  0.10526891378E+00  0.13422211930E+00  0.20258902696E-01 0.  0.
         14    1    1    2    0    0 -0.13708812093E-01  0.19040289014E-02 -0.18221227502E-01  0.22881651749E-01  0.00000000000E+00 0.  1.
     999901    1    3    3    0    0 -0.66815304336E-01  0.43790146588E-02 -0.87047686280E-01  0.88682622895E+00  0.88000000000E+00 0.  1.
        -11    1    4    4    0    0  0.52570970973E-01 -0.99325150670E-02  0.55963498450E-01  0.77424389725E-01  0.51100000000E-03 0. -1.
         11    1    4    4    0    0  0.27953145457E-01  0.36494715068E-02  0.49305415332E-01  0.56797729579E-01  0.51100000000E-03 0.  1.
</event>
<event>
 8    1  0.1086235E+005  0.1043930E+01  0.7957747E-01            NaN
         13   -1    0    0    0    0  0.00000000000E+00  0.00000000000E+00  0.74505805969E-08  0.10566000000E+00  0.10566000000E+00 0.  1.
     999900   -1    0    0    0    0 -0.00000000000E+00 -0.00000000000E+00 -0.74505805969E-08  0.93827000000E+00  0.93827000000E+00 0. -1.
     999902    2    1    2    0    0 -0.20403822963E-01 -0.10543960720E-01  0.47480426653E-02  0.10204771748E+01  0.10202076403E+01 0.  0.
     999903    2    3    3    0    0 -0.35700184994E-01  0.11731443964E+00 -0.40019512648E-01  0.12997962669E+00  0.15998781420E-01 0.  0.
         14    1    1    2    0    0  0.20403822963E-01  0.10543960720E-01 -0.47480426653E-02  0.23452825167E-01  0.00000000000E+00 0.  1.
     999901    1    3    3    0    0  0.15296362031E-01 -0.12785840036E+00  0.44767555313E-01  0.89049754814E+00  0.88000000000E+00 0.  1.
        -11    1    4    4    0    0 -0.17094165409E-01  0.81589023525E-01 -0.28073570516E-01  0.87962297227E-01  0.51100000000E-03 0. -1.
         11    1    4    4    0    0 -0.18606019585E-01  0.35725416111E-01 -0.11945942132E-01  0.42017329467E-01  0.51100000000E-03 0.  1.
</event>
<event>
 8    1  0.1086235E+005  0.1043930E+01  0.7957747E-01            NaN
         13   -1    0    0    0    0  0.00000000000E+00  0.00000000000E+00  0.74505805969E-08  0.10566000000E+00  0.10566000000E+00 0.  1.
     999900   -1    0    0    0    0 -0.00000000000E+00 -0.00000000000E+00 -0.74505805969E-08  0.93827000000E+00  0.93827000000E+00 0. -1.
     999902    2    1    2    0    0  0.11797299197E-01  0.55239902574E-02  0.18291609273E-01  0.10214739606E+01  0.10212270944E+01 0.  0.
     999903    2    3    3    0    0  0.43826926263E-01  0.77450169558E-01  0.98587690033E-01  0.13431741697E+00  0.20057608173E-01 0.  0.
         14    1    1    2    0    0 -0.11797299197E-01 -0.55239902574E-02 -0.18291609273E-01  0.22456039422E-01  0.00000000000E+00 0. -1.
     999901    1    3    3    0    0 -0.32029627066E-01 -0.71926179301E-01 -0.80296080760E-01  0.88715654361E+00  0.88000000000E+00 0. -1.
        -11    1    4    4    0    0  0.46744567038E-02  0.10411033633E-01  0.24362767009E-01  0.26908097371E-01  0.51100000000E-03 0.  1.
         11    1    4    4    0    0  0.39152469559E-01  0.67039135925E-01  0.74224923024E-01  0.10740931960E+00  0.51100000000E-03 0. -1.
</event>
<event>
 8    1  0.1086235E+005  0.1043930E+01  0.7957747E-01            NaN
         13   -1    0    0    0    0  0.00000000000E+00  0.00000000000E+00  0.74505805969E-08  0.10566000000E+00  0.10566000000E+00 0. -1.
     999900   -1    0    0    0    0 -0.00000000000E+00 -0.00000000000E+00 -0.74505805969E-08  0.93827000000E+00  0.93827000000E+00 0.  1.
     999902    2    1    2    0    0  0.23057073917E-02 -0.34499527717E-02  0.23355724859E-01  0.10202085257E+01  0.10199327073E+01 0.  0.
     999903    2    3    3    0    0  0.50627642509E-01  0.83497968586E-01  0.87597323537E-01  0.13227725950E+00  0.16997451157E-01 0.  0.
         14    1    1    2    0    0 -0.23057073917E-02  0.34499527717E-02 -0.23355724859E-01  0.23721474330E-01  0.00000000000E+00 0.  1.
     999901    1    3    3    0    0 -0.48321935117E-01 -0.86947921357E-01 -0.64241598678E-01  0.88793126617E+00  0.88000000000E+00 0.  1.
        -11    1    4    4    0    0  0.12561188987E-02  0.12867223037E-01  0.11322834635E-01  0.17193340820E-01  0.51100000000E-03 0.  1.
         11    1    4    4    0    0  0.49371523610E-01  0.70630745548E-01  0.76274488903E-01  0.11508391868E+00  0.51100000000E-03 0. -1.
</event>
<event>
 8    1  0.1086235E+005  0.1043930E+01  0.7957747E-01            NaN
         13   -1    0    0    0    0  0.00000000000E+00  0.00000000000E+00  0.74505805969E-08  0.10566000000E+00  0.10566000000E+00 0.  1.
     999900   -1    0    0    0    0 -0.00000000000E+00 -0.00000000000E+00 -0.74505805969E-08  0.93827000000E+00  0.93827000000E+00 0.  1.
     999902    2    1    2    0    0 -0.84343255879E-02  0.15352427427E-01  0.16332399687E-01  0.10199804247E+01  0.10196992128E+01 0.  0.
     999903    2    3    3    0    0  0.49222213045E-01 -0.90191435278E-01  0.75361165787E-01  0.12984100945E+00  0.24941154197E-01 0.  0.
         14    1    1    2    0    0  0.84343255879E-02 -0.15352427427E-01 -0.16332399687E-01  0.23949575269E-01  0.00000000000E+00 0. -1.
     999901    1    3    3    0    0 -0.57656538633E-01  0.10554386271E+00 -0.59028766100E-01  0.89013941528E+00  0.88000000000E+00 0.  1.
        -11    1    4    4    0    0  0.13476602770E-01 -0.39391372025E-01  0.18254459159E-01  0.45461911667E-01  0.51100000000E-03 0. -1.
         11    1    4    4    0    0  0.35745610274E-01 -0.50800063253E-01  0.57106706628E-01  0.84379097787E-01  0.51100000000E-03 0.  1.
</event>
<event>
 8    1  0.1086235E+005  0.1043930E+01  0.7957747E-01            NaN
         13   -1    0    0    0    0  0.00000000000E+00  0.00000000000E+00  0.74505805969E-08  0.10566000000E+00  0.10566000000E+00 0. -1.
     999900   -1    0    0    0    0 -0.00000000000E+00 -0.00000000000E+00 -0.74505805969E-08  0.93827000000E+00  0.93827000000E+00 0. -1.
     999902    2    1    2    0    0 -0.14720449064E-01  0.16500866581E-02  0.18117597767E-01  0.10205278258E+01  0.10202594678E+01 0.  0.
     999903    2    3    3    0    0  0.12187547584E+00 -0.34326278331E-01 -0.11852915855E-01  0.12875937090E+00  0.20163307889E-01 0.  0.
         14    1    1    2    0    0  0.14720449064E-01 -0.16500866581E-02 -0.18117597767E-01  0.23402174161E-01  0.00000000000E+00 0.  1.
     999901    1    3    3    0    0 -0.13659592490E+00  0.35976364989E-01  0.29970513622E-01  0.89176845494E+00  0.88000000000E+00 0. -1.
        -11    1    4    4    0    0  0.43474002837E-01 -0.30528541677E-02 -0.48183992087E-03  0.43586719674E-01  0.51100000000E-03 0. -1.
         11    1    4    4    0    0  0.78401473003E-01 -0.31273424163E-01 -0.11371075935E-01  0.85172651226E-01  0.51100000000E-03 0.  1.
</event>
<event>
 8    1  0.1086235E+005  0.1043930E+01  0.7957747E-01            NaN
         13   -1    0    0    0    0  0.00000000000E+00  0.00000000000E+00  0.74505805969E-08  0.10566000000E+00  0.10566000000E+00 0. -1.
     999900   -1    0    0    0    0 -0.00000000000E+00 -0.00000000000E+00 -0.74505805969E-08  0.93827000000E+00  0.93827000000E+00 0. -1.
     999902    2    1    2    0    0  0.62541900021E-02 -0.23267414584E-01  0.17800633637E-02  0.10197710245E+01  0.10194848141E+01 0.  0.
     999903    2    3    3    0    0  0.33588093493E-01  0.51825267954E-01  0.11259598545E+00  0.12922836863E+00  0.14425563974E-01 0.  0.
         14    1    1    2    0    0 -0.62541900021E-02  0.23267414584E-01 -0.17800633637E-02  0.24158975549E-01  0.00000000000E+00 0. -1.
     999901    1    3    3    0    0 -0.27333903491E-01 -0.75092682538E-01 -0.11081592209E+00  0.89054265582E+00  0.88000000000E+00 0. -1.
        -11    1    4    4    0    0  0.96242583672E-02  0.20121071255E-01  0.28335446750E-01  0.36064421818E-01  0.51100000000E-03 0.  1.
         11    1    4    4    0    0  0.23963835126E-01  0.31704196699E-01  0.84260538700E-01  0.93163946811E-01  0.51100000000E-03 0. -1.
</event>
<event>
 8    1  0.1086235E+005  0.1043930E+01  0.7957747E-01            NaN
         13   -1    0    0    0    0  0.00000000000E+00  0.00000000000E+00  0.74505805969E-08  0.10566000000E+00  0.10566000000E+00 0.  1.
     999900   -1    0    0    0    0 -0.00000000000E+00 -0.00000000000E+00 -0.74505805969E-08  0.93827000000E+00  0.93827000000E+00 0.  1.
     999902    2    1    2    0    0  0.17433322900E-01 -0.11363931483E-01 -0.11345500384E-01  0.10202281000E+01  0.10199527420E+01 0.  0.
     999903    2    3    3    0    0 -0.45167443916E-02  0.71321898874E-01 -0.10768589825E+00  0.13084616612E+00  0.20426753737E-01 0.  0.
         14    1    1    2    0    0 -0.17433322900E-01  0.11363931483E-01  0.11345500384E-01  0.23701900030E-01  0.00000000000E+00 0.  1.
     999901    1    3    3    0    0  0.21950067291E-01 -0.82685830357E-01  0.96340397864E-01  0.88938193385E+00  0.88000000000E+00 0. -1.
        -11    1    4    4    0    0 -0.12574925693E-01  0.40314271404E-01 -0.58795864135E-01  0.72391877965E-01  0.51100000000E-03 0. -1.
         11    1    4    4    0    0  0.80581813011E-02  0.31007627470E-01 -0.48890034113E-01  0.58454288156E-01  0.51100000000E-03 0.  1.
</event>
<event>
 8    1  0.1086235E+005  0.1043930E+01  0.7957747E-01            NaN
         13   -1    0    0    0    0  0.00000000000E+00  0.00000000000E+00  0.74505805969E-08  0.10566000000E+00  0.10566000000E+00 0. -1.
     999900   -1    0    0    0    0 -0.00000000000E+00 -0.00000000000E+00 -0.74505805969E-08  0.93827000000E+00  0.93827000000E+00 0.  1.
     999902    2    1    2    0    0 -0.28914759306E-02 -0.21531926607E-01  0.89062616637E-02  0.10204500938E+01  0.10201799292E+01 0.  0.
     999903    2    3    3    0    0 -0.10098779849E-01  0.68313558799E-02  0.12957510506E+00  0.13173338375E+00  0.20379493770E-01 0.  0.
         14    1    1    2    0    0  0.28914759306E-02  0.21531926607E-01 -0.89062616637E-02  0.23479906160E-01  0.00000000000E+00 0.  1.
     999901    1    3    3    0    0  0.72073039180E-02 -0.28363282487E-01 -0.12066884339E+00  0.88871671009E+00  0.88000000000E+00 0.  1.
        -11    1    4    4    0    0 -0.14076100952E-01  0.89065504439E-02  0.68752345848E-01  0.70743264269E-01  0.51100000000E-03 0. -1.
         11    1    4    4    0    0  0.39773211030E-02 -0.20751945640E-02  0.60822759210E-01  0.60990119483E-01  0.51100000000E-03 0.  1.
</event>
<event>
 8    1  0.1086235E+005  0.1043930E+01  0.7957747E-01            NaN
         13   -1    0    0    0    0  0.00000000000E+00  0.00000000000E+00  0.74505805969E-08  0.10566000000E+00  0.10566000000E+00 0.  1.
     999900   -1    0    0    0    0 -0.00000000000E+00 -0.00000000000E+00 -0.74505805969E-08  0.93827000000E+00  0.93827000000E+00 0.  1.
     999902    2    1    2    0    0 -0.21269516242E-01 -0.78063897956E-02 -0.66917488638E-02  0.10203056154E+01  0.10200320766E+01 0.  0.
     999903    2    3    3    0    0 -0.49914018006E-01  0.58727376783E-01  0.10345044200E+00  0.13048622265E+00  0.19604753904E-01 0.  0.
         14    1    1    2    0    0  0.21269516242E-01  0.78063897956E-02  0.66917488638E-02  0.23624384556E-01  0.00000000000E+00 0.  1.
     999901    1    3    3    0    0  0.28644501764E-01 -0.66533766578E-01 -0.11014219086E+00  0.88981939279E+00  0.88000000000E+00 0.  1.
        -11    1    4    4    0    0 -0.23611669840E-01  0.39731888027E-01  0.51172371506E-01  0.68956555927E-01  0.51100000000E-03 0.  1.
         11    1    4    4    0    0 -0.26302348167E-01  0.18995488756E-01  0.52278070492E-01  0.61529666727E-01  0.51100000000E-03 0. -1.
</event>
<event>
 8    1  0.1086235E+005  0.1043930E+01  0.7957747E-01            NaN
         13   -1    0    0    0    0  0.00000000000E+00  0.00000000000E+00  0.74505805969E-08  0.10566000000E+00  0.10566000000E+00 0.  1.
     999900   -1    0    0    0    0 -0.00000000000E+00 -0.00000000000E+00 -0.74505805969E-08  0.93827000000E+00  0.93827000000E+00 0.  1.
     999902    2    1    2    0    0 -0.84905228951E-02 -0.12879649240E-01 -0.18113353730E-01  0.10201378179E+01  0.10198603334E+01 0.  0.
     999903    2    3    3    0    0  0.82718948375E-01  0.96493697582E-01 -0.67324566922E-02  0.12861596097E+00  0.18527853367E-01 0.  0.
         14    1    1    2    0    0  0.84905228951E-02  0.12879649240E-01  0.18113353730E-01  0.23792182054E-01  0.00000000000E+00 0.  1.
     999901    1    3    3    0    0 -0.91209471270E-01 -0.10937334682E+00 -0.11380897037E-01  0.89152185697E+00  0.88000000000E+00 0. -1.
        -11    1    4    4    0    0  0.19995355858E-01  0.19162646824E-01  0.56706639496E-02  0.28274349502E-01  0.51100000000E-03 0. -1.
         11    1    4    4    0    0  0.62723592517E-01  0.77331050759E-01 -0.12403120642E-01  0.10034161147E+00  0.51100000000E-03 0.  1.
</event>
<event>
 8    1  0.1086235E+005  0.1043930E+01  0.7957747E-01            NaN
         13   -1    0    0    0    0  0.00000000000E+00  0.00000000000E+00  0.74505805969E-08  0.10566000000E+00  0.10566000000E+00 0.  1.
     999900   -1    0    0    0    0 -0.00000000000E+00 -0.00000000000E+00 -0.74505805969E-08  0.93827000000E+00  0.93827000000E+00 0.  1.
     999902    2    1    2    0    0  0.58198085910E-02 -0.21452827004E-01 -0.83460159071E-02  0.10201865811E+01  0.10199102462E+01 0.  0.
     999903    2    3    3    0    0  0.92431944906E-01 -0.80933506545E-01 -0.47150059383E-01  0.13308716889E+00  0.19878870738E-01 0.  0.
         14    1    1    2    0    0 -0.58198085910E-02  0.21452827004E-01  0.83460159071E-02  0.23743418879E-01  0.00000000000E+00 0.  1.
     999901    1    3    3    0    0 -0.86612136315E-01  0.59480679541E-01  0.38804043475E-01  0.88709941223E+00  0.88000000000E+00 0.  1.
        -11    1    4    4    0    0  0.38463715832E-01 -0.38092727079E-01 -0.10885832511E-01  0.55220247757E-01  0.51100000000E-03 0. -1.
         11    1    4    4    0    0  0.53968229074E-01 -0.42840779466E-01 -0.36264226872E-01  0.77866921130E-01  0.51100000000E-03 0.  1.
</event>
<event>
 8    1  0.1086235E+005  0.1043930E+01  0.7957747E-01            NaN
         13   -1    0    0    0    0  0.00000000000E+00  0.00000000000E+00  0.74505805969E-08  0.10566000000E+00  0.10566000000E+00 0. -1.
     999900   -1    0    0    0    0 -0.00000000000E+00 -0.00000000000E+00 -0.74505805969E-08  0.93827000000E+00  0.93827000000E+00 0. -1.
     999902    2    1    2    0    0 -0.21131345987E-02 -0.18206090309E-01 -0.15015435289E-01  0.10202363224E+01  0.10199611577E+01 0.  0.
     999903    2    3    3    0    0 -0.27826466977E-01  0.50805128418E-01 -0.11620690312E+00  0.13138119530E+00  0.20037485059E-01 0.  0.
         14    1    1    2    0    0  0.21131345987E-02  0.18206090309E-01  0.15015435289E-01  0.23693677619E-01  0.00000000000E+00 0. -1.
     999901    1    3    3    0    0  0.25713332378E-01 -0.69011218727E-01  0.10119146783E+00  0.88885512708E+00  0.88000000000E+00 0.  1.
        -11    1    4    4    0    0 -0.26233248383E-01  0.46276975998E-01 -0.88510058088E-01  0.10326680654E+00  0.51100000000E-03 0.  1.
         11    1    4    4    0    0 -0.15932185937E-02  0.45281524202E-02 -0.27696845035E-01  0.28114388767E-01  0.51100000000E-03 0. -1.
</event>
<event>
 8    1  0.1086235E+005  0.1043930E+01  0.7957747E-01            NaN
         13   -1    0    0    0    0  0.00000000000E+00  0.00000000000E+00  0.74505805969E-08  0.10566000000E+00  0.10566000000E+00 0.  1.
     999900   -1    0    0    0    0 -0.00000000000E+00 -0.00000000000E+00 -0.74505805969E-08  0.93827000000E+00  0.93827000000E+00 0.  1.
     999902    2    1    2    0    0 -0.11123637207E-01 -0.11188418256E-01 -0.76350382374E-03  0.10281344644E+01  0.10280131215E+01 0.  0.
     999903    2    3    3    0    0  0.97561879248E-01  0.27325405364E-01  0.88749555683E-01  0.13610955221E+00  0.19604298181E-01 0.  0.
         14    1    1    2    0    0  0.11123637207E-01  0.11188418256E-01  0.76350382374E-03  0.15795535631E-01  0.00000000000E+00 0.  1.
     999901    1    3    3    0    0 -0.10868551646E+00 -0.38513823620E-01 -0.89513059506E-01  0.89202491216E+00  0.88000000000E+00 0.  1.
        -11    1    4    4    0    0  0.33160506166E-01  0.24644205369E-02  0.37556976958E-01  0.50164531065E-01  0.51100000000E-03 0.  1.
         11    1    4    4    0    0  0.64401373082E-01  0.24860984827E-01  0.51192578724E-01  0.85945021141E-01  0.51100000000E-03 0. -1.
</event>
<event>
 8    1  0.1086235E+005  0.1043930E+01  0.7957747E-01            NaN
         13   -1    0    0    0    0  0.00000000000E+00  0.00000000000E+00  0.74505805969E-08  0.10566000000E+00  0.10566000000E+00 0. -1.
     999900   -1    0    0    0    0 -0.00000000000E+00 -0.00000000000E+00 -0.74505805969E-08  0.93827000000E+00  0.93827000000E+00 0. -1.
     999902    2    1    2    0    0  0.16897578508E-02 -0.15480744227E-01 -0.17482078741E-01  0.10205177852E+01  0.10202491942E+01 0.  0.
     999903    2    3    3    0    0  0.19564964705E-01 -0.12917775645E+00 -0.14457912650E-01  0.13301810681E+00  0.20374123169E-01 0.  0.
         14    1    1    2    0    0 -0.16897578508E-02  0.15480744227E-01  0.17482078741E-01  0.23412214772E-01  0.00000000000E+00 0. -1.
     999901    1    3    3    0    0 -0.17875206854E-01  0.11369701223E+00 -0.30241660910E-02  0.88749967842E+00  0.88000000000E+00 0. -1.
        -11    1    4    4    0    0 -0.12408981923E-02 -0.54488924162E-01 -0.94842630003E-02  0.55324452553E-01  0.51100000000E-03 0.  1.
         11    1    4    4    0    0  0.20805862897E-01 -0.74688832293E-01 -0.49736496497E-02  0.77693654258E-01  0.51100000000E-03 0. -1.
</event>
<event>
 8    1  0.1086235E+005  0.1043930E+01  0.7957747E-01            NaN
         13   -1    0    0    0    0  0.00000000000E+00  0.00000000000E+00  0.74505805969E-08  0.10566000000E+00  0.10566000000E+00 0. -1.
     999900   -1    0    0    0    0 -0.00000000000E+00 -0.00000000000E+00 -0.74505805969E-08  0.93827000000E+00  0.93827000000E+00 0.  1.
     999902    2    1    2    0    0  0.52173296461E-02  0.80235462797E-02 -0.22162339758E-01  0.10197894299E+01  0.10195036607E+01 0.  0.
     999903    2    3    3    0    0 -0.46491002097E-01 -0.96777953334E-01  0.66221037707E-01  0.12767467977E+00  0.19703108722E-01 0.  0.
         14    1    1    2    0    0 -0.52173296461E-02 -0.80235462797E-02  0.22162339758E-01  0.24140570148E-01  0.00000000000E+00 0. -1.
     999901    1    3    3    0    0  0.51708331743E-01  0.10480149961E+00 -0.88383377464E-01  0.89211475008E+00  0.88000000000E+00 0. -1.
        -11    1    4    4    0    0 -0.22282039854E-01 -0.25878071378E-01  0.23088156021E-01  0.41224846243E-01  0.51100000000E-03 0. -1.
         11    1    4    4    0    0 -0.24208962242E-01 -0.70899881956E-01  0.43132881685E-01  0.86449833532E-01  0.51100000000E-03 0.  1.
</event>
<event>
 8    1  0.1086235E+005  0.1043930E+01  0.7957747E-01            NaN
         13   -1    0    0    0    0  0.00000000000E+00  0.00000000000E+00  0.74505805969E-08  0.10566000000E+00  0.10566000000E+00 0. -1.
     999900   -1    0    0    0    0 -0.00000000000E+00 -0.00000000000E+00 -0.74505805969E-08  0.93827000000E+00  0.93827000000E+00 0. -1.
     999902    2    1    2    0    0  0.20311321375E-01 -0.66044115741E-02  0.21171617689E-01  0.10138566659E+01  0.10134105454E+01 0.  0.
     999903    2    3    3    0    0 -0.69382685831E-01 -0.65864506514E-01 -0.73518924653E-01  0.12227208069E+00  0.19832778979E-01 0.  0.
         14    1    1    2    0    0 -0.20311321375E-01  0.66044115741E-02 -0.21171617689E-01  0.30073334099E-01  0.00000000000E+00 0.  1.
     999901    1    3    3    0    0  0.89694007207E-01  0.59260094940E-01  0.94690542342E-01  0.89158458521E+00  0.88000000000E+00 0.  1.
        -11    1    4    4    0    0 -0.36139342330E-01 -0.22547209296E-01 -0.26159417350E-01  0.49990048492E-01  0.51100000000E-03 0. -1.
         11    1    4    4    0    0 -0.33243343501E-01 -0.43317297218E-01 -0.47359507303E-01  0.72282032196E-01  0.51100000000E-03 0.  1.
</event>
<event>
 8    1  0.1086235E+005  0.1043930E+01  0.7957747E-01            NaN
         13   -1    0    0    0    0  0.00000000000E+00  0.00000000000E+00  0.74505805969E-08  0.10566000000E+00  0.10566000000E+00 0. -1.
     999900   -1    0    0    0    0 -0.00000000000E+00 -0.00000000000E+00 -0.74505805969E-08  0.93827000000E+00  0.93827000000E+00 0.  1.
     999902    2    1    2    0    0 -0.17244555738E-01 -0.15743356006E-02 -0.15155686972E-01  0.10209180882E+01  0.10206587063E+01 0.  0.
     999903    2    3    3    0    0  0.14475921373E-01 -0.11608422920E+00  0.53639887266E-01  0.13027139317E+00  0.20206380317E-01 0.  0.
         14    1    1    2    0    0  0.17244555738E-01  0.15743356006E-02  0.15155686972E-01  0.23011911759E-01  0.00000000000E+00 0. -1.
     999901    1    3    3    0    0 -0.31720477111E-01  0.11450989360E+00 -0.68795574238E-01  0.89064669507E+00  0.88000000000E+00 0.  1.
        -11    1    4    4    0    0  0.16811602260E-01 -0.82961143843E-01  0.31314495125E-01  0.90255415816E-01  0.51100000000E-03 0. -1.
         11    1    4    4    0    0 -0.23356808868E-02 -0.33123085355E-01  0.22325392140E-01  0.40015977357E-01  0.51100000000E-03 0.  1.
</event>
<event>
 8    1  0.1086235E+005  0.1043930E+01  0.7957747E-01            NaN
         13   -1    0    0    0    0  0.00000000000E+00  0.00000000000E+00  0.74505805969E-08  0.10566000000E+00  0.10566000000E+00 0. -1.
     999900   -1    0    0    0    0 -0.00000000000E+00 -0.00000000000E+00 -0.74505805969E-08  0.93827000000E+00  0.93827000000E+00 0. -1.
     999902    2    1    2    0    0 -0.14689754745E-01  0.11455423390E-01 -0.14117613192E-01  0.10205564547E+01  0.10202887604E+01 0.  0.
     999903    2    3    3    0    0  0.39005127661E-01 -0.27305418503E-01 -0.12099681652E+00  0.13161961362E+00  0.20408508454E-01 0.  0.
         14    1    1    2    0    0  0.14689754745E-01 -0.11455423390E-01  0.14117613192E-01  0.23373545340E-01  0.00000000000E+00 0. -1.
     999901    1    3    3    0    0 -0.53694882406E-01  0.38760841893E-01  0.10687920333E+00  0.88893684104E+00  0.88000000000E+00 0.  1.
        -11    1    4    4    0    0  0.20125801657E-01 -0.35656921220E-02 -0.61937642504E-01  0.65224954830E-01  0.51100000000E-03 0. -1.
         11    1    4    4    0    0  0.18879326004E-01 -0.23739726381E-01 -0.59059174015E-01  0.66394658786E-01  0.51100000000E-03 0.  1.
</event>
<event>
 8    1  0.1086235E+005  0.1043930E+01  0.7957747E-01            NaN
         13   -1    0    0    0    0  0.00000000000E+00  0.00000000000E+00  0.74505805969E-08  0.10566000000E+00  0.10566000000E+00 0.  1.
     999900   -1    0    0    0    0 -0.00000000000E+00 -0.00000000000E+00 -0.74505805969E-08  0.93827000000E+00  0.93827000000E+00 0. -1.
     999902    2    1    2    0    0 -0.34432211769E-02  0.22959180198E-01  0.16174190698E-04  0.10207140574E+01  0.10204500022E+01 0.  0.
     999903    2    3    3    0    0  0.12595029661E+00 -0.24665970367E-01  0.59855266593E-02  0.12995793448E+00  0.19528207667E-01 0.  0.
         14    1    1    2    0    0  0.34432211769E-02 -0.22959180198E-01 -0.16174190698E-04  0.23215942562E-01  0.00000000000E+00 0.  1.
     999901    1    3    3    0    0 -0.12939351779E+00  0.47625150565E-01 -0.59693524686E-02  0.89075612295E+00  0.88000000000E+00 0. -1.
        -11    1    4    4    0    0  0.10585260705E+00 -0.26682210827E-01  0.89737657105E-02  0.10953312004E+00  0.51100000000E-03 0.  1.
         11    1    4    4    0    0  0.20097689568E-01  0.20162404598E-02 -0.29882390513E-02  0.20424814447E-01  0.51100000000E-03 0. -1.
</event>
<event>
 8    1  0.1086235E+005  0.1043930E+01  0.7957747E-01            NaN
         13   -1    0    0    0    0  0.00000000000E+00  0.00000000000E+00  0.74505805969E-08  0.10566000000E+00  0.10566000000E+00 0.  1.
     999900   -1    0    0    0    0 -0.00000000000E+00 -0.00000000000E+00 -0.74505805969E-08  0.93827000000E+00  0.93827000000E+00 0. -1.
     999902    2    1    2    0    0 -0.54767709346E-02  0.18334588664E-01 -0.15368371452E-01  0.10193874043E+01  0.10190919198E+01 0.  0.
     999903    2    3    3    0    0  0.11332635352E+00 -0.54226434339E-01 -0.18317792528E-01  0.12843960365E+00  0.19437635680E-01 0.  0.
         14    1    1    2    0    0  0.54767709346E-02 -0.18334588664E-01  0.15368371452E-01  0.24542595675E-01  0.00000000000E+00 0.  1.
     999901    1    3    3    0    0 -0.11880312445E+00  0.72561023004E-01  0.29494210762E-02  0.89094780067E+00  0.88000000000E+00 0.  1.
        -11    1    4    4    0    0  0.83382536293E-01 -0.38964572740E-01 -0.21982756601E-01  0.94627628081E-01  0.51100000000E-03 0.  1.
         11    1    4    4    0    0  0.29943817223E-01 -0.15261861599E-01  0.36649640731E-02  0.33811975571E-01  0.51100000000E-03 0. -1.
</event>
<event>
 8    1  0.1086235E+005  0.1043930E+01  0.7957747E-01            NaN
         13   -1    0    0    0    0  0.00000000000E+00  0.00000000000E+00  0.74505805969E-08  0.10566000000E+00  0.10566000000E+00 0.  1.
     999900   -1    0    0    0    0 -0.00000000000E+00 -0.00000000000E+00 -0.74505805969E-08  0.93827000000E+00  0.93827000000E+00 0. -1.
     999902    2    1    2    0    0 -0.12680885333E-01  0.56618930487E-02 -0.18580150440E-01  0.10207333650E+01  0.10204697538E+01 0.  0.
     999903    2    3    3    0    0 -0.93938562851E-01 -0.17907109767E-01  0.86376126235E-01  0.13046704075E+00  0.20388608788E-01 0.  0.
         14    1    1    2    0    0  0.12680885333E-01 -0.56618930487E-02  0.18580150440E-01  0.23196635017E-01  0.00000000000E+00 0.  1.
     999901    1    3    3    0    0  0.81257677518E-01  0.23569002816E-01 -0.10495627667E+00  0.89026632423E+00  0.88000000000E+00 0. -1.
        -11    1    4    4    0    0 -0.66645534421E-01 -0.14686071304E-01  0.48748178438E-01  0.83868670972E-01  0.51100000000E-03 0. -1.
         11    1    4    4    0    0 -0.27293028430E-01 -0.32210384630E-02  0.37627947797E-01  0.46598369779E-01  0.51100000000E-03 0.  1.
</event>
<event>
 8    1  0.1086235E+005  0.1043930E+01  0.7957747E-01            NaN
         13   -1    0    0    0    0  0.00000000000E+00  0.00000000000E+00  0.74505805969E-08  0.10566000000E+00  0.10566000000E+00 0.  1.
     999900   -1    0    0    0    0 -0.00000000000E+00 -0.00000000000E+00 -0.74505805969E-08  0.93827000000E+00  0.93827000000E+00 0. -1.
     999902    2    1    2    0    0 -0.21417947937E-01 -0.10926061959E-01 -0.78238694904E-02  0.10186452169E+01  0.10183313594E+01 0.  0.
     999903    2    3    3    0    0  0.69563403326E-01 -0.23234805157E-01 -0.10368706478E+00  0.12869080027E+00  0.20769964330E-01 0.  0.
         14    1    1    2    0    0  0.21417947937E-01  0.10926061959E-01  0.78238694904E-02  0.25284783123E-01  0.00000000000E+00 0.  1.
     999901    1    3    3    0    0 -0.90981351263E-01  0.12308743198E-01  0.95863195285E-01  0.88995441661E+00  0.88000000000E+00 0.  1.
        -11    1    4    4    0    0  0.26900435726E-01 -0.19293463586E-01 -0.39877465267E-01  0.51829957906E-01  0.51100000000E-03 0. -1.
         11    1    4    4    0    0  0.42662967600E-01 -0.39413415711E-02 -0.63809599508E-01  0.76860842360E-01  0.51100000000E-03 0.  1.
</event>
<event>
 8    1  0.1086235E+005  0.1043930E+01  0.7957747E-01            NaN
         13   -1    0    0    0    0  0.00000000000E+00  0.00000000000E+00  0.74505805969E-08  0.10566000000E+00  0.10566000000E+00 0.  1.
     999900   -1    0    0    0    0 -0.00000000000E+00 -0.00000000000E+00 -0.74505805969E-08  0.93827000000E+00  0.93827000000E+00 0.  1.
     999902    2    1    2    0    0  0.10881630615E-01 -0.27045081477E-02  0.21227635032E-01  0.10199229856E+01  0.10196404072E+01 0.  0.
     999903    2    3    3    0    0  0.18108899790E-01  0.11472530522E+00  0.57199085949E-01  0.13136463654E+00  0.22250941345E-01 0.  0.
         14    1    1    2    0    0 -0.10881630615E-01  0.27045081477E-02 -0.21227635032E-01  0.24007014354E-01  0.00000000000E+00 0. -1.
     999901    1    3    3    0    0 -0.72272691746E-02 -0.11742981336E+00 -0.35971450917E-01  0.88855834911E+00  0.88000000000E+00 0. -1.
        -11    1    4    4    0    0  0.93410457386E-03  0.65157498182E-01  0.38388754084E-01  0.75632861124E-01  0.51100000000E-03 0.  1.
         11    1    4    4    0    0  0.17174795216E-01  0.49567807035E-01  0.18810331865E-01  0.55731775415E-01  0.51100000000E-03 0. -1.
</event>
<event>
 8    1  0.1086235E+005  0.1043930E+01  0.7957747E-01            NaN
         13   -1    0    0    0    0  0.00000000000E+00  0.00000000000E+00  0.74505805969E-08  0.10566000000E+00  0.10566000000E+00 0.  1.
     999900   -1    0    0    0    0 -0.00000000000E+00 -0.00000000000E+00 -0.74505805969E-08  0.93827000000E+00  0.93827000000E+00 0.  1.
     999902    2    1    2    0    0 -0.69500807553E-02  0.23139913682E-01  0.12030291535E-01  0.10169394990E+01  0.10165812597E+01 0.  0.
     999903    2    3    3    0    0 -0.80349377663E-01  0.99375588154E-01 -0.14402630205E-01  0.13020502119E+00  0.20356369402E-01 0.  0.
         14    1    1    2    0    0  0.69500807553E-02 -0.23139913682E-01 -0.12030291535E-01  0.26990500961E-01  0.00000000000E+00 0. -1.
     999901    1    3    3    0    0  0.73399296908E-01 -0.76235674472E-01  0.26432921740E-01  0.88673447785E+00  0.88000000000E+00 0. -1.
        -11    1    4    4    0    0 -0.41353582136E-01  0.65480217148E-01 -0.12890982982E-01  0.78512522291E-01  0.51100000000E-03 0.  1.
         11    1    4    4    0    0 -0.38995795527E-01  0.33895371006E-01 -0.15116472234E-02  0.51692498902E-01  0.51100000000E-03 0. -1.
</event>
<event>
 8    1  0.1086235E+005  0.1043930E+01  0.7957747E-01            NaN
         13   -1    0    0    0    0  0.00000000000E+00  0.00000000000E+00  0.74505805969E-08  0.10566000000E+00  0.10566000000E+00 0. -1.
     999900   -1    0    0    0    0 -0.00000000000E+00 -0.00000000000E+00 -0.74505805969E-08  0.93827000000E+00  0.93827000000E+00 0.  1.
     999902    2    1    2    0    0  0.59252839120E-02 -0.11973857086E-01 -0.17648201801E-01  0.10217953830E+01  0.10215556096E+01 0.  0.
     999903    2    3    3    0    0 -0.11035442250E+00 -0.68579584477E-01 -0.15232694156E-01  0.13233992421E+00  0.20014059980E-01 0.  0.
         14    1    1    2    0    0 -0.59252839120E-02  0.11973857086E-01  0.17648201801E-01  0.22134617001E-01  0.00000000000E+00 0. -1.
     999901    1    3    3    0    0  0.11627970641E+00  0.56605727391E-01 -0.24155076451E-02  0.88945545879E+00  0.88000000000E+00 0.  1.
        -11    1    4    4    0    0 -0.64085919462E-01 -0.46084675500E-01 -0.94264016826E-03  0.78942713918E-01  0.51100000000E-03 0. -1.
         11    1    4    4    0    0 -0.46268503033E-01 -0.22494908978E-01 -0.14290053988E-01  0.53397210291E-01  0.51100000000E-03 0.  1.
</event>
<event>
 8    1  0.1086235E+005  0.1043930E+01  0.7957747E-01            NaN
         13   -1    0    0    0    0  0.00000000000E+00  0.00000000000E+00  0.74505805969E-08  0.10566000000E+00  0.10566000000E+00 0. -1.
     999900   -1    0    0    0    0 -0.00000000000E+00 -0.00000000000E+00 -0.74505805969E-08  0.93827000000E+00  0.93827000000E+00 0.  1.
     999902    2    1    2    0    0 -0.17870922170E-01  0.11283449702E-02  0.15829732287E-01  0.10200297187E+01  0.10197496769E+01 0.  0.
     999903    2    3    3    0    0 -0.69930853216E-01 -0.99807353809E-01  0.47240919014E-01  0.13217561225E+00  0.19668653680E-01 0.  0.
         14    1    1    2    0    0  0.17870922170E-01 -0.11283449702E-02 -0.15829732287E-01  0.23900281293E-01  0.00000000000E+00 0.  1.
     999901    1    3    3    0    0  0.52059931046E-01  0.10093569878E+00 -0.31411186726E-01  0.88785410646E+00  0.88000000000E+00 0.  1.
        -11    1    4    4    0    0 -0.32635326002E-01 -0.30345614584E-01  0.18595165527E-01  0.48290393763E-01  0.51100000000E-03 0. -1.
         11    1    4    4    0    0 -0.37295527214E-01 -0.69461739224E-01  0.28645753486E-01  0.83885218483E-01  0.51100000000E-03 0.  1.
</event>
<event>
 8    1  0.1086235E+005  0.1043930E+01  0.7957747E-01            NaN
         13   -1    0    0    0    0  0.00000000000E+00  0.00000000000E+00  0.74505805969E-08  0.10566000000E+00  0.10566000000E+00 0.  1.
     999900   -1    0    0    0    0 -0.00000000000E+00 -0.00000000000E+00 -0.74505805969E-08  0.93827000000E+00  0.93827000000E+00 0. -1.
     999902    2    1    2    0    0 -0.84526526843E-02 -0.10741040220E-01 -0.21947675543E-01  0.10180742899E+01  0.10177459123E+01 0.  0.
     999903    2    3    3    0    0  0.43733807437E-02  0.13731933049E-02  0.12408468094E+00  0.12586539569E+00  0.20593146184E-01 0.  0.
         14    1    1    2    0    0  0.84526526843E-02  0.10741040220E-01  0.21947675543E-01  0.25855710088E-01  0.00000000000E+00 0.  1.
     999901    1    3    3    0    0 -0.12826033428E-01 -0.12114233525E-01 -0.14603235648E+00  0.89220889422E+00  0.88000000000E+00 0. -1.
        -11    1    4    4    0    0 -0.82605573048E-02  0.15229309945E-02  0.53259848574E-01  0.53920577861E-01  0.51100000000E-03 0. -1.
         11    1    4    4    0    0  0.12633938048E-01 -0.14973768965E-03  0.70824832365E-01  0.71944817830E-01  0.51100000000E-03 0.  1.
</event>
<event>
 8    1  0.1086235E+005  0.1043930E+01  0.7957747E-01            NaN
         13   -1    0    0    0    0  0.00000000000E+00  0.00000000000E+00  0.74505805969E-08  0.10566000000E+00  0.10566000000E+00 0. -1.
     999900   -1    0    0    0    0 -0.00000000000E+00 -0.00000000000E+00 -0.74505805969E-08  0.93827000000E+00  0.93827000000E+00 0. -1.
     999902    2    1    2    0    0  0.81463645238E-02  0.24003294633E-01 -0.77597818118E-03  0.10185701193E+01  0.10182543711E+01 0.  0.
     999903    2    3    3    0    0 -0.12124375849E-01  0.93722154381E-01  0.88512430379E-01  0.13107699692E+00  0.20393285151E-01 0.  0.
         14    1    1    2    0    0 -0.81463645238E-02 -0.24003294633E-01  0.77597818118E-03  0.25359880724E-01  0.00000000000E+00 0. -1.
     999901    1    3    3    0    0  0.20270740373E-01 -0.69718859748E-01 -0.89288408560E-01  0.88749312235E+00  0.88000000000E+00 0. -1.
        -11    1    4    4    0    0 -0.48790317319E-03  0.65401727138E-01  0.52988399822E-01  0.84176336336E-01  0.51100000000E-03 0. -1.
         11    1    4    4    0    0 -0.11636472676E-01  0.28320427243E-01  0.35524030557E-01  0.46900660588E-01  0.51100000000E-03 0.  1.
</event>
<event>
 8    1  0.1086235E+005  0.1043930E+01  0.7957747E-01            NaN
         13   -1    0    0    0    0  0.00000000000E+00  0.00000000000E+00  0.74505805969E-08  0.10566000000E+00  0.10566000000E+00 0. -1.
     999900   -1    0    0    0    0 -0.00000000000E+00 -0.00000000000E+00 -0.74505805969E-08  0.93827000000E+00  0.93827000000E+00 0. -1.
     999902    2    1    2    0    0  0.10934595768E-01  0.19993276014E-01  0.23732018920E-03  0.10211406869E+01  0.10208863549E+01 0.  0.
     999903    2    3    3    0    0  0.10298134836E+00 -0.47713240503E-02  0.80339406854E-01  0.13237624434E+00  0.21003002890E-01 0.  0.
         14    1    1    2    0    0 -0.10934595768E-01 -0.19993276014E-01 -0.23732018920E-03  0.22789313093E-01  0.00000000000E+00 0. -1.
     999901    1    3    3    0    0 -0.92046752588E-01  0.24764600065E-01 -0.80102086664E-01  0.88876444256E+00  0.88000000000E+00 0. -1.
        -11    1    4    4    0    0  0.39070506581E-01  0.83678224934E-02  0.30368096447E-01  0.50189713494E-01  0.51100000000E-03 0. -1.
         11    1    4    4    0    0  0.63910841775E-01 -0.13139146544E-01  0.49971310407E-01  0.82186530849E-01  0.51100000000E-03 0.  1.
</event>
<event>
 8    1  0.1086235E+005  0.1043930E+01  0.7957747E-01            NaN
         13   -1    0    0    0    0  0.00000000000E+00  0.00000000000E+00  0.74505805969E-08  0.10566000000E+00  0.10566000000E+00 0.  1.
     999900   -1    0    0    0    0 -0.00000000000E+00 -0.00000000000E+00 -0.74505805969E-08  0.93827000000E+00  0.93827000000E+00 0. -1.
     999902    2    1    2    0    0 -0.19235676278E-02  0.12670482290E-02 -0.22649309434E-01  0.10211638685E+01  0.10209100595E+01 0.  0.
     999903    2    3    3    0    0 -0.12318633089E+00 -0.25042512485E-01 -0.35781061626E-01  0.13236170065E+00  0.20912577000E-01 0.  0.
         14    1    1    2    0    0  0.19235676278E-02 -0.12670482290E-02  0.22649309434E-01  0.22766131456E-01  0.00000000000E+00 0.  1.
     999901    1    3    3    0    0  0.12126276327E+00  0.26309560714E-01  0.13131752192E-01  0.88880216790E+00  0.88000000000E+00 0.  1.
        -11    1    4    4    0    0 -0.77977688868E-01 -0.16702631669E-01 -0.32991210066E-01  0.86302832680E-01  0.51100000000E-03 0.  1.
         11    1    4    4    0    0 -0.45208642026E-01 -0.83398808157E-02 -0.27898515597E-02  0.46058867969E-01  0.51100000000E-03 0. -1.
</event>
<event>
 8    1  0.1086235E+005  0.1043930E+01  0.7957747E-01            NaN
         13   -1    0    0    0    0  0.00000000000E+00  0.00000000000E+00  0.74505805969E-08  0.10566000000E+00  0.10566000000E+00 0.  1.
     999900   -1    0    0    0    0 -0.00000000000E+00 -0.00000000000E+00 -0.74505805969E-08  0.93827000000E+00  0.93827000000E+00 0.  1.
     999902    2    1    2    0    0  0.94510839174E-02 -0.10381871626E-01 -0.20800809427E-01  0.10188345837E+01  0.10185254680E+01 0.  0.
     999903    2    3    3    0    0 -0.12261317751E-01  0.20011322230E-01  0.12276916255E+00  0.12641791451E+00  0.18932218742E-01 0.  0.
         14    1    1    2    0    0 -0.94510839174E-02  0.10381871626E-01  0.20800809427E-01  0.25095416284E-01  0.00000000000E+00 0.  1.
     999901    1    3    3    0    0  0.21712401669E-01 -0.30393193856E-01 -0.14356997197E+00  0.89241666920E+00  0.88000000000E+00 0.  1.
        -11    1    4    4    0    0  0.37308243337E-02  0.11260492692E-01  0.51742838885E-01  0.53087665637E-01  0.51100000000E-03 0. -1.
         11    1    4    4    0    0 -0.15992142085E-01  0.87508295377E-02  0.71026323663E-01  0.73330248875E-01  0.51100000000E-03 0.  1.
</event>
<event>
 8    1  0.1086235E+005  0.1043930E+01  0.7957747E-01            NaN
         13   -1    0    0    0    0  0.00000000000E+00  0.00000000000E+00  0.74505805969E-08  0.10566000000E+00  0.10566000000E+00 0. -1.
     999900   -1    0    0    0    0 -0.00000000000E+00 -0.00000000000E+00 -0.74505805969E-08  0.93827000000E+00  0.93827000000E+00 0.  1.
     999902    2    1    2    0    0 -0.12351689830E-01  0.16332776885E-01  0.11138893077E-01  0.10206190845E+01  0.10203528394E+01 0.  0.
     999903    2    3    3    0    0  0.99957936407E-01  0.79309147309E-01 -0.16424582451E-01  0.13082179266E+00  0.23728561467E-01 0.  0.
         14    1    1    2    0    0  0.12351689830E-01 -0.16332776885E-01 -0.11138893077E-01  0.23310915499E-01  0.00000000000E+00 0. -1.
     999901    1    3    3    0    0 -0.11230962624E+00 -0.62976370425E-01  0.27563475528E-01  0.88979729184E+00  0.88000000000E+00 0. -1.
        -11    1    4    4    0    0  0.64558337939E-01  0.52610305377E-01 -0.21978438809E-01  0.86133246327E-01  0.51100000000E-03 0. -1.
         11    1    4    4    0    0  0.35399598469E-01  0.26698841932E-01  0.55538563584E-02  0.44688546337E-01  0.51100000000E-03 0.  1.
</event>
<event>
 8    1  0.1086235E+005  0.1043930E+01  0.7957747E-01            NaN
         13   -1    0    0    0    0  0.00000000000E+00  0.00000000000E+00  0.74505805969E-08  0.10566000000E+00  0.10566000000E+00 0.  1.
     999900   -1    0    0    0    0 -0.00000000000E+00 -0.00000000000E+00 -0.74505805969E-08  0.93827000000E+00  0.93827000000E+00 0. -1.
     999902    2    1    2    0    0  0.23584795764E-01  0.21754562631E-02  0.95826152117E-03  0.10202257078E+01  0.10199502936E+01 0.  0.
     999903    2    3    3    0    0  0.27530980652E-01  0.48845641576E-01  0.11718437803E+00  0.13134878232E+00  0.19402900983E-01 0.  0.
         14    1    1    2    0    0 -0.23584795764E-01 -0.21754562631E-02 -0.95826152117E-03  0.23704292150E-01  0.00000000000E+00 0. -1.
     999901    1    3    3    0    0 -0.39461848874E-02 -0.46670185313E-01 -0.11622611651E+00  0.88887692553E+00  0.88000000000E+00 0. -1.
        -11    1    4    4    0    0  0.18774608356E-01  0.17904178402E-01  0.65779012583E-01  0.70711987248E-01  0.51100000000E-03 0.  1.
         11    1    4    4    0    0  0.87563722961E-02  0.30941463174E-01  0.51405365450E-01  0.60636795077E-01  0.51100000000E-03 0. -1.
</event>
<event>
 8    1  0.1086235E+005  0.1043930E+01  0.7957747E-01            NaN
         13   -1    0    0    0    0  0.00000000000E+00  0.00000000000E+00  0.74505805969E-08  0.10566000000E+00  0.10566000000E+00 0. -1.
     999900   -1    0    0    0    0 -0.00000000000E+00 -0.00000000000E+00 -0.74505805969E-08  0.93827000000E+00  0.93827000000E+00 0. -1.
     999902    2    1    2    0    0  0.12688475686E-02  0.16634996715E-02  0.26679101013E-01  0.10171689904E+01  0.10168168976E+01 0.  0.
     999903    2    3    3    0    0  0.28995629957E-01 -0.10155411379E+00  0.72181665052E-01  0.12953554490E+00  0.20378420882E-01 0.  0.
         14    1    1    2    0    0 -0.12688475686E-02 -0.16634996715E-02 -0.26679101013E-01  0.26761009626E-01  0.00000000000E+00 0.  1.
     999901    1    3    3    0    0 -0.27726782389E-01  0.10321761347E+00 -0.45502564039E-01  0.88763344547E+00  0.88000000000E+00 0. -1.
        -11    1    4    4    0    0  0.66361510858E-02 -0.39697286035E-01  0.38233774506E-01  0.55515724382E-01  0.51100000000E-03 0.  1.
         11    1    4    4    0    0  0.22359478871E-01 -0.61856827759E-01  0.33947890546E-01  0.74019820517E-01  0.51100000000E-03 0. -1.
</event>
<event>
 8    1  0.1086235E+005  0.1043930E+01  0.7957747E-01            NaN
         13   -1    0    0    0    0  0.00000000000E+00  0.00000000000E+00  0.74505805969E-08  0.10566000000E+00  0.10566000000E+00 0.  1.
     999900   -1    0    0    0    0 -0.00000000000E+00 -0.00000000000E+00 -0.74505805969E-08  0.93827000000E+00  0.93827000000E+00 0.  1.
     999902    2    1    2    0    0  0.83714135980E-02 -0.22041347436E-01 -0.24727594903E-02  0.10202231212E+01  0.10199476462E+01 0.  0.
     999903    2    3    3    0    0 -0.10116626545E-01  0.12338636979E+00  0.23966943642E-01  0.12770416541E+00  0.20184080148E-01 0.  0.
         14    1    1    2    0    0 -0.83714135980E-02  0.22041347436E-01  0.24727594903E-02  0.23706878789E-01  0.00000000000E+00 0.  1.
     999901    1    3    3    0    0  0.18488040143E-01 -0.14542771723E+00 -0.26439703132E-01  0.89251895580E+00  0.88000000000E+00 0. -1.
        -11    1    4    4    0    0 -0.53334361145E-02  0.92576764476E-01  0.91558753686E-02  0.93182584405E-01  0.51100000000E-03 0. -1.
         11    1    4    4    0    0 -0.47831904305E-02  0.30809605318E-01  0.14811068273E-01  0.34521581003E-01  0.51100000000E-03 0.  1.
</event>
<event>
 8    1  0.1086235E+005  0.1043930E+01  0.7957747E-01            NaN
         13   -1    0    0    0    0  0.00000000000E+00  0.00000000000E+00  0.74505805969E-08  0.10566000000E+00  0.10566000000E+00 0. -1.
     999900   -1    0    0    0    0 -0.00000000000E+00 -0.00000000000E+00 -0.74505805969E-08  0.93827000000E+00  0.93827000000E+00 0.  1.
     999902    2    1    2    0    0  0.21750843803E-01  0.88172990446E-02 -0.80859812921E-02  0.10191060788E+01  0.10188036969E+01 0.  0.
     999903    2    3    3    0    0  0.11737434066E+00 -0.39756064307E-02 -0.57961453060E-01  0.13242965856E+00  0.19635252354E-01 0.  0.
         14    1    1    2    0    0 -0.21750843803E-01 -0.88172990446E-02  0.80859812921E-02  0.24823921165E-01  0.00000000000E+00 0.  1.
     999901    1    3    3    0    0 -0.95623496855E-01  0.12792905475E-01  0.49875471768E-01  0.88667642027E+00  0.88000000000E+00 0. -1.
        -11    1    4    4    0    0  0.35003788612E-01 -0.97462283641E-02 -0.14591841074E-01  0.39159125775E-01  0.51100000000E-03 0.  1.
         11    1    4    4    0    0  0.82370552046E-01  0.57706219334E-02 -0.43369611986E-01  0.93270532788E-01  0.51100000000E-03 0. -1.
</event>
<event>
 8    1  0.1086235E+005  0.1043930E+01  0.7957747E-01            NaN
         13   -1    0    0    0    0  0.00000000000E+00  0.00000000000E+00  0.74505805969E-08  0.10566000000E+00  0.10566000000E+00 0.  1.
     999900   -1    0    0    0    0 -0.00000000000E+00 -0.00000000000E+00 -0.74505805969E-08  0.93827000000E+00  0.93827000000E+00 0. -1.
     999902    2    1    2    0    0  0.23883329131E-02 -0.10843132219E-01 -0.19480094751E-01  0.10215078738E+01  0.10212617610E+01 0.  0.
     999903    2    3    3    0    0 -0.10347472317E+00  0.69849929441E-01  0.29062355598E-01  0.13017475634E+00  0.22689550403E-01 0.  0.
         14    1    1    2    0    0 -0.23883329131E-02  0.10843132219E-01  0.19480094751E-01  0.22422126169E-01  0.00000000000E+00 0.  1.
     999901    1    3    3    0    0  0.10586305609E+00 -0.80693061660E-01 -0.48542450348E-01  0.89133311749E+00  0.88000000000E+00 0. -1.
        -11    1    4    4    0    0 -0.32297400025E-01  0.15810572655E-01 -0.73154250667E-03  0.35970717695E-01  0.51100000000E-03 0.  1.
         11    1    4    4    0    0 -0.71177323148E-01  0.54039356786E-01  0.29793898104E-01  0.94204038649E-01  0.51100000000E-03 0. -1.
</event>
<event>
 8    1  0.1086235E+005  0.1043930E+01  0.7957747E-01            NaN
         13   -1    0    0    0    0  0.00000000000E+00  0.00000000000E+00  0.74505805969E-08  0.10566000000E+00  0.10566000000E+00 0.  1.
     999900   -1    0    0    0    0 -0.00000000000E+00 -0.00000000000E+00 -0.74505805969E-08  0.93827000000E+00  0.93827000000E+00 0. -1.
     999902    2    1    2    0    0  0.15052403780E-01 -0.92980647601E-02  0.15449251623E-01  0.10204415296E+01  0.10201711655E+01 0.  0.
     999903    2    3    3    0    0 -0.10871512968E+00  0.62566948506E-01 -0.18693726506E-01  0.12822590236E+00  0.18942654436E-01 0.  0.
         14    1    1    2    0    0 -0.15052403780E-01  0.92980647601E-02 -0.15449251623E-01  0.23488470439E-01  0.00000000000E+00 0. -1.
     999901    1    3    3    0    0  0.12376753346E+00 -0.71865013266E-01  0.34142978129E-01  0.89221562720E+00  0.88000000000E+00 0. -1.
        -11    1    4    4    0    0 -0.41401816568E-01  0.13792264567E-01 -0.86816867711E-02  0.44496851385E-01  0.51100000000E-03 0. -1.
         11    1    4    4    0    0 -0.67313313116E-01  0.48774683939E-01 -0.10012039735E-01  0.83729050972E-01  0.51100000000E-03 0.  1.
</event>
<event>
 7    1  0.1086235E+005  0.1043930E+01  0.7957747E-01            NaN
         13   -1    0    0    0    0  0.00000000000E+00  0.00000000000E+00  0.74505805969E-08  0.10566000000E+00  0.10566000000E+00 0. -1.
     999900   -1    0    0    0    0 -0.00000000000E+00 -0.00000000000E+00 -0.74505805969E-08  0.93827000000E+00  0.93827000000E+00 0.  1.
     999903    2    1    2    0    0  0.18630252835E-01  0.54818923077E-01  0.51083391841E-01  0.79941388357E-01  0.20710190789E-01 0.  0.
         14    1    1    2    0    0 -0.28721180425E-01  0.36421548825E-01  0.56047621762E-01  0.72751435237E-01  0.00000000000E+00 0. -1.
     999901    1    1    2    0    0  0.10090927590E-01 -0.91240471902E-01 -0.10713101360E+00  0.89123717641E+00  0.88000000000E+00 0. -1.
        -11    1    3    3    0    0  0.17509043325E-01  0.52900603648E-01  0.39922588949E-01  0.68550088942E-01  0.51100000000E-03 0.  1.
         11    1    3    3    0    0  0.11212095105E-02  0.19183194288E-02  0.11160802891E-01  0.11391299416E-01  0.51100000000E-03 0. -1.
</event>
<event>
 8    1  0.1086235E+005  0.1043930E+01  0.7957747E-01            NaN
         13   -1    0    0    0    0  0.00000000000E+00  0.00000000000E+00  0.74505805969E-08  0.10566000000E+00  0.10566000000E+00 0.  1.
     999900   -1    0    0    0    0 -0.00000000000E+00 -0.00000000000E+00 -0.74505805969E-08  0.93827000000E+00  0.93827000000E+00 0.  1.
     999902    2    1    2    0    0  0.22686506981E-01  0.29972070176E-02  0.13723126872E-02  0.10210052516E+01  0.10207478531E+01 0.  0.
     999903    2    3    3    0    0  0.11765195595E+00 -0.56301974757E-01 -0.22578164985E-01  0.13358852035E+00  0.18006224857E-01 0.  0.
         14    1    1    2    0    0 -0.22686506981E-01 -0.29972070176E-02 -0.13723126872E-02  0.22924748440E-01  0.00000000000E+00 0.  1.
     999901    1    3    3    0    0 -0.94965448970E-01  0.59299181775E-01  0.23950477673E-01  0.88741673121E+00  0.88000000000E+00 0. -1.
        -11    1    4    4    0    0  0.54520705101E-01 -0.30494688327E-01 -0.18972351271E-01  0.65288931180E-01  0.51100000000E-03 0. -1.
         11    1    4    4    0    0  0.63131250850E-01 -0.25807286431E-01 -0.36058137143E-02  0.68299589167E-01  0.51100000000E-03 0.  1.
</event>
<event>
 8    1  0.1086235E+005  0.1043930E+01  0.7957747E-01            NaN
         13   -1    0    0    0    0  0.00000000000E+00  0.00000000000E+00  0.74505805969E-08  0.10566000000E+00  0.10566000000E+00 0.  1.
     999900   -1    0    0    0    0 -0.00000000000E+00 -0.00000000000E+00 -0.74505805969E-08  0.93827000000E+00  0.93827000000E+00 0. -1.
     999902    2    1    2    0    0 -0.51426127306E-02 -0.13359291487E-01  0.22622608154E-01  0.10171587555E+01  0.10168063898E+01 0.  0.
     999903    2    3    3    0    0  0.21469920520E-01  0.92739888298E-01 -0.77884599076E-01  0.12470877838E+00  0.20606413165E-01 0.  0.
         14    1    1    2    0    0  0.51426127306E-02  0.13359291487E-01 -0.22622608154E-01  0.26771244543E-01  0.00000000000E+00 0. -1.
     999901    1    3    3    0    0 -0.26612533250E-01 -0.10609917978E+00  0.10050720723E+00  0.89244997708E+00  0.88000000000E+00 0. -1.
        -11    1    4    4    0    0  0.11571884754E-01  0.71580413201E-01 -0.67759944064E-01  0.99243816993E-01  0.51100000000E-03 0.  1.
         11    1    4    4    0    0  0.98980357657E-02  0.21159475097E-01 -0.10124655012E-01  0.25464961388E-01  0.51100000000E-03 0. -1.
</event>
<event>
 8    1  0.1086235E+005  0.1043930E+01  0.7957747E-01            NaN
         13   -1    0    0    0    0  0.00000000000E+00  0.00000000000E+00  0.74505805969E-08  0.10566000000E+00  0.10566000000E+00 0.  1.
     999900   -1    0    0    0    0 -0.00000000000E+00 -0.00000000000E+00 -0.74505805969E-08  0.93827000000E+00  0.93827000000E+00 0.  1.
     999902    2    1    2    0    0 -0.15524910517E-01 -0.17384570794E-01  0.40122660029E-02  0.10202795364E+01  0.10200053863E+01 0.  0.
     999903    2    3    3    0    0  0.12345515761E+00  0.18073854110E-02  0.30287570976E-01  0.12877845277E+00  0.20545324531E-01 0.  0.
         14    1    1    2    0    0  0.15524910517E-01  0.17384570794E-01 -0.40122660029E-02  0.23650463563E-01  0.00000000000E+00 0. -1.
     999901    1    3    3    0    0 -0.13898006813E+00 -0.19191956205E-01 -0.26275304973E-01  0.89150108366E+00  0.88000000000E+00 0.  1.
        -11    1    4    4    0    0  0.28448272446E-01 -0.65505252967E-02  0.18578029466E-02  0.29256215401E-01  0.51100000000E-03 0. -1.
         11    1    4    4    0    0  0.95006885167E-01  0.83579107077E-02  0.28429768030E-01  0.99522237373E-01  0.51100000000E-03 0.  1.
</event>
<event>
 8    1  0.1086235E+005  0.1043930E+01  0.7957747E-01            NaN
         13   -1    0    0    0    0  0.00000000000E+00  0.00000000000E+00  0.74505805969E-08  0.10566000000E+00  0.10566000000E+00 0. -1.
     999900   -1    0    0    0    0 -0.00000000000E+00 -0.00000000000E+00 -0.74505805969E-08  0.93827000000E+00  0.93827000000E+00 0.  1.
     999902    2    1    2    0    0  0.22208740623E-01 -0.93278268452E-02 -0.10793176010E-02  0.10198177326E+01  0.10195326411E+01 0.  0.
     999903    2    3    3    0    0 -0.28337340547E-01 -0.60637809919E-02 -0.12460263873E+00  0.12974831327E+00  0.21657167616E-01 0.  0.
         14    1    1    2    0    0 -0.22208740623E-01  0.93278268452E-02  0.10793176010E-02  0.24112267421E-01  0.00000000000E+00 0.  1.
     999901    1    3    3    0    0  0.50546081170E-01 -0.32640458533E-02  0.12352332113E+00  0.89006941930E+00  0.88000000000E+00 0. -1.
        -11    1    4    4    0    0  0.15974264973E-02 -0.53723679766E-02 -0.29845959627E-01  0.30371969580E-01  0.51100000000E-03 0. -1.
         11    1    4    4    0    0 -0.29934767045E-01 -0.69141301523E-03 -0.94756679106E-01  0.99376343695E-01  0.51100000000E-03 0.  1.
</event>
<event>
 8    1  0.1086235E+005  0.1043930E+01  0.7957747E-01            NaN
         13   -1    0    0    0    0  0.00000000000E+00  0.00000000000E+00  0.74505805969E-08  0.10566000000E+00  0.10566000000E+00 0. -1.
     999900   -1    0    0    0    0 -0.00000000000E+00 -0.00000000000E+00 -0.74505805969E-08  0.93827000000E+00  0.93827000000E+00 0. -1.
     999902    2    1    2    0    0 -0.18981340585E-01 -0.94161577352E-02 -0.14161812304E-01  0.10184444699E+01  0.10181255453E+01 0.  0.
     999903    2    3    3    0    0 -0.66255617625E-01  0.10719548349E+00 -0.22088281857E-01  0.12945855265E+00  0.19772357260E-01 0.  0.
         14    1    1    2    0    0  0.18981340585E-01  0.94161577352E-02  0.14161812304E-01  0.25485530103E-01  0.00000000000E+00 0. -1.
     999901    1    3    3    0    0  0.47274277040E-01 -0.11661164123E+00  0.79264695528E-02  0.88898591724E+00  0.88000000000E+00 0. -1.
        -11    1    4    4    0    0 -0.47732758616E-01  0.68323706718E-01 -0.22730115720E-01  0.86391344626E-01  0.51100000000E-03 0. -1.
         11    1    4    4    0    0 -0.18522859009E-01  0.38871776775E-01  0.64183386362E-03  0.43067208026E-01  0.51100000000E-03 0.  1.
</event>
<event>
 8    1  0.1086235E+005  0.1043930E+01  0.7957747E-01            NaN
         13   -1    0    0    0    0  0.00000000000E+00  0.00000000000E+00  0.74505805969E-08  0.10566000000E+00  0.10566000000E+00 0. -1.
     999900   -1    0    0    0    0 -0.00000000000E+00 -0.00000000000E+00 -0.74505805969E-08  0.93827000000E+00  0.93827000000E+00 0. -1.
     999902    2    1    2    0    0 -0.93016858413E-02 -0.59824536418E-02 -0.21270813099E-01  0.10199558764E+01  0.10196740809E+01 0.  0.
     999903    2    3    3    0    0 -0.49192742556E-01  0.10306398561E+00  0.56523355417E-01  0.12892593587E+00  0.19618771170E-01 0.  0.
         14    1    1    2    0    0  0.93016858413E-02  0.59824536418E-02  0.21270813099E-01  0.23974123570E-01  0.00000000000E+00 0. -1.
     999901    1    3    3    0    0  0.39891056715E-01 -0.10904643925E+00 -0.77794168516E-01  0.89102994056E+00  0.88000000000E+00 0. -1.
        -11    1    4    4    0    0 -0.40849182607E-01  0.82902914208E-01  0.53776102043E-01  0.10692838340E+00  0.51100000000E-03 0.  1.
         11    1    4    4    0    0 -0.83435599490E-02  0.20161071402E-01  0.27472533740E-02  0.21997552473E-01  0.51100000000E-03 0. -1.
</event>
<event>
 8    1  0.1086235E+005  0.1043930E+01  0.7957747E-01            NaN
         13   -1    0    0    0    0  0.00000000000E+00  0.00000000000E+00  0.74505805969E-08  0.10566000000E+00  0.10566000000E+00 0. -1.
     999900   -1    0    0    0    0 -0.00000000000E+00 -0.00000000000E+00 -0.74505805969E-08  0.93827000000E+00  0.93827000000E+00 0. -1.
     999902    2    1    2    0    0 -0.18982003075E-02 -0.18492706431E-01 -0.14402815282E-01  0.10204135282E+01  0.10201425117E+01 0.  0.
     999903    2    3    3    0    0 -0.43493133349E-01  0.21110025597E-02  0.11976211356E+00  0.12903544942E+00  0.20274969413E-01 0.  0.
         14    1    1    2    0    0  0.18982003075E-02  0.18492706431E-01  0.14402815282E-01  0.23516471751E-01  0.00000000000E+00 0. -1.
     999901    1    3    3    0    0  0.41594933042E-01 -0.20603708991E-01 -0.13416492884E+00  0.89137807882E+00  0.88000000000E+00 0. -1.
        -11    1    4    4    0    0 -0.40237158492E-02 -0.92660715198E-03  0.16686250942E-02  0.44826689320E-02  0.51100000000E-03 0.  1.
         11    1    4    4    0    0 -0.39469417500E-01  0.30376097116E-02  0.11809348846E+00  0.12455278049E+00  0.51100000000E-03 0. -1.
</event>
<event>
 8    1  0.1086235E+005  0.1043930E+01  0.7957747E-01            NaN
         13   -1    0    0    0    0  0.00000000000E+00  0.00000000000E+00  0.74505805969E-08  0.10566000000E+00  0.10566000000E+00 0. -1.
     999900   -1    0    0    0    0 -0.00000000000E+00 -0.00000000000E+00 -0.74505805969E-08  0.93827000000E+00  0.93827000000E+00 0.  1.
     999902    2    1    2    0    0 -0.11755095021E-02 -0.13672728094E-01  0.18378045476E-01  0.10209936125E+01  0.10207359496E+01 0.  0.
     999903    2    3    3    0    0 -0.72817897103E-01 -0.36324828513E-01  0.10430571913E+00  0.13362147272E+00  0.18790306665E-01 0.  0.
         14    1    1    2    0    0  0.11755095021E-02  0.13672728094E-01 -0.18378045476E-01  0.22936387502E-01  0.00000000000E+00 0.  1.
     999901    1    3    3    0    0  0.71642387601E-01  0.22652100419E-01 -0.85927673649E-01  0.88737213978E+00  0.88000000000E+00 0.  1.
        -11    1    4    4    0    0 -0.51569324334E-01 -0.23682177526E-01  0.85203574167E-01  0.10237260823E+00  0.51100000000E-03 0.  1.
         11    1    4    4    0    0 -0.21248572768E-01 -0.12642650987E-01  0.19102144959E-01  0.31248864487E-01  0.51100000000E-03 0. -1.
</event>
<event>
 8    1  0.1086235E+005  0.1043930E+01  0.7957747E-01            NaN
         13   -1    0    0    0    0  0.00000000000E+00  0.00000000000E+00  0.74505805969E-08  0.10566000000E+00  0.10566000000E+00 0.  1.
     999900   -1    0    0    0    0 -0.00000000000E+00 -0.00000000000E+00 -0.74505805969E-08  0.93827000000E+00  0.93827000000E+00 0.  1.
     999902    2    1    2    0    0 -0.31579708059E-02 -0.49436889229E-02 -0.23795223754E-01  0.10194223377E+01  0.10191277040E+01 0.  0.
     999903    2    3    3    0    0  0.28842730577E-02 -0.98099224552E-01  0.80290409729E-01  0.12838458222E+00  0.20106570268E-01 0.  0.
         14    1    1    2    0    0  0.31579708059E-02  0.49436889229E-02  0.23795223754E-01  0.24507662338E-01  0.00000000000E+00 0.  1.
     999901    1    3    3    0    0 -0.60422438636E-02  0.93155535629E-01 -0.10408563348E+00  0.89103775544E+00  0.88000000000E+00 0.  1.
        -11    1    4    4    0    0 -0.59976002530E-02 -0.11324044390E-01  0.12517771170E-01  0.17920962759E-01  0.51100000000E-03 0. -1.
         11    1    4    4    0    0  0.88818733107E-02 -0.86775180162E-01  0.67772638560E-01  0.11046361946E+00  0.51100000000E-03 0.  1.
</event>
<event>
 8    1  0.1086235E+005  0.1043930E+01  0.7957747E-01            NaN
         13   -1    0    0    0    0  0.00000000000E+00  0.00000000000E+00  0.74505805969E-08  0.10566000000E+00  0.10566000000E+00 0. -1.
     999900   -1    0    0    0    0 -0.00000000000E+00 -0.00000000000E+00 -0.74505805969E-08  0.93827000000E+00  0.93827000000E+00 0. -1.
     999902    2    1    2    0    0 -0.26107736730E-02 -0.22109288963E-01  0.50617285731E-02  0.10210989270E+01  0.10208436515E+01 0.  0.
     999903    2    3    3    0    0  0.91126009213E-02 -0.10352843572E+00  0.81952520245E-01  0.13392436199E+00  0.20453426705E-01 0.  0.
         14    1    1    2    0    0  0.26107736730E-02  0.22109288963E-01 -0.50617285731E-02  0.22831072988E-01  0.00000000000E+00 0. -1.
     999901    1    3    3    0    0 -0.11723374594E-01  0.81419146752E-01 -0.76890791672E-01  0.88717456502E+00  0.88000000000E+00 0. -1.
        -11    1    4    4    0    0  0.20591611803E-02 -0.26111949240E-01  0.10137802187E-01  0.28091105212E-01  0.51100000000E-03 0. -1.
         11    1    4    4    0    0  0.70534397409E-02 -0.77416486475E-01  0.71814718058E-01  0.10583325678E+00  0.51100000000E-03 0.  1.
</event>
<event>
 8    1  0.1086235E+005  0.1043930E+01  0.7957747E-01            NaN
         13   -1    0    0    0    0  0.00000000000E+00  0.00000000000E+00  0.74505805969E-08  0.10566000000E+00  0.10566000000E+00 0. -1.
     999900   -1    0    0    0    0 -0.00000000000E+00 -0.00000000000E+00 -0.74505805969E-08  0.93827000000E+00  0.93827000000E+00 0.  1.
     999902    2    1    2    0    0 -0.19094061176E-01 -0.13150636810E-01  0.39577463232E-02  0.10204100898E+01  0.10201389931E+01 0.  0.
     999903    2    3    3    0    0  0.12653521662E+00  0.57522215620E-02 -0.37387487692E-02  0.12820807194E+00  0.19470037772E-01 0.  0.
         14    1    1    2    0    0  0.19094061176E-01  0.13150636810E-01 -0.39577463232E-02  0.23519910218E-01  0.00000000000E+00 0.  1.
     999901    1    3    3    0    0 -0.14562927779E+00 -0.18902858373E-01  0.76964950924E-02  0.89220201784E+00  0.88000000000E+00 0. -1.
        -11    1    4    4    0    0  0.91513612068E-01  0.78951330748E-02 -0.10561384336E-01  0.92460144279E-01  0.51100000000E-03 0. -1.
         11    1    4    4    0    0  0.35021604549E-01 -0.21429115128E-02  0.68226355667E-02  0.35747927661E-01  0.51100000000E-03 0.  1.
</event>
<event>
 8    1  0.1086235E+005  0.1043930E+01  0.7957747E-01            NaN
         13   -1    0    0    0    0  0.00000000000E+00  0.00000000000E+00  0.74505805969E-08  0.10566000000E+00  0.10566000000E+00 0.  1.
     999900   -1    0    0    0    0 -0.00000000000E+00 -0.00000000000E+00 -0.74505805969E-08  0.93827000000E+00  0.93827000000E+00 0.  1.
     999902    2    1    2    0    0 -0.19681814336E-02  0.24972651054E-02  0.23679026023E-01  0.10200384462E+01  0.10197586113E+01 0.  0.
     999903    2    3    3    0    0 -0.57365286740E-01  0.96822967301E-01 -0.60497968569E-01  0.12927925099E+00  0.19689017655E-01 0.  0.
         14    1    1    2    0    0  0.19681814336E-02 -0.24972651054E-02 -0.23679026023E-01  0.23891553833E-01  0.00000000000E+00 0. -1.
     999901    1    3    3    0    0  0.55397105306E-01 -0.94325702196E-01  0.84176994592E-01  0.89075919518E+00  0.88000000000E+00 0. -1.
        -11    1    4    4    0    0 -0.86043464940E-02  0.28892458100E-01 -0.10928211410E-01  0.32070170552E-01  0.51100000000E-03 0.  1.
         11    1    4    4    0    0 -0.48760940246E-01  0.67930509201E-01 -0.49569757159E-01  0.97209080439E-01  0.51100000000E-03 0. -1.
</event>
<event>
 8    1  0.1086235E+005  0.1043930E+01  0.7957747E-01            NaN
         13   -1    0    0    0    0  0.00000000000E+00  0.00000000000E+00  0.74505805969E-08  0.10566000000E+00  0.10566000000E+00 0. -1.
     999900   -1    0    0    0    0 -0.00000000000E+00 -0.00000000000E+00 -0.74505805969E-08  0.93827000000E+00  0.93827000000E+00 0.  1.
     999902    2    1    2    0    0 -0.23083049121E-01 -0.64399963823E-02  0.31803461473E-02  0.10197553167E+01  0.10194687296E+01 0.  0.
     999903    2    3    3    0    0 -0.24542202277E-01 -0.71273633105E-01  0.10599710020E+00  0.13139907371E+00  0.18656925060E-01 0.  0.
         14    1    1    2    0    0  0.23083049121E-01  0.64399963823E-02 -0.31803461473E-02  0.24174683282E-01  0.00000000000E+00 0.  1.
     999901    1    3    3    0    0  0.14591531555E-02  0.64833636723E-01 -0.10281675405E+00  0.88835624301E+00  0.88000000000E+00 0.  1.
        -11    1    4    4    0    0 -0.16292157390E-01 -0.28131937342E-01  0.33877111778E-01  0.46954873170E-01  0.51100000000E-03 0.  1.
         11    1    4    4    0    0 -0.82500448869E-02 -0.43141695763E-01  0.72119988421E-01  0.84444200540E-01  0.51100000000E-03 0. -1.
</event>
<event>
 8    1  0.1086235E+005  0.1043930E+01  0.7957747E-01            NaN
         13   -1    0    0    0    0  0.00000000000E+00  0.00000000000E+00  0.74505805969E-08  0.10566000000E+00  0.10566000000E+00 0.  1.
     999900   -1    0    0    0    0 -0.00000000000E+00 -0.00000000000E+00 -0.74505805969E-08  0.93827000000E+00  0.93827000000E+00 0. -1.
     999902    2    1    2    0    0 -0.13730967104E-01 -0.11716791100E-01 -0.13177746666E-01  0.10215810479E+01  0.10213365566E+01 0.  0.
     999903    2    3    3    0    0  0.43191968160E-01  0.30933980502E-01  0.11585303906E+00  0.12933206220E+00  0.21963569591E-01 0.  0.
         14    1    1    2    0    0  0.13730967104E-01  0.11716791100E-01  0.13177746666E-01  0.22348952066E-01  0.00000000000E+00 0.  1.
     999901    1    3    3    0    0 -0.56922935264E-01 -0.42650771602E-01 -0.12903078573E+00  0.89224898573E+00  0.88000000000E+00 0. -1.
        -11    1    4    4    0    0  0.63813529126E-02  0.70192520759E-02  0.44917485441E-01  0.45911144443E-01  0.51100000000E-03 0. -1.
         11    1    4    4    0    0  0.36810615247E-01  0.23914728426E-01  0.70935553623E-01  0.83420917757E-01  0.51100000000E-03 0.  1.
</event>
<event>
 8    1  0.1086235E+005  0.1043930E+01  0.7957747E-01            NaN
         13   -1    0    0    0    0  0.00000000000E+00  0.00000000000E+00  0.74505805969E-08  0.10566000000E+00  0.10566000000E+00 0. -1.
     999900   -1    0    0    0    0 -0.00000000000E+00 -0.00000000000E+00 -0.74505805969E-08  0.93827000000E+00  0.93827000000E+00 0.  1.
     999902    2    1    2    0    0 -0.12023065816E-01 -0.38900852431E-02 -0.19984704601E-01  0.10202852269E+01  0.10200112102E+01 0.  0.
     999903    2    3    3    0    0 -0.22482350161E-01 -0.10861809845E+00 -0.69833469700E-01  0.13261284776E+00  0.20152084798E-01 0.  0.
         14    1    1    2    0    0  0.12023065816E-01  0.38900852431E-02  0.19984704601E-01  0.23644773054E-01  0.00000000000E+00 0. -1.
     999901    1    3    3    0    0  0.10459284345E-01  0.10472801321E+00  0.49848765099E-01  0.88767237918E+00  0.88000000000E+00 0.  1.
        -11    1    4    4    0    0 -0.10450849709E-02 -0.54643352092E-01 -0.33446010370E-01  0.64077178942E-01  0.51100000000E-03 0.  1.
         11    1    4    4    0    0 -0.21437265190E-01 -0.53974746360E-01 -0.36387459330E-01  0.68535668822E-01  0.51100000000E-03 0. -1.
</event>
<event>
 8    1  0.1534288E+005  0.1043930E+01  0.7957747E-01            NaN
         13   -1    0    0    0    0  0.00000000000E+00  0.00000000000E+00  0.74505805969E-08  0.10566000000E+00  0.10566000000E+00 0. -1.
     999900   -1    0    0    0    0 -0.00000000000E+00 -0.00000000000E+00 -0.74505805969E-08  0.93827000000E+00  0.93827000000E+00 0.  1.
     999902    2    1    2    0    0 -0.12391793078E-01 -0.98546084063E-02  0.17982085993E-01  0.10199711758E+01  0.10196897440E+01 0.  0.
     999903    2    3    3    0    0 -0.57790391026E-01  0.11443556005E+00 -0.22499631185E-02  0.12984847945E+00  0.20502160417E-01 0.  0.
         14    1    1    2    0    0  0.12391793078E-01  0.98546084063E-02 -0.17982085993E-01  0.23958824244E-01  0.00000000000E+00 0.  1.
     999901    1    3    3    0    0  0.45398597948E-01 -0.12429016846E+00  0.20232049111E-01  0.89012269631E+00  0.88000000000E+00 0. -1.
        -11    1    4    4    0    0 -0.35237861573E-01  0.67885716659E-01  0.86782884192E-02  0.76978901171E-01  0.51100000000E-03 0. -1.
         11    1    4    4    0    0 -0.22552529453E-01  0.46549843392E-01 -0.10928251538E-01  0.52869578277E-01  0.51100000000E-03 0.  1.
</event>
<event>
 8    1  0.1086235E+005  0.1043930E+01  0.7957747E-01            NaN
         13   -1    0    0    0    0  0.00000000000E+00  0.00000000000E+00  0.74505805969E-08  0.10566000000E+00  0.10566000000E+00 0. -1.
     999900   -1    0    0    0    0 -0.00000000000E+00 -0.00000000000E+00 -0.74505805969E-08  0.93827000000E+00  0.93827000000E+00 0. -1.
     999902    2    1    2    0    0  0.20630086539E-01  0.45204061507E-02 -0.12253920401E-01  0.10195129341E+01  0.10192205010E+01 0.  0.
     999903    2    3    3    0    0  0.12876438471E+00 -0.16335036182E-01  0.14869036022E-01  0.13223415565E+00  0.20437306816E-01 0.  0.
         14    1    1    2    0    0 -0.20630086539E-01 -0.45204061507E-02  0.12253920401E-01  0.24417065908E-01  0.00000000000E+00 0.  1.
     999901    1    3    3    0    0 -0.10813429817E+00  0.20855442332E-01 -0.27122956423E-01  0.88727877845E+00  0.88000000000E+00 0.  1.
        -11    1    4    4    0    0  0.10660732999E+00 -0.90693962099E-02  0.18647795246E-01  0.10860652901E+00  0.51100000000E-03 0.  1.
         11    1    4    4    0    0  0.22157054723E-01 -0.72656399718E-02 -0.37787592238E-02  0.23627626636E-01  0.51100000000E-03 0. -1.
</event>
<event>
 8    1  0.1086235E+005  0.1043930E+01  0.7957747E-01            NaN
         13   -1    0    0    0    0  0.00000000000E+00  0.00000000000E+00  0.74505805969E-08  0.10566000000E+00  0.10566000000E+00 0.  1.
     999900   -1    0    0    0    0 -0.00000000000E+00 -0.00000000000E+00 -0.74505805969E-08  0.93827000000E+00  0.93827000000E+00 0.  1.
     999902    2    1    2    0    0  0.18420609349E-01  0.13100848795E-01 -0.68242225709E-02  0.10203181152E+01  0.10200448692E+01 0.  0.
     999903    2    3    3    0    0 -0.10767221659E+00  0.38085477033E-01  0.56853317859E-01  0.12870246848E+00  0.16976921213E-01 0.  0.
         14    1    1    2    0    0 -0.18420609349E-01 -0.13100848795E-01  0.68242225709E-02  0.23611884754E-01  0.00000000000E+00 0. -1.
     999901    1    3    3    0    0  0.12609282594E+00 -0.24984628238E-01 -0.63677540430E-01  0.89161564677E+00  0.88000000000E+00 0.  1.
        -11    1    4    4    0    0 -0.61155178018E-01  0.21995157719E-01  0.41614673973E-01  0.77173732399E-01  0.51100000000E-03 0. -1.
         11    1    4    4    0    0 -0.46517038577E-01  0.16090319315E-01  0.15238643886E-01  0.51528736081E-01  0.51100000000E-03 0.  1.
</event>
<event>
 8    1  0.1086235E+005  0.1043930E+01  0.7957747E-01            NaN
         13   -1    0    0    0    0  0.00000000000E+00  0.00000000000E+00  0.74505805969E-08  0.10566000000E+00  0.10566000000E+00 0. -1.
     999900   -1    0    0    0    0 -0.00000000000E+00 -0.00000000000E+00 -0.74505805969E-08  0.93827000000E+00  0.93827000000E+00 0. -1.
     999902    2    1    2    0    0  0.71714608369E-02  0.16394245605E-01  0.15761189306E-01  0.10200843248E+01  0.10198055763E+01 0.  0.
     999903    2    3    3    0    0  0.59647742437E-01  0.11611976813E+00 -0.98528936758E-02  0.13252868074E+00  0.20618389284E-01 0.  0.
         14    1    1    2    0    0 -0.71714608369E-02 -0.16394245605E-01 -0.15761189306E-01  0.23845675244E-01  0.00000000000E+00 0.  1.
     999901    1    3    3    0    0 -0.52476281600E-01 -0.99725522527E-01  0.25614082982E-01  0.88755564401E+00  0.88000000000E+00 0. -1.
        -11    1    4    4    0    0  0.10474765073E-01  0.40251808044E-01 -0.12617463376E-03  0.41595742513E-01  0.51100000000E-03 0.  1.
         11    1    4    4    0    0  0.49172977364E-01  0.75867960088E-01 -0.97267190420E-02  0.90932938230E-01  0.51100000000E-03 0. -1.
</event>
<event>
 8    1  0.1086235E+005  0.1043930E+01  0.7957747E-01            NaN
         13   -1    0    0    0    0  0.00000000000E+00  0.00000000000E+00  0.74505805969E-08  0.10566000000E+00  0.10566000000E+00 0. -1.
     999900   -1    0    0    0    0 -0.00000000000E+00 -0.00000000000E+00 -0.74505805969E-08  0.93827000000E+00  0.93827000000E+00 0.  1.
     999902    2    1    2    0    0 -0.73005951166E-03  0.55361218471E-02  0.23080052701E-01  0.10201840432E+01  0.10199076485E+01 0.  0.
     999903    2    3    3    0    0  0.11529440995E+00  0.54049519479E-01 -0.18522435214E-01  0.13027056747E+00  0.20327041623E-01 0.  0.
         14    1    1    2    0    0  0.73005951166E-03 -0.55361218471E-02 -0.23080052701E-01  0.23745956807E-01  0.00000000000E+00 0.  1.
     999901    1    3    3    0    0 -0.11602446947E+00 -0.48513397632E-01  0.41602487915E-01  0.88991347572E+00  0.88000000000E+00 0. -1.
        -11    1    4    4    0    0  0.39050808810E-01  0.27252816976E-01 -0.13107789060E-02  0.47640958892E-01  0.51100000000E-03 0. -1.
         11    1    4    4    0    0  0.76243601145E-01  0.26796702503E-01 -0.17211656308E-01  0.82629608582E-01  0.51100000000E-03 0.  1.
</event>
<event>
 8    1  0.1086235E+005  0.1043930E+01  0.7957747E-01            NaN
         13   -1    0    0    0    0  0.00000000000E+00  0.00000000000E+00  0.74505805969E-08  0.10566000000E+00  0.10566000000E+00 0.  1.
     999900   -1    0    0    0    0 -0.00000000000E+00 -0.00000000000E+00 -0.74505805969E-08  0.93827000000E+00  0.93827000000E+00 0. -1.
     999902    2    1    2    0    0  0.21821966379E-01  0.86644492738E-02 -0.43469814571E-02  0.10200518270E+01  0.10197723092E+01 0.  0.
     999903    2    3    3    0    0  0.69030990113E-01 -0.10833530704E+00 -0.16290936686E-01  0.13097348795E+00  0.19668339579E-01 0.  0.
         14    1    1    2    0    0 -0.21821966379E-01 -0.86644492738E-02  0.43469814571E-02  0.23878172996E-01  0.00000000000E+00 0.  1.
     999901    1    3    3    0    0 -0.47209023734E-01  0.11699975631E+00  0.11943955229E-01  0.88907833905E+00  0.88000000000E+00 0. -1.
        -11    1    4    4    0    0  0.49944039614E-02 -0.21034850187E-01 -0.42132439881E-02  0.22032284021E-01  0.51100000000E-03 0. -1.
         11    1    4    4    0    0  0.64036586151E-01 -0.87300456852E-01 -0.12077692698E-01  0.10894120393E+00  0.51100000000E-03 0.  1.
</event>
<event>
 8    1  0.1086235E+005  0.1043930E+01  0.7957747E-01            NaN
         13   -1    0    0    0    0  0.00000000000E+00  0.00000000000E+00  0.74505805969E-08  0.10566000000E+00  0.10566000000E+00 0. -1.
     999900   -1    0    0    0    0 -0.00000000000E+00 -0.00000000000E+00 -0.74505805969E-08  0.93827000000E+00  0.93827000000E+00 0.  1.
     999902    2    1    2    0    0  0.22079051700E-01 -0.38486919593E-02  0.81450292258E-02  0.10200838587E+01  0.10198050992E+01 0.  0.
     999903    2    3    3    0    0 -0.59130957432E-01  0.11218255167E+00  0.10397974123E-01  0.12875709996E+00  0.19719987316E-01 0.  0.
         14    1    1    2    0    0 -0.22079051700E-01  0.38486919593E-02 -0.81450292258E-02  0.23846141299E-01  0.00000000000E+00 0.  1.
     999901    1    3    3    0    0  0.81210009132E-01 -0.11603124363E+00 -0.22529448974E-02  0.89132675874E+00  0.88000000000E+00 0. -1.
        -11    1    4    4    0    0 -0.45955262794E-01  0.70559851642E-01  0.12047910865E-01  0.85064634951E-01  0.51100000000E-03 0.  1.
         11    1    4    4    0    0 -0.13175694638E-01  0.41622700026E-01 -0.16499367415E-02  0.43692465013E-01  0.51100000000E-03 0. -1.
</event>
<event>
 8    1  0.1086235E+005  0.1043930E+01  0.7957747E-01            NaN
         13   -1    0    0    0    0  0.00000000000E+00  0.00000000000E+00  0.74505805969E-08  0.10566000000E+00  0.10566000000E+00 0.  1.
     999900   -1    0    0    0    0 -0.00000000000E+00 -0.00000000000E+00 -0.74505805969E-08  0.93827000000E+00  0.93827000000E+00 0. -1.
     999902    2    1    2    0    0 -0.14149186895E-01  0.84516613447E-02 -0.17834973511E-01  0.10196459240E+01  0.10193567059E+01 0.  0.
     999903    2    3    3    0    0  0.10200468219E+00  0.54380891878E-01  0.51163194869E-01  0.12815169360E+00  0.21046317319E-01 0.  0.
         14    1    1    2    0    0  0.14149186895E-01 -0.84516613447E-02  0.17834973511E-01  0.24284076046E-01  0.00000000000E+00 0. -1.
     999901    1    3    3    0    0 -0.11615386908E+00 -0.45929230533E-01 -0.68998168379E-01  0.89149423036E+00  0.88000000000E+00 0. -1.
        -11    1    4    4    0    0  0.55124930729E-01  0.18391846344E-01  0.29771381835E-01  0.65296357457E-01  0.51100000000E-03 0.  1.
         11    1    4    4    0    0  0.46879751461E-01  0.35989045534E-01  0.21391813034E-01  0.62855336140E-01  0.51100000000E-03 0. -1.
</event>
<event>
 8    1  0.1086235E+005  0.1043930E+01  0.7957747E-01            NaN
         13   -1    0    0    0    0  0.00000000000E+00  0.00000000000E+00  0.74505805969E-08  0.10566000000E+00  0.10566000000E+00 0. -1.
     999900   -1    0    0    0    0 -0.00000000000E+00 -0.00000000000E+00 -0.74505805969E-08  0.93827000000E+00  0.93827000000E+00 0.  1.
     999902    2    1    2    0    0 -0.19632448336E-01  0.48764460689E-02 -0.13529767283E-01  0.10195934564E+01  0.10193029721E+01 0.  0.
     999903    2    3    3    0    0 -0.26533418874E-01  0.21246541577E-01  0.12271517965E+00  0.12893174224E+00  0.20222289541E-01 0.  0.
         14    1    1    2    0    0  0.19632448336E-01 -0.48764460689E-02  0.13529767283E-01  0.24336543647E-01  0.00000000000E+00 0. -1.
     999901    1    3    3    0    0  0.69009705379E-02 -0.16370095508E-01 -0.13624494693E+00  0.89066171411E+00  0.88000000000E+00 0.  1.
        -11    1    4    4    0    0 -0.15909022874E-01  0.15204759719E-01  0.43238776342E-01  0.48519425259E-01  0.51100000000E-03 0.  1.
         11    1    4    4    0    0 -0.10624396001E-01  0.60417818574E-02  0.79476403309E-01  0.80412316981E-01  0.51100000000E-03 0. -1.
</event>
<event>
 8    1  0.1086235E+005  0.1043930E+01  0.7957747E-01            NaN
         13   -1    0    0    0    0  0.00000000000E+00  0.00000000000E+00  0.74505805969E-08  0.10566000000E+00  0.10566000000E+00 0.  1.
     999900   -1    0    0    0    0 -0.00000000000E+00 -0.00000000000E+00 -0.74505805969E-08  0.93827000000E+00  0.93827000000E+00 0.  1.
     999902    2    1    2    0    0  0.27840354748E-01 -0.16356978042E-01  0.43308286056E-02  0.10113509859E+01  0.10108261099E+01 0.  0.
     999903    2    3    3    0    0 -0.14826660331E-01  0.11627864133E+00  0.17042900983E-01  0.12029864261E+00  0.20994062361E-01 0.  0.
         14    1    1    2    0    0 -0.27840354748E-01  0.16356978042E-01 -0.43308286056E-02  0.32579014097E-01  0.00000000000E+00 0.  1.
     999901    1    3    3    0    0  0.42667015078E-01 -0.13263561937E+00 -0.12712072378E-01  0.89105234329E+00  0.88000000000E+00 0. -1.
        -11    1    4    4    0    0 -0.22343050175E-02  0.73120261787E-01  0.30854603492E-02  0.73221212700E-01  0.51100000000E-03 0. -1.
         11    1    4    4    0    0 -0.12592355313E-01  0.43158379542E-01  0.13957440634E-01  0.47077429912E-01  0.51100000000E-03 0.  1.
</event>
<event>
 8    1  0.1086235E+005  0.1043930E+01  0.7957747E-01            NaN
         13   -1    0    0    0    0  0.00000000000E+00  0.00000000000E+00  0.74505805969E-08  0.10566000000E+00  0.10566000000E+00 0. -1.
     999900   -1    0    0    0    0 -0.00000000000E+00 -0.00000000000E+00 -0.74505805969E-08  0.93827000000E+00  0.93827000000E+00 0.  1.
     999902    2    1    2    0    0 -0.63007001155E-02 -0.83679539895E-02 -0.23829815005E-01  0.10178996032E+01  0.10175667155E+01 0.  0.
     999903    2    3    3    0    0 -0.22483047921E-01 -0.10212687974E+00  0.70208795181E-01  0.12778957360E+00  0.21575754721E-01 0.  0.
         14    1    1    2    0    0  0.63007001155E-02  0.83679539895E-02  0.23829815005E-01  0.26030396829E-01  0.00000000000E+00 0. -1.
     999901    1    3    3    0    0  0.16182347805E-01  0.93758925746E-01 -0.94038610186E-01  0.89011002957E+00  0.88000000000E+00 0.  1.
        -11    1    4    4    0    0  0.39607161176E-03 -0.30034861385E-01  0.12010789300E-01  0.32353824376E-01  0.51100000000E-03 0. -1.
         11    1    4    4    0    0 -0.22879119533E-01 -0.72092018350E-01  0.58198005881E-01  0.95435749224E-01  0.51100000000E-03 0.  1.
</event>
<event>
 8    1  0.1086235E+005  0.1043930E+01  0.7957747E-01            NaN
         13   -1    0    0    0    0  0.00000000000E+00  0.00000000000E+00  0.74505805969E-08  0.10566000000E+00  0.10566000000E+00 0. -1.
     999900   -1    0    0    0    0 -0.00000000000E+00 -0.00000000000E+00 -0.74505805969E-08  0.93827000000E+00  0.93827000000E+00 0.  1.
     999902    2    1    2    0    0 -0.64917296968E-02  0.90187519233E-02  0.20837910341E-01  0.10203143495E+01  0.10200410153E+01 0.  0.
     999903    2    3    3    0    0 -0.10598016979E+00 -0.37222927179E-01 -0.61662987524E-01  0.12967264784E+00  0.19882878840E-01 0.  0.
         14    1    1    2    0    0  0.64917296968E-02 -0.90187519233E-02 -0.20837910341E-01  0.23615650491E-01  0.00000000000E+00 0.  1.
     999901    1    3    3    0    0  0.99488440096E-01  0.46241679103E-01  0.82500897866E-01  0.89064170167E+00  0.88000000000E+00 0.  1.
        -11    1    4    4    0    0 -0.69627916923E-01 -0.22741527479E-01 -0.29306100894E-01  0.78894439333E-01  0.51100000000E-03 0.  1.
         11    1    4    4    0    0 -0.36352252870E-01 -0.14481399700E-01 -0.32356886631E-01  0.50778208510E-01  0.51100000000E-03 0. -1.
</event>
<event>
 8    1  0.1086235E+005  0.1043930E+01  0.7957747E-01            NaN
         13   -1    0    0    0    0  0.00000000000E+00  0.00000000000E+00  0.74505805969E-08  0.10566000000E+00  0.10566000000E+00 0.  1.
     999900   -1    0    0    0    0 -0.00000000000E+00 -0.00000000000E+00 -0.74505805969E-08  0.93827000000E+00  0.93827000000E+00 0.  1.
     999902    2    1    2    0    0 -0.93153415560E-02 -0.79900723047E-02 -0.75622958625E-02  0.10295145513E+01  0.10294136225E+01 0.  0.
     999903    2    3    3    0    0  0.69613914019E-01  0.53441675602E-01  0.10317036991E+00  0.13695339912E+00  0.20248421842E-01 0.  0.
         14    1    1    2    0    0  0.93153415560E-02  0.79900723047E-02  0.75622958625E-02  0.14415448743E-01  0.00000000000E+00 0.  1.
     999901    1    3    3    0    0 -0.78929255575E-01 -0.61431747907E-01 -0.11073266577E+00  0.89256115214E+00  0.88000000000E+00 0.  1.
        -11    1    4    4    0    0  0.52666320037E-01  0.39259874560E-01  0.89292902078E-01  0.11085378884E+00  0.51100000000E-03 0. -1.
         11    1    4    4    0    0  0.16947593982E-01  0.14181801042E-01  0.13877467831E-01  0.26099610284E-01  0.51100000000E-03 0.  1.
</event>
<event>
 8    1  0.1086235E+005  0.1043930E+01  0.7957747E-01            NaN
         13   -1    0    0    0    0  0.00000000000E+00  0.00000000000E+00  0.74505805969E-08  0.10566000000E+00  0.10566000000E+00 0.  1.
     999900   -1    0    0    0    0 -0.00000000000E+00 -0.00000000000E+00 -0.74505805969E-08  0.93827000000E+00  0.93827000000E+00 0. -1.
     999902    2    1    2    0    0  0.64306584715E-03 -0.20086356988E-01  0.19800265784E-02  0.10237360461E+01  0.10235368563E+01 0.  0.
     999903    2    3    3    0    0  0.10080879938E+00  0.41608581111E-01 -0.72902449805E-01  0.13275522424E+00  0.20383677821E-01 0.  0.
         14    1    1    2    0    0 -0.64306584715E-03  0.20086356988E-01 -0.19800265784E-02  0.20193953946E-01  0.00000000000E+00 0.  1.
     999901    1    3    3    0    0 -0.10016573354E+00 -0.61694938099E-01  0.74882476383E-01  0.89098082181E+00  0.88000000000E+00 0. -1.
        -11    1    4    4    0    0  0.61016492482E-01  0.35238105574E-01 -0.49999068003E-01  0.86399678017E-01  0.51100000000E-03 0. -1.
         11    1    4    4    0    0  0.39792306902E-01  0.63704755363E-02 -0.22903381802E-01  0.46355546228E-01  0.51100000000E-03 0.  1.
</event>
<event>
 8    1  0.1086235E+005  0.1043930E+01  0.7957747E-01            NaN
         13   -1    0    0    0    0  0.00000000000E+00  0.00000000000E+00  0.74505805969E-08  0.10566000000E+00  0.10566000000E+00 0.  1.
     999900   -1    0    0    0    0 -0.00000000000E+00 -0.00000000000E+00 -0.74505805969E-08  0.93827000000E+00  0.93827000000E+00 0.  1.
     999902    2    1    2    0    0  0.22709423644E-01  0.64553740897E-02  0.42710274209E-02  0.10199376793E+01  0.10196554507E+01 0.  0.
     999903    2    3    3    0    0  0.11014534545E+00 -0.12097957517E-01 -0.65523177207E-01  0.13266066646E+00  0.32050085378E-01 0.  0.
         14    1    1    2    0    0 -0.22709423644E-01 -0.64553740897E-02 -0.42710274209E-02  0.23992320690E-01  0.00000000000E+00 0.  1.
     999901    1    3    3    0    0 -0.87435921809E-01  0.18553331607E-01  0.69794204628E-01  0.88727701285E+00  0.88000000000E+00 0. -1.
        -11    1    4    4    0    0  0.55962238032E-01 -0.19929086352E-01 -0.24559004556E-01  0.64283329053E-01  0.51100000000E-03 0. -1.
         11    1    4    4    0    0  0.54183107421E-01  0.78311288349E-02 -0.40964172650E-01  0.68377337404E-01  0.51100000000E-03 0.  1.
</event>
<event>
 8    1  0.1086235E+005  0.1043930E+01  0.7957747E-01            NaN
         13   -1    0    0    0    0  0.00000000000E+00  0.00000000000E+00  0.74505805969E-08  0.10566000000E+00  0.10566000000E+00 0.  1.
     999900   -1    0    0    0    0 -0.00000000000E+00 -0.00000000000E+00 -0.74505805969E-08  0.93827000000E+00  0.93827000000E+00 0. -1.
     999902    2    1    2    0    0 -0.96888666303E-02  0.22413930621E-02  0.22471520420E-01  0.10193562903E+01  0.10190600470E+01 0.  0.
     999903    2    3    3    0    0 -0.57263334155E-01  0.58533509247E-02 -0.11225051863E+00  0.12782591839E+00  0.20638200590E-01 0.  0.
         14    1    1    2    0    0  0.96888666303E-02 -0.22413930621E-02 -0.22471520420E-01  0.24573709721E-01  0.00000000000E+00 0.  1.
     999901    1    3    3    0    0  0.47574467525E-01 -0.36119578626E-02  0.13472203905E+00  0.89153037189E+00  0.88000000000E+00 0.  1.
        -11    1    4    4    0    0 -0.24477631439E-01  0.15653358372E-02 -0.69988728470E-01  0.74163926210E-01  0.51100000000E-03 0. -1.
         11    1    4    4    0    0 -0.32785702716E-01  0.42880150875E-02 -0.42261790159E-01  0.53661992177E-01  0.51100000000E-03 0.  1.
</event>
<event>
 8    1  0.1086235E+005  0.1043930E+01  0.7957747E-01            NaN
         13   -1    0    0    0    0  0.00000000000E+00  0.00000000000E+00  0.74505805969E-08  0.10566000000E+00  0.10566000000E+00 0. -1.
     999900   -1    0    0    0    0 -0.00000000000E+00 -0.00000000000E+00 -0.74505805969E-08  0.93827000000E+00  0.93827000000E+00 0. -1.
     999902    2    1    2    0    0  0.64759537410E-02  0.12928191530E-01 -0.18861288535E-01  0.10201639671E+01  0.10198870994E+01 0.  0.
     999903    2    3    3    0    0 -0.93482481439E-01  0.89540078781E-01 -0.23815031641E-03  0.13100262558E+00  0.20130353933E-01 0.  0.
         14    1    1    2    0    0 -0.64759537410E-02 -0.12928191530E-01  0.18861288535E-01  0.23766032868E-01  0.00000000000E+00 0. -1.
     999901    1    3    3    0    0  0.99958435180E-01 -0.76611887251E-01 -0.18623138218E-01  0.88916134155E+00  0.88000000000E+00 0.  1.
        -11    1    4    4    0    0 -0.69565116921E-01  0.66776627900E-01  0.86160322385E-02  0.96813845386E-01  0.51100000000E-03 0.  1.
         11    1    4    4    0    0 -0.23917364518E-01  0.22763450882E-01 -0.88541825549E-02  0.34188780195E-01  0.51100000000E-03 0. -1.
</event>
<event>
 8    1  0.1086235E+005  0.1043930E+01  0.7957747E-01            NaN
         13   -1    0    0    0    0  0.00000000000E+00  0.00000000000E+00  0.74505805969E-08  0.10566000000E+00  0.10566000000E+00 0.  1.
     999900   -1    0    0    0    0 -0.00000000000E+00 -0.00000000000E+00 -0.74505805969E-08  0.93827000000E+00  0.93827000000E+00 0.  1.
     999902    2    1    2    0    0 -0.87059170211E-02  0.20588940760E-01 -0.69969194080E-02  0.10205066280E+01  0.10202377779E+01 0.  0.
     999903    2    3    3    0    0  0.10837533588E+00 -0.27476537552E-01  0.60944493981E-01  0.12885964316E+00  0.19758611952E-01 0.  0.
         14    1    1    2    0    0  0.87059170211E-02 -0.20588940760E-01  0.69969194080E-02  0.23423371960E-01  0.00000000000E+00 0. -1.
     999901    1    3    3    0    0 -0.11708125290E+00  0.48065478312E-01 -0.67941413389E-01  0.89164698488E+00  0.88000000000E+00 0.  1.
        -11    1    4    4    0    0  0.36330160528E-01 -0.17275260124E-01  0.27792492281E-01  0.48897841717E-01  0.51100000000E-03 0.  1.
         11    1    4    4    0    0  0.72045175353E-01 -0.10201277428E-01  0.33152001700E-01  0.79961801446E-01  0.51100000000E-03 0. -1.
</event>
<event>
 8    1  0.1086235E+005  0.1043930E+01  0.7957747E-01            NaN
         13   -1    0    0    0    0  0.00000000000E+00  0.00000000000E+00  0.74505805969E-08  0.10566000000E+00  0.10566000000E+00 0. -1.
     999900   -1    0    0    0    0 -0.00000000000E+00 -0.00000000000E+00 -0.74505805969E-08  0.93827000000E+00  0.93827000000E+00 0.  1.
     999902    2    1    2    0    0  0.14558738480E-01  0.12602453578E-01  0.71283337585E-02  0.10233972982E+01  0.10231913008E+01 0.  0.
     999903    2    3    3    0    0 -0.85230621990E-01 -0.42980215779E-01  0.89246180980E-01  0.13222352700E+00  0.20164880318E-01 0.  0.
         14    1    1    2    0    0 -0.14558738480E-01 -0.12602453578E-01 -0.71283337585E-02  0.20532701831E-01  0.00000000000E+00 0. -1.
     999901    1    3    3    0    0  0.99789360470E-01  0.55582669357E-01 -0.82117847222E-01  0.89117377117E+00  0.88000000000E+00 0.  1.
        -11    1    4    4    0    0 -0.76032745774E-01 -0.39635101269E-01  0.70248777265E-01  0.11084706361E+00  0.51100000000E-03 0.  1.
         11    1    4    4    0    0 -0.91978762160E-02 -0.33451145103E-02  0.18997403715E-01  0.21376463386E-01  0.51100000000E-03 0. -1.
</event>
<event>
 8    1  0.1086235E+005  0.1043930E+01  0.7957747E-01            NaN
         13   -1    0    0    0    0  0.00000000000E+00  0.00000000000E+00  0.74505805969E-08  0.10566000000E+00  0.10566000000E+00 0. -1.
     999900   -1    0    0    0    0 -0.00000000000E+00 -0.00000000000E+00 -0.74505805969E-08  0.93827000000E+00  0.93827000000E+00 0. -1.
     999902    2    1    2    0    0  0.12821015255E-01  0.20989801211E-02 -0.18976084763E-01  0.10209326971E+01  0.10206736481E+01 0.  0.
     999903    2    3    3    0    0  0.12601840373E+00  0.36348036193E-02  0.33842589185E-01  0.13210998142E+00  0.20343954196E-01 0.  0.
         14    1    1    2    0    0 -0.12821015255E-01 -0.20989801211E-02  0.18976084763E-01  0.22997302943E-01  0.00000000000E+00 0. -1.
     999901    1    3    3    0    0 -0.11319738848E+00 -0.15358234983E-02 -0.52818673948E-01  0.88882271564E+00  0.88000000000E+00 0. -1.
        -11    1    4    4    0    0  0.57192774782E-01  0.11584535741E-01  0.17493432394E-01  0.60922050635E-01  0.51100000000E-03 0.  1.
         11    1    4    4    0    0  0.68825628949E-01 -0.79497321213E-02  0.16349156791E-01  0.71187930787E-01  0.51100000000E-03 0. -1.
</event>
<event>
 8    1  0.1086235E+005  0.1043930E+01  0.7957747E-01            NaN
         13   -1    0    0    0    0  0.00000000000E+00  0.00000000000E+00  0.74505805969E-08  0.10566000000E+00  0.10566000000E+00 0. -1.
     999900   -1    0    0    0    0 -0.00000000000E+00 -0.00000000000E+00 -0.74505805969E-08  0.93827000000E+00  0.93827000000E+00 0.  1.
     999902    2    1    2    0    0 -0.31348236984E-02  0.64736343078E-02 -0.23188446252E-01  0.10196516331E+01  0.10193625526E+01 0.  0.
     999903    2    3    3    0    0 -0.10374724416E+00 -0.22501220744E-01  0.69912764461E-01  0.12856789021E+00  0.19290208670E-01 0.  0.
         14    1    1    2    0    0  0.31348236984E-02 -0.64736343078E-02  0.23188446252E-01  0.24278366921E-01  0.00000000000E+00 0. -1.
     999901    1    3    3    0    0  0.10061242047E+00  0.28974855052E-01 -0.93101210713E-01  0.89108374287E+00  0.88000000000E+00 0.  1.
        -11    1    4    4    0    0 -0.79955387905E-01 -0.21458616211E-01  0.62134661026E-01  0.10350996805E+00  0.51100000000E-03 0.  1.
         11    1    4    4    0    0 -0.23791856260E-01 -0.10426045336E-02  0.77781034348E-02  0.25057922151E-01  0.51100000000E-03 0. -1.
</event>
<event>
 8    1  0.1086235E+005  0.1043930E+01  0.7957747E-01            NaN
         13   -1    0    0    0    0  0.00000000000E+00  0.00000000000E+00  0.74505805969E-08  0.10566000000E+00  0.10566000000E+00 0. -1.
     999900   -1    0    0    0    0 -0.00000000000E+00 -0.00000000000E+00 -0.74505805969E-08  0.93827000000E+00  0.93827000000E+00 0.  1.
     999902    2    1    2    0    0 -0.43002813674E-02 -0.18755307369E-01  0.13652473455E-01  0.10203366957E+01  0.10200638846E+01 0.  0.
     999903    2    3    3    0    0 -0.99990047905E-01  0.45788616559E-01 -0.65037383476E-01  0.12931787264E+00  0.19966067437E-01 0.  0.
         14    1    1    2    0    0  0.43002813674E-02  0.18755307369E-01 -0.13652473455E-01  0.23593304257E-01  0.00000000000E+00 0.  1.
     999901    1    3    3    0    0  0.95689766538E-01 -0.64543923928E-01  0.78689856931E-01  0.89101882310E+00  0.88000000000E+00 0.  1.
        -11    1    4    4    0    0  0.72527764621E-03  0.15134223897E-02 -0.99636189391E-03  0.20175066338E-02  0.51100000000E-03 0. -1.
         11    1    4    4    0    0 -0.10071532555E+00  0.44275194169E-01 -0.64041021582E-01  0.12730036601E+00  0.51100000000E-03 0.  1.
</event>
<event>
 8    1  0.1086235E+005  0.1043930E+01  0.7957747E-01            NaN
         13   -1    0    0    0    0  0.00000000000E+00  0.00000000000E+00  0.74505805969E-08  0.10566000000E+00  0.10566000000E+00 0.  1.
     999900   -1    0    0    0    0 -0.00000000000E+00 -0.00000000000E+00 -0.74505805969E-08  0.93827000000E+00  0.93827000000E+00 0.  1.
     999902    2    1    2    0    0  0.54859924954E-02 -0.22321704500E-01 -0.20720546296E-02  0.10208508316E+01  0.10205899139E+01 0.  0.
     999903    2    3    3    0    0 -0.76959411105E-01 -0.69284669454E-01 -0.80205167633E-01  0.13230845891E+00  0.18696069227E-01 0.  0.
         14    1    1    2    0    0 -0.54859924954E-02  0.22321704500E-01  0.20720546296E-02  0.23079168439E-01  0.00000000000E+00 0.  1.
     999901    1    3    3    0    0  0.82445403600E-01  0.46962964954E-01  0.78133113004E-01  0.88854237265E+00  0.88000000000E+00 0.  1.
        -11    1    4    4    0    0 -0.50221008928E-01 -0.34015221103E-01 -0.51314007353E-01  0.79451705306E-01  0.51100000000E-03 0.  1.
         11    1    4    4    0    0 -0.26738402177E-01 -0.35269448352E-01 -0.28891160280E-01  0.52856753602E-01  0.51100000000E-03 0. -1.
</event>
<event>
 8    1  0.1086235E+005  0.1043930E+01  0.7957747E-01            NaN
         13   -1    0    0    0    0  0.00000000000E+00  0.00000000000E+00  0.74505805969E-08  0.10566000000E+00  0.10566000000E+00 0.  1.
     999900   -1    0    0    0    0 -0.00000000000E+00 -0.00000000000E+00 -0.74505805969E-08  0.93827000000E+00  0.93827000000E+00 0.  1.
     999902    2    1    2    0    0 -0.14264039238E-02 -0.22647545918E-01  0.84240573658E-03  0.10212219483E+01  0.10209694472E+01 0.  0.
     999903    2    3    3    0    0  0.10975914038E-01  0.11794467326E+00 -0.46129820025E-01  0.12873868260E+00  0.20353659679E-01 0.  0.
         14    1    1    2    0    0  0.14264039238E-02  0.22647545918E-01 -0.84240573658E-03  0.22708051693E-01  0.00000000000E+00 0.  1.
     999901    1    3    3    0    0 -0.12402317961E-01 -0.14059221917E+00  0.46972225761E-01  0.89248326571E+00  0.88000000000E+00 0.  1.
        -11    1    4    4    0    0  0.44990831617E-02  0.46446434240E-02 -0.43314471853E-02  0.77998088150E-02  0.51100000000E-03 0.  1.
         11    1    4    4    0    0  0.64768308760E-02  0.11330002983E+00 -0.41798372839E-01  0.12093887378E+00  0.51100000000E-03 0. -1.
</event>
<event>
 8    1  0.1086235E+005  0.1043930E+01  0.7957747E-01            NaN
         13   -1    0    0    0    0  0.00000000000E+00  0.00000000000E+00  0.74505805969E-08  0.10566000000E+00  0.10566000000E+00 0.  1.
     999900   -1    0    0    0    0 -0.00000000000E+00 -0.00000000000E+00 -0.74505805969E-08  0.93827000000E+00  0.93827000000E+00 0. -1.
     999902    2    1    2    0    0 -0.21044823211E-01  0.10022279010E-01 -0.33426745275E-02  0.10203820886E+01  0.10201103384E+01 0.  0.
     999903    2    3    3    0    0 -0.67429933876E-01  0.18225998688E-01  0.11009553282E+00  0.13185121886E+00  0.19614651572E-01 0.  0.
         14    1    1    2    0    0  0.21044823211E-01 -0.10022279010E-01  0.33426745275E-02  0.23547911448E-01  0.00000000000E+00 0.  1.
     999901    1    3    3    0    0  0.46385110665E-01 -0.82037196786E-02 -0.11343820735E+00  0.88853086969E+00  0.88000000000E+00 0. -1.
        -11    1    4    4    0    0 -0.26179666235E-01  0.68294913429E-02  0.26181170825E-01  0.37652778157E-01  0.51100000000E-03 0.  1.
         11    1    4    4    0    0 -0.41250267642E-01  0.11396507345E-01  0.83914362000E-01  0.94198440704E-01  0.51100000000E-03 0. -1.
</event>
<event>
 8    1  0.1086235E+005  0.1043930E+01  0.7957747E-01            NaN
         13   -1    0    0    0    0  0.00000000000E+00  0.00000000000E+00  0.74505805969E-08  0.10566000000E+00  0.10566000000E+00 0. -1.
     999900   -1    0    0    0    0 -0.00000000000E+00 -0.00000000000E+00 -0.74505805969E-08  0.93827000000E+00  0.93827000000E+00 0. -1.
     999902    2    1    2    0    0 -0.14662662616E-02  0.16670517906E-01 -0.17587944487E-01  0.10196526053E+01  0.10193635483E+01 0.  0.
     999903    2    3    3    0    0 -0.49963194790E-01  0.88858352653E-01  0.78519149696E-01  0.13015858667E+00  0.19592680891E-01 0.  0.
         14    1    1    2    0    0  0.14662662616E-02 -0.16670517906E-01  0.17587944487E-01  0.24277394738E-01  0.00000000000E+00 0.  1.
     999901    1    3    3    0    0  0.48496928529E-01 -0.72187834747E-01 -0.96107094183E-01  0.88949401859E+00  0.88000000000E+00 0. -1.
        -11    1    4    4    0    0 -0.91156332536E-02  0.10254457040E-01  0.37386159576E-02  0.14229793711E-01  0.51100000000E-03 0. -1.
         11    1    4    4    0    0 -0.40847561537E-01  0.78603895613E-01  0.74780533739E-01  0.11592879296E+00  0.51100000000E-03 0.  1.
</event>
<event>
 8    1  0.1086235E+005  0.1043930E+01  0.7957747E-01            NaN
         13   -1    0    0    0    0  0.00000000000E+00  0.00000000000E+00  0.74505805969E-08  0.10566000000E+00  0.10566000000E+00 0. -1.
     999900   -1    0    0    0    0 -0.00000000000E+00 -0.00000000000E+00 -0.74505805969E-08  0.93827000000E+00  0.93827000000E+00 0.  1.
     999902    2    1    2    0    0  0.41239247831E-02  0.17611597918E-01 -0.17978509188E-01  0.10184270212E+01  0.10181076542E+01 0.  0.
     999903    2    3    3    0    0  0.11769028139E+00  0.10128182706E-01  0.47095081894E-01  0.12871476930E+00  0.19898811007E-01 0.  0.
         14    1    1    2    0    0 -0.41239247831E-02 -0.17611597918E-01  0.17978509188E-01  0.25502978835E-01  0.00000000000E+00 0.  1.
     999901    1    3    3    0    0 -0.11356635661E+00  0.74834152124E-02 -0.65073591082E-01  0.88971225186E+00  0.88000000000E+00 0. -1.
        -11    1    4    4    0    0  0.61912241017E-01 -0.37820187134E-02  0.28763109354E-01  0.68374021631E-01  0.51100000000E-03 0.  1.
         11    1    4    4    0    0  0.55778040373E-01  0.13910201419E-01  0.18331972540E-01  0.60340747672E-01  0.51100000000E-03 0. -1.
</event>
<event>
 8    1  0.1086235E+005  0.1043930E+01  0.7957747E-01            NaN
         13   -1    0    0    0    0  0.00000000000E+00  0.00000000000E+00  0.74505805969E-08  0.10566000000E+00  0.10566000000E+00 0. -1.
     999900   -1    0    0    0    0 -0.00000000000E+00 -0.00000000000E+00 -0.74505805969E-08  0.93827000000E+00  0.93827000000E+00 0. -1.
     999902    2    1    2    0    0  0.16330236174E-01  0.66413265255E-02 -0.14800966277E-01  0.10209114763E+01  0.10206519436E+01 0.  0.
     999903    2    3    3    0    0 -0.89341616230E-01 -0.82516251337E-01 -0.40452533925E-01  0.12974728434E+00  0.20176574691E-01 0.  0.
         14    1    1    2    0    0 -0.16330236174E-01 -0.66413265255E-02  0.14800966277E-01  0.23018523720E-01  0.00000000000E+00 0.  1.
     999901    1    3    3    0    0  0.10567185240E+00  0.89157577863E-01  0.25651567648E-01  0.89116419194E+00  0.88000000000E+00 0.  1.
        -11    1    4    4    0    0 -0.39834657039E-01 -0.24300983408E-01 -0.18881427381E-01  0.50339915743E-01  0.51100000000E-03 0. -1.
         11    1    4    4    0    0 -0.49506959191E-01 -0.58215267929E-01 -0.21571106544E-01  0.79407368593E-01  0.51100000000E-03 0.  1.
</event>
<event>
 8    1  0.1086235E+005  0.1043930E+01  0.7957747E-01            NaN
         13   -1    0    0    0    0  0.00000000000E+00  0.00000000000E+00  0.74505805969E-08  0.10566000000E+00  0.10566000000E+00 0.  1.
     999900   -1    0    0    0    0 -0.00000000000E+00 -0.00000000000E+00 -0.74505805969E-08  0.93827000000E+00  0.93827000000E+00 0. -1.
     999902    2    1    2    0    0  0.90678741195E-02 -0.25872495850E-02 -0.19950134163E-01  0.10218635536E+01  0.10216252709E+01 0.  0.
     999903    2    3    3    0    0 -0.10552948995E-01  0.59043503658E-01  0.11360467079E+00  0.12943976846E+00  0.15847156726E-01 0.  0.
         14    1    1    2    0    0 -0.90678741195E-02  0.25872495850E-02  0.19950134163E-01  0.22066446351E-01  0.00000000000E+00 0.  1.
     999901    1    3    3    0    0  0.19620823114E-01 -0.61630753243E-01 -0.13355480496E+00  0.89242378519E+00  0.88000000000E+00 0. -1.
        -11    1    4    4    0    0 -0.96642287794E-04  0.79822311215E-02  0.64328086893E-02  0.10264867366E-01  0.51100000000E-03 0. -1.
         11    1    4    4    0    0 -0.10456306707E-01  0.51061272537E-01  0.10717186210E+00  0.11917490109E+00  0.51100000000E-03 0.  1.
</event>
<event>
 8    1  0.1086235E+005  0.1043930E+01  0.7957747E-01            NaN
         13   -1    0    0    0    0  0.00000000000E+00  0.00000000000E+00  0.74505805969E-08  0.10566000000E+00  0.10566000000E+00 0.  1.
     999900   -1    0    0    0    0 -0.00000000000E+00 -0.00000000000E+00 -0.74505805969E-08  0.93827000000E+00  0.93827000000E+00 0. -1.
     999902    2    1    2    0    0 -0.77020699987E-02  0.12068206978E-01 -0.15431217512E-01  0.10228803925E+01  0.10226637822E+01 0.  0.
     999903    2    3    3    0    0 -0.99924491693E-01  0.63057896948E-01  0.58889553370E-01  0.13348256221E+00  0.19708183831E-01 0.  0.
         14    1    1    2    0    0  0.77020699987E-02 -0.12068206978E-01  0.15431217512E-01  0.21049607499E-01  0.00000000000E+00 0.  1.
     999901    1    3    3    0    0  0.92222421694E-01 -0.50989689970E-01 -0.74320770882E-01  0.88939783029E+00  0.88000000000E+00 0. -1.
        -11    1    4    4    0    0 -0.60531764585E-01  0.27039214955E-01  0.29751373104E-01  0.72667867670E-01  0.51100000000E-03 0. -1.
         11    1    4    4    0    0 -0.39392727108E-01  0.36018681993E-01  0.29138180266E-01  0.60814694538E-01  0.51100000000E-03 0.  1.
</event>
<event>
 8    1  0.1086235E+005  0.1043930E+01  0.7957747E-01            NaN
         13   -1    0    0    0    0  0.00000000000E+00  0.00000000000E+00  0.74505805969E-08  0.10566000000E+00  0.10566000000E+00 0.  1.
     999900   -1    0    0    0    0 -0.00000000000E+00 -0.00000000000E+00 -0.74505805969E-08  0.93827000000E+00  0.93827000000E+00 0. -1.
     999902    2    1    2    0    0  0.21055842009E-01 -0.14259473894E-01  0.17618180737E-02  0.10184391177E+01  0.10181200574E+01 0.  0.
     999903    2    3    3    0    0  0.96406122845E-01 -0.81594338551E-01  0.32947988882E-01  0.13210722382E+00  0.20370861774E-01 0.  0.
         14    1    1    2    0    0 -0.21055842009E-01  0.14259473894E-01 -0.17618180737E-02  0.25490882318E-01  0.00000000000E+00 0.  1.
     999901    1    3    3    0    0 -0.75350280836E-01  0.67334864657E-01 -0.31186170808E-01  0.88633189386E+00  0.88000000000E+00 0.  1.
        -11    1    4    4    0    0  0.13938647168E-01 -0.21288631631E-01  0.29099008604E-02  0.25616798504E-01  0.51100000000E-03 0.  1.
         11    1    4    4    0    0  0.82467475677E-01 -0.60305706920E-01  0.30038088021E-01  0.10649042532E+00  0.51100000000E-03 0. -1.
</event>
<event>
 8    1  0.1086235E+005  0.1043930E+01  0.7957747E-01            NaN
         13   -1    0    0    0    0  0.00000000000E+00  0.00000000000E+00  0.74505805969E-08  0.10566000000E+00  0.10566000000E+00 0. -1.
     999900   -1    0    0    0    0 -0.00000000000E+00 -0.00000000000E+00 -0.74505805969E-08  0.93827000000E+00  0.93827000000E+00 0. -1.
     999902    2    1    2    0    0 -0.27599626277E-02 -0.13083237132E-01 -0.18863111083E-01  0.10208084636E+01  0.10205465760E+01 0.  0.
     999903    2    3    3    0    0 -0.13049501653E+00  0.74252696308E-02  0.37457660775E-02  0.13106243004E+00  0.89020129474E-02 0.  0.
         14    1    1    2    0    0  0.27599626277E-02  0.13083237132E-01  0.18863111083E-01  0.23121536438E-01  0.00000000000E+00 0. -1.
     999901    1    3    3    0    0  0.12773505391E+00 -0.20508506762E-01 -0.22608877160E-01  0.88974603352E+00  0.88000000000E+00 0. -1.
        -11    1    4    4    0    0 -0.66731066271E-01  0.80067090331E-02  0.55311744230E-03  0.67213909685E-01  0.51100000000E-03 0.  1.
         11    1    4    4    0    0 -0.63763950263E-01 -0.58143940235E-03  0.31926486352E-02  0.63848520353E-01  0.51100000000E-03 0. -1.
</event>
<event>
 8    1  0.1086235E+005  0.1043930E+01  0.7957747E-01            NaN
         13   -1    0    0    0    0  0.00000000000E+00  0.00000000000E+00  0.74505805969E-08  0.10566000000E+00  0.10566000000E+00 0. -1.
     999900   -1    0    0    0    0 -0.00000000000E+00 -0.00000000000E+00 -0.74505805969E-08  0.93827000000E+00  0.93827000000E+00 0. -1.
     999902    2    1    2    0    0  0.15042297827E-01  0.19787610959E-01 -0.45937084063E-02  0.10186530851E+01  0.10183394254E+01 0.  0.
     999903    2    3    3    0    0  0.79857989561E-01 -0.28794872625E-01 -0.96825010812E-01  0.13013299821E+00  0.18790192096E-01 0.  0.
         14    1    1    2    0    0 -0.15042297827E-01 -0.19787610959E-01  0.45937084063E-02  0.25276914929E-01  0.00000000000E+00 0. -1.
     999901    1    3    3    0    0 -0.64815691734E-01  0.48582483585E-01  0.92231302406E-01  0.88852008686E+00  0.88000000000E+00 0.  1.
        -11    1    4    4    0    0  0.31505850508E-01 -0.65181779424E-02 -0.25104358353E-01  0.40811704072E-01  0.51100000000E-03 0. -1.
         11    1    4    4    0    0  0.48352139053E-01 -0.22276694683E-01 -0.71720652459E-01  0.89321294141E-01  0.51100000000E-03 0.  1.
</event>
<event>
 8    1  0.1086235E+005  0.1043930E+01  0.7957747E-01            NaN
         13   -1    0    0    0    0  0.00000000000E+00  0.00000000000E+00  0.74505805969E-08  0.10566000000E+00  0.10566000000E+00 0. -1.
     999900   -1    0    0    0    0 -0.00000000000E+00 -0.00000000000E+00 -0.74505805969E-08  0.93827000000E+00  0.93827000000E+00 0.  1.
     999902    2    1    2    0    0 -0.12217077827E-02 -0.12368391051E-01  0.21811278166E-01  0.10188261851E+01  0.10185168599E+01 0.  0.
     999903    2    3    3    0    0  0.99687414680E-01 -0.81030126477E-01  0.97762095987E-02  0.13032073899E+00  0.19607618239E-01 0.  0.
         14    1    1    2    0    0  0.12217077827E-02  0.12368391051E-01 -0.21811278166E-01  0.25103814896E-01  0.00000000000E+00 0.  1.
     999901    1    3    3    0    0 -0.10090912246E+00  0.68661735426E-01  0.12035068567E-01  0.88850544612E+00  0.88000000000E+00 0.  1.
        -11    1    4    4    0    0  0.94878056603E-01 -0.76376592944E-01  0.13662854849E-01  0.12256493911E+00  0.51100000000E-03 0.  1.
         11    1    4    4    0    0  0.48093580771E-02 -0.46535335331E-02 -0.38866452504E-02  0.77557998788E-02  0.51100000000E-03 0. -1.
</event>
<event>
 8    1  0.1086235E+005  0.1043930E+01  0.7957747E-01            NaN
         13   -1    0    0    0    0  0.00000000000E+00  0.00000000000E+00  0.74505805969E-08  0.10566000000E+00  0.10566000000E+00 0. -1.
     999900   -1    0    0    0    0 -0.00000000000E+00 -0.00000000000E+00 -0.74505805969E-08  0.93827000000E+00  0.93827000000E+00 0.  1.
     999902    2    1    2    0    0 -0.11898970497E-01  0.19474765691E-01  0.90794084689E-02  0.10193680853E+01  0.10190721297E+01 0.  0.
     999903    2    3    3    0    0 -0.11524136575E+00 -0.49170276864E-01  0.29722591079E-01  0.13042605480E+00  0.20717983595E-01 0.  0.
         14    1    1    2    0    0  0.11898970497E-01 -0.19474765691E-01 -0.90794084689E-02  0.24561914741E-01  0.00000000000E+00 0.  1.
     999901    1    3    3    0    0  0.10334239525E+00  0.68645042555E-01 -0.20643182610E-01  0.88894203046E+00  0.88000000000E+00 0. -1.
        -11    1    4    4    0    0 -0.70382660307E-01 -0.40117527130E-01  0.15347934397E-01  0.82455776427E-01  0.51100000000E-03 0. -1.
         11    1    4    4    0    0 -0.44858705442E-01 -0.90527497343E-02  0.14374656682E-01  0.47970278375E-01  0.51100000000E-03 0.  1.
</event>
<event>
 8    1  0.1086235E+005  0.1043930E+01  0.7957747E-01            NaN
         13   -1    0    0    0    0  0.00000000000E+00  0.00000000000E+00  0.74505805969E-08  0.10566000000E+00  0.10566000000E+00 0.  1.
     999900   -1    0    0    0    0 -0.00000000000E+00 -0.00000000000E+00 -0.74505805969E-08  0.93827000000E+00  0.93827000000E+00 0. -1.
     999902    2    1    2    0    0 -0.14041211579E-01 -0.17716103740E-01 -0.10531160640E-01  0.10189916500E+01  0.10186864393E+01 0.  0.
     999903    2    3    3    0    0  0.20168805437E-02  0.49136748286E-01 -0.11682308016E+00  0.12993308149E+00  0.28574215104E-01 0.  0.
         14    1    1    2    0    0  0.14041211579E-01  0.17716103740E-01  0.10531160640E-01  0.24938349961E-01  0.00000000000E+00 0.  1.
     999901    1    3    3    0    0 -0.16058092123E-01 -0.66852852026E-01  0.10629191952E+00  0.88905856854E+00  0.88000000000E+00 0.  1.
        -11    1    4    4    0    0 -0.11770311498E-02  0.26319130438E-02 -0.39756009841E-01  0.39863690347E-01  0.51100000000E-03 0.  1.
         11    1    4    4    0    0  0.31939116935E-02  0.46504835242E-01 -0.77067070321E-01  0.90069391148E-01  0.51100000000E-03 0. -1.
</event>
<event>
 8    1  0.1086235E+005  0.1043930E+01  0.7957747E-01            NaN
         13   -1    0    0    0    0  0.00000000000E+00  0.00000000000E+00  0.74505805969E-08  0.10566000000E+00  0.10566000000E+00 0.  1.
     999900   -1    0    0    0    0 -0.00000000000E+00 -0.00000000000E+00 -0.74505805969E-08  0.93827000000E+00  0.93827000000E+00 0.  1.
     999902    2    1    2    0    0  0.45538754346E-02  0.24185177723E-01 -0.62130566757E-03  0.10193119858E+01  0.10190146602E+01 0.  0.
     999903    2    3    3    0    0  0.66849437331E-01  0.10660485791E+00  0.36353554859E-01  0.13249696504E+00  0.20010542041E-01 0.  0.
         14    1    1    2    0    0 -0.45538754346E-02 -0.24185177723E-01  0.62130566757E-03  0.24618014211E-01  0.00000000000E+00 0. -1.
     999901    1    3    3    0    0 -0.62295561896E-01 -0.82419680187E-01 -0.36974860527E-01  0.88681502075E+00  0.88000000000E+00 0.  1.
        -11    1    4    4    0    0  0.40814064950E-01  0.46315870927E-01  0.17040400953E-01  0.64043611571E-01  0.51100000000E-03 0.  1.
         11    1    4    4    0    0  0.26035372381E-01  0.60288986983E-01  0.19313153906E-01  0.68453353469E-01  0.51100000000E-03 0. -1.
</event>
<event>
 8    1  0.1086235E+005  0.1043930E+01  0.7957747E-01            NaN
         13   -1    0    0    0    0  0.00000000000E+00  0.00000000000E+00  0.74505805969E-08  0.10566000000E+00  0.10566000000E+00 0.  1.
     999900   -1    0    0    0    0 -0.00000000000E+00 -0.00000000000E+00 -0.74505805969E-08  0.93827000000E+00  0.93827000000E+00 0. -1.
     999902    2    1    2    0    0 -0.12953398752E-01 -0.20087613775E-01  0.15166947063E-02  0.10199799869E+01  0.10196987646E+01 0.  0.
     999903    2    3    3    0    0  0.94816350701E-01  0.38277019618E-01  0.75150293007E-01  0.12844050029E+00  0.19852581285E-01 0.  0.
         14    1    1    2    0    0  0.12953398752E-01  0.20087613775E-01 -0.15166947063E-02  0.23950013137E-01  0.00000000000E+00 0. -1.
     999901    1    3    3    0    0 -0.10776974945E+00 -0.58364633393E-01 -0.73633598300E-01  0.89153948658E+00  0.88000000000E+00 0. -1.
        -11    1    4    4    0    0  0.40083011036E-01  0.90635567215E-02  0.38869110663E-01  0.56567346755E-01  0.51100000000E-03 0.  1.
         11    1    4    4    0    0  0.54733339665E-01  0.29213462896E-01  0.36281182344E-01  0.71873153531E-01  0.51100000000E-03 0. -1.
</event>
<event>
 8    1  0.1086235E+005  0.1043930E+01  0.7957747E-01            NaN
         13   -1    0    0    0    0  0.00000000000E+00  0.00000000000E+00  0.74505805969E-08  0.10566000000E+00  0.10566000000E+00 0. -1.
     999900   -1    0    0    0    0 -0.00000000000E+00 -0.00000000000E+00 -0.74505805969E-08  0.93827000000E+00  0.93827000000E+00 0. -1.
     999902    2    1    2    0    0 -0.14563509017E-02  0.57139571529E-02 -0.97319583214E-02  0.10325510160E+01  0.10324883144E+01 0.  0.
     999903    2    3    3    0    0  0.11606087638E+00  0.37505283180E-01  0.67642066407E-01  0.14080681118E+00  0.19347755256E-01 0.  0.
         14    1    1    2    0    0  0.14563509017E-02 -0.57139571529E-02  0.97319583214E-02  0.11378984008E-01  0.00000000000E+00 0. -1.
     999901    1    3    3    0    0 -0.11751722728E+00 -0.31791326027E-01 -0.77374024729E-01  0.89174420482E+00  0.88000000000E+00 0. -1.
        -11    1    4    4    0    0  0.38819202501E-01  0.49603758702E-02  0.27755763544E-01  0.47981031069E-01  0.51100000000E-03 0.  1.
         11    1    4    4    0    0  0.77241673879E-01  0.32544907309E-01  0.39886302863E-01  0.92825780107E-01  0.51100000000E-03 0. -1.
</event>
<event>
 8    1  0.1086235E+005  0.1043930E+01  0.7957747E-01            NaN
         13   -1    0    0    0    0  0.00000000000E+00  0.00000000000E+00  0.74505805969E-08  0.10566000000E+00  0.10566000000E+00 0.  1.
     999900   -1    0    0    0    0 -0.00000000000E+00 -0.00000000000E+00 -0.74505805969E-08  0.93827000000E+00  0.93827000000E+00 0. -1.
     999902    2    1    2    0    0 -0.14888871567E-01  0.18112253454E-01 -0.99615369813E-02  0.10184552195E+01  0.10181365673E+01 0.  0.
     999903    2    3    3    0    0  0.94640420208E-01  0.82331220130E-01  0.22722844235E-01  0.12874233874E+00  0.17972845889E-01 0.  0.
         14    1    1    2    0    0  0.14888871567E-01 -0.18112253454E-01  0.99615369813E-02  0.25474780485E-01  0.00000000000E+00 0.  1.
     999901    1    3    3    0    0 -0.10952929177E+00 -0.64218966676E-01 -0.32684381216E-01  0.88971288077E+00  0.88000000000E+00 0. -1.
        -11    1    4    4    0    0  0.34742507713E-01  0.38131224834E-01  0.15927300843E-01  0.53990482334E-01  0.51100000000E-03 0.  1.
         11    1    4    4    0    0  0.59897912495E-01  0.44199995296E-01  0.67955433925E-02  0.74751856408E-01  0.51100000000E-03 0. -1.
</event>
<event>
 8    1  0.1086235E+005  0.1043930E+01  0.7957747E-01            NaN
         13   -1    0    0    0    0  0.00000000000E+00  0.00000000000E+00  0.74505805969E-08  0.10566000000E+00  0.10566000000E+00 0.  1.
     999900   -1    0    0    0    0 -0.00000000000E+00 -0.00000000000E+00 -0.74505805969E-08  0.93827000000E+00  0.93827000000E+00 0. -1.
     999902    2    1    2    0    0  0.21812830161E-02  0.17491934025E-02  0.22120730803E-01  0.10216332647E+01  0.10213899271E+01 0.  0.
     999903    2    3    3    0    0  0.40925458642E-01  0.12004171357E+00  0.32698515085E-01  0.13281037966E+00  0.22011312898E-01 0.  0.
         14    1    1    2    0    0 -0.21812830161E-02 -0.17491934025E-02 -0.22120730803E-01  0.22296735286E-01  0.00000000000E+00 0. -1.
     999901    1    3    3    0    0 -0.38744175626E-01 -0.11829252017E+00 -0.10577784282E-01  0.88882288505E+00  0.88000000000E+00 0. -1.
        -11    1    4    4    0    0  0.26955511828E-01  0.47237095052E-01  0.17485859124E-01  0.57131069981E-01  0.51100000000E-03 0. -1.
         11    1    4    4    0    0  0.13969946814E-01  0.72804618517E-01  0.15212655961E-01  0.75679309681E-01  0.51100000000E-03 0.  1.
</event>
<event>
 8    1  0.1086235E+005  0.1043930E+01  0.7957747E-01            NaN
         13   -1    0    0    0    0  0.00000000000E+00  0.00000000000E+00  0.74505805969E-08  0.10566000000E+00  0.10566000000E+00 0. -1.
     999900   -1    0    0    0    0 -0.00000000000E+00 -0.00000000000E+00 -0.74505805969E-08  0.93827000000E+00  0.93827000000E+00 0. -1.
     999902    2    1    2    0    0  0.10416194590E-01  0.28281579948E-01 -0.13000831342E-02  0.10137632121E+01  0.10133142727E+01 0.  0.
     999903    2    3    3    0    0 -0.11229931965E+00 -0.34541642824E-01 -0.29149101637E-01  0.12259464077E+00  0.19378171660E-01 0.  0.
         14    1    1    2    0    0 -0.10416194590E-01 -0.28281579948E-01  0.13000831342E-02  0.30166787867E-01  0.00000000000E+00 0.  1.
     999901    1    3    3    0    0  0.12271551424E+00  0.62823222772E-01  0.27849018503E-01  0.89116857136E+00  0.88000000000E+00 0. -1.
        -11    1    4    4    0    0 -0.51239973476E-01 -0.61002929262E-02 -0.99880113245E-02  0.52562058053E-01  0.51100000000E-03 0. -1.
         11    1    4    4    0    0 -0.61059346172E-01 -0.28441349898E-01 -0.19161090313E-01  0.70032582716E-01  0.51100000000E-03 0.  1.
</event>
<event>
 8    1  0.1086235E+005  0.1043930E+01  0.7957747E-01            NaN
         13   -1    0    0    0    0  0.00000000000E+00  0.00000000000E+00  0.74505805969E-08  0.10566000000E+00  0.10566000000E+00 0.  1.
     999900   -1    0    0    0    0 -0.00000000000E+00 -0.00000000000E+00 -0.74505805969E-08  0.93827000000E+00  0.93827000000E+00 0. -1.
     999902    2    1    2    0    0 -0.60074738799E-02 -0.21057225571E-01 -0.90779507941E-02  0.10202254502E+01  0.10199500299E+01 0.  0.
     999903    2    3    3    0    0  0.36701923468E-01  0.96221413556E-01 -0.75043288166E-01  0.12897363529E+00  0.19927666431E-01 0.  0.
         14    1    1    2    0    0  0.60074738799E-02  0.21057225571E-01  0.90779507941E-02  0.23704549812E-01  0.00000000000E+00 0. -1.
     999901    1    3    3    0    0 -0.42709397347E-01 -0.11727863913E+00  0.65965337372E-01  0.89125181489E+00  0.88000000000E+00 0.  1.
        -11    1    4    4    0    0  0.30836047577E-01  0.62529727714E-01 -0.41877319674E-01  0.81331418912E-01  0.51100000000E-03 0.  1.
         11    1    4    4    0    0  0.58658758910E-02  0.33691685842E-01 -0.33165968492E-01  0.47642216382E-01  0.51100000000E-03 0. -1.
</event>
<event>
 8    1  0.1086235E+005  0.1043930E+01  0.7957747E-01            NaN
         13   -1    0    0    0    0  0.00000000000E+00  0.00000000000E+00  0.74505805969E-08  0.10566000000E+00  0.10566000000E+00 0.  1.
     999900   -1    0    0    0    0 -0.00000000000E+00 -0.00000000000E+00 -0.74505805969E-08  0.93827000000E+00  0.93827000000E+00 0. -1.
     999902    2    1    2    0    0 -0.17614708985E-01 -0.15974147675E-02  0.16323264328E-01  0.10198617914E+01  0.10195777532E+01 0.  0.
     999903    2    3    3    0    0 -0.10502786843E+00 -0.53797255980E-01 -0.53496995019E-01  0.13124446517E+00  0.20932827442E-01 0.  0.
         14    1    1    2    0    0  0.17614708985E-01  0.15974147675E-02 -0.16323264328E-01  0.24068208593E-01  0.00000000000E+00 0. -1.
     999901    1    3    3    0    0  0.87413159445E-01  0.52199841212E-01  0.69820259347E-01  0.88861732623E+00  0.88000000000E+00 0.  1.
        -11    1    4    4    0    0 -0.95816132320E-01 -0.50115952706E-01 -0.41878717250E-01  0.11595873407E+00  0.51100000000E-03 0.  1.
         11    1    4    4    0    0 -0.92117361106E-02 -0.36813032741E-02 -0.11618277769E-01  0.15285731101E-01  0.51100000000E-03 0. -1.
</event>
<event>
 8    1  0.1086235E+005  0.1043930E+01  0.7957747E-01            NaN
         13   -1    0    0    0    0  0.00000000000E+00  0.00000000000E+00  0.74505805969E-08  0.10566000000E+00  0.10566000000E+00 0.  1.
     999900   -1    0    0    0    0 -0.00000000000E+00 -0.00000000000E+00 -0.74505805969E-08  0.93827000000E+00  0.93827000000E+00 0.  1.
     999902    2    1    2    0    0 -0.22050899443E-01  0.72480261412E-02 -0.53356709535E-02  0.10201130851E+01  0.10198350166E+01 0.  0.
     999903    2    3    3    0    0 -0.36003161792E-01  0.12278990541E+00  0.25225649915E-01  0.13192471220E+00  0.19854665591E-01 0.  0.
         14    1    1    2    0    0  0.22050899443E-01 -0.72480261412E-02  0.53356709535E-02  0.23816914866E-01  0.00000000000E+00 0.  1.
     999901    1    3    3    0    0  0.13952262349E-01 -0.11554187927E+00 -0.30561320869E-01  0.88818837294E+00  0.88000000000E+00 0.  1.
        -11    1    4    4    0    0 -0.11728663382E-01  0.56858305004E-01  0.20253027754E-01  0.61488817251E-01  0.51100000000E-03 0.  1.
         11    1    4    4    0    0 -0.24274498410E-01  0.65931600402E-01  0.49726221609E-02  0.70435894945E-01  0.51100000000E-03 0. -1.
</event>
<event>
 8    1  0.1086235E+005  0.1043930E+01  0.7957747E-01            NaN
         13   -1    0    0    0    0  0.00000000000E+00  0.00000000000E+00  0.74505805969E-08  0.10566000000E+00  0.10566000000E+00 0.  1.
     999900   -1    0    0    0    0 -0.00000000000E+00 -0.00000000000E+00 -0.74505805969E-08  0.93827000000E+00  0.93827000000E+00 0.  1.
     999902    2    1    2    0    0  0.19694612114E-01  0.11320011348E-01 -0.35656355270E-02  0.10209357799E+01  0.10206768012E+01 0.  0.
     999903    2    3    3    0    0  0.11867606966E+00 -0.20923492195E-01 -0.53551602813E-01  0.13339109401E+00  0.20089991546E-01 0.  0.
         14    1    1    2    0    0 -0.19694612114E-01 -0.11320011348E-01  0.35656355270E-02  0.22994220142E-01  0.00000000000E+00 0. -1.
     999901    1    3    3    0    0 -0.98981457548E-01  0.32243503542E-01  0.49985967286E-01  0.88754468585E+00  0.88000000000E+00 0.  1.
        -11    1    4    4    0    0  0.77424599441E-01 -0.10069033599E-01 -0.24700974015E-01  0.81892327323E-01  0.51100000000E-03 0.  1.
         11    1    4    4    0    0  0.41251470221E-01 -0.10854458596E-01 -0.28850628797E-01  0.51498766682E-01  0.51100000000E-03 0. -1.
</event>
<event>
 8    1  0.1086235E+005  0.1043930E+01  0.7957747E-01            NaN
         13   -1    0    0    0    0  0.00000000000E+00  0.00000000000E+00  0.74505805969E-08  0.10566000000E+00  0.10566000000E+00 0. -1.
     999900   -1    0    0    0    0 -0.00000000000E+00 -0.00000000000E+00 -0.74505805969E-08  0.93827000000E+00  0.93827000000E+00 0.  1.
     999902    2    1    2    0    0 -0.17749753813E-01 -0.14370048689E-01  0.28219526798E-02  0.10209187967E+01  0.10206594310E+01 0.  0.
     999903    2    3    3    0    0  0.90302995808E-01 -0.84671887165E-01  0.38354342646E-01  0.13081751263E+00  0.17838343045E-01 0.  0.
         14    1    1    2    0    0  0.17749753813E-01  0.14370048689E-01 -0.28219526798E-02  0.23011203286E-01  0.00000000000E+00 0.  1.
     999901    1    3    3    0    0 -0.10805274962E+00  0.70301838476E-01 -0.35532389966E-01  0.89010128409E+00  0.88000000000E+00 0.  1.
        -11    1    4    4    0    0  0.53267538483E-01 -0.39414142347E-01  0.15695442641E-01  0.68099290112E-01  0.51100000000E-03 0. -1.
         11    1    4    4    0    0  0.37035457324E-01 -0.45257744819E-01  0.22658900005E-01  0.62718222517E-01  0.51100000000E-03 0.  1.
</event>
<event>
 8    1  0.1086235E+005  0.1043930E+01  0.7957747E-01            NaN
         13   -1    0    0    0    0  0.00000000000E+00  0.00000000000E+00  0.74505805969E-08  0.10566000000E+00  0.10566000000E+00 0. -1.
     999900   -1    0    0    0    0 -0.00000000000E+00 -0.00000000000E+00 -0.74505805969E-08  0.93827000000E+00  0.93827000000E+00 0. -1.
     999902    2    1    2    0    0 -0.22061733544E-01  0.15667534231E-02 -0.10321991834E-01  0.10195226585E+01  0.10192304611E+01 0.  0.
     999903    2    3    3    0    0  0.94018920250E-01  0.82722522444E-01  0.15641395170E-01  0.12781919070E+00  0.20261273033E-01 0.  0.
         14    1    1    2    0    0  0.22061733544E-01 -0.15667534231E-02  0.10321991834E-01  0.24407341491E-01  0.00000000000E+00 0. -1.
     999901    1    3    3    0    0 -0.11608065379E+00 -0.81155769021E-01 -0.25963387004E-01  0.89170346780E+00  0.88000000000E+00 0. -1.
        -11    1    4    4    0    0  0.27543607795E-01  0.12853664586E-01  0.28312813869E-02  0.30531038288E-01  0.51100000000E-03 0.  1.
         11    1    4    4    0    0  0.66475312455E-01  0.69868857858E-01  0.12810113783E-01  0.97288152416E-01  0.51100000000E-03 0. -1.
</event>
<event>
 8    1  0.1086235E+005  0.1043930E+01  0.7957747E-01            NaN
         13   -1    0    0    0    0  0.00000000000E+00  0.00000000000E+00  0.74505805969E-08  0.10566000000E+00  0.10566000000E+00 0.  1.
     999900   -1    0    0    0    0 -0.00000000000E+00 -0.00000000000E+00 -0.74505805969E-08  0.93827000000E+00  0.93827000000E+00 0. -1.
     999902    2    1    2    0    0 -0.94247447245E-02 -0.42638098862E-02 -0.21831182150E-01  0.10197720530E+01  0.10194858674E+01 0.  0.
     999903    2    3    3    0    0  0.30043578825E-01 -0.12356564151E+00 -0.23404955097E-01  0.13084396125E+00  0.20031622044E-01 0.  0.
         14    1    1    2    0    0  0.94247447245E-02  0.42638098862E-02  0.21831182150E-01  0.24157946972E-01  0.00000000000E+00 0.  1.
     999901    1    3    3    0    0 -0.39468323550E-01  0.11930183162E+00  0.15737729475E-02  0.88892809178E+00  0.88000000000E+00 0. -1.
        -11    1    4    4    0    0  0.19472155203E-01 -0.66741413593E-01 -0.22360361831E-01  0.73033061135E-01  0.51100000000E-03 0. -1.
         11    1    4    4    0    0  0.10571423622E-01 -0.56824227917E-01 -0.10445932664E-02  0.57810900113E-01  0.51100000000E-03 0.  1.
</event>
<event>
 8    1  0.1086235E+005  0.1043930E+01  0.7957747E-01            NaN
         13   -1    0    0    0    0  0.00000000000E+00  0.00000000000E+00  0.74505805969E-08  0.10566000000E+00  0.10566000000E+00 0. -1.
     999900   -1    0    0    0    0 -0.00000000000E+00 -0.00000000000E+00 -0.74505805969E-08  0.93827000000E+00  0.93827000000E+00 0.  1.
     999902    2    1    2    0    0  0.17462483661E-02  0.32235395088E-02  0.23043497630E-01  0.10205966896E+01  0.10203299268E+01 0.  0.
     999903    2    3    3    0    0  0.10664586029E+00  0.59840046644E-01  0.46076073005E-01  0.13226124791E+00  0.20392706953E-01 0.  0.
         14    1    1    2    0    0 -0.17462483661E-02 -0.32235395088E-02 -0.23043497630E-01  0.23333310381E-01  0.00000000000E+00 0.  1.
     999901    1    3    3    0    0 -0.10489961192E+00 -0.56616507135E-01 -0.23032575375E-01  0.88833544171E+00  0.88000000000E+00 0. -1.
        -11    1    4    4    0    0  0.28629401446E-01  0.12442967809E-01  0.20885340028E-01  0.37562329855E-01  0.51100000000E-03 0. -1.
         11    1    4    4    0    0  0.78016458844E-01  0.47397078835E-01  0.25190732977E-01  0.94698918059E-01  0.51100000000E-03 0.  1.
</event>
<event>
 8    1  0.1086235E+005  0.1043930E+01  0.7957747E-01            NaN
         13   -1    0    0    0    0  0.00000000000E+00  0.00000000000E+00  0.74505805969E-08  0.10566000000E+00  0.10566000000E+00 0. -1.
     999900   -1    0    0    0    0 -0.00000000000E+00 -0.00000000000E+00 -0.74505805969E-08  0.93827000000E+00  0.93827000000E+00 0.  1.
     999902    2    1    2    0    0  0.10747743608E-01 -0.30465802905E-01  0.30010800350E-03  0.10116225828E+01  0.10111065626E+01 0.  0.
     999903    2    3    3    0    0 -0.95132913012E-01 -0.76650248976E-01 -0.74524738882E-02  0.12403944924E+00  0.20117499724E-01 0.  0.
         14    1    1    2    0    0 -0.10747743608E-01  0.30465802905E-01 -0.30010800350E-03  0.32307417169E-01  0.00000000000E+00 0. -1.
     999901    1    3    3    0    0  0.10588065662E+00  0.46184446072E-01  0.77525818917E-02  0.88758313359E+00  0.88000000000E+00 0. -1.
        -11    1    4    4    0    0 -0.82144598468E-01 -0.61667652442E-01 -0.12758290913E-01  0.10350685737E+00  0.51100000000E-03 0.  1.
         11    1    4    4    0    0 -0.12988314544E-01 -0.14982596535E-01  0.53058170247E-02  0.20532591870E-01  0.51100000000E-03 0. -1.
</event>
<event>
 8    1  0.1086235E+005  0.1043930E+01  0.7957747E-01            NaN
         13   -1    0    0    0    0  0.00000000000E+00  0.00000000000E+00  0.74505805969E-08  0.10566000000E+00  0.10566000000E+00 0.  1.
     999900   -1    0    0    0    0 -0.00000000000E+00 -0.00000000000E+00 -0.74505805969E-08  0.93827000000E+00  0.93827000000E+00 0. -1.
     999902    2    1    2    0    0  0.10181316845E-01  0.16736400534E-01  0.15272854408E-01  0.10190899840E+01  0.10187872050E+01 0.  0.
     999903    2    3    3    0    0  0.56767081117E-01  0.55197373396E-01 -0.10049283651E+00  0.12945456702E+00  0.19759129613E-01 0.  0.
         14    1    1    2    0    0 -0.10181316845E-01 -0.16736400534E-01 -0.15272854408E-01  0.24840016049E-01  0.00000000000E+00 0.  1.
     999901    1    3    3    0    0 -0.46585764273E-01 -0.38460972862E-01  0.11576569092E+00  0.88963541693E+00  0.88000000000E+00 0.  1.
        -11    1    4    4    0    0  0.12650348443E-01  0.15062661070E-01 -0.13062596391E-01  0.23617951218E-01  0.51100000000E-03 0. -1.
         11    1    4    4    0    0  0.44116732674E-01  0.40134712326E-01 -0.87430240123E-01  0.10583661580E+00  0.51100000000E-03 0.  1.
</event>
<event>
 8    1  0.1086235E+005  0.1043930E+01  0.7957747E-01            NaN
         13   -1    0    0    0    0  0.00000000000E+00  0.00000000000E+00  0.74505805969E-08  0.10566000000E+00  0.10566000000E+00 0.  1.
     999900   -1    0    0    0    0 -0.00000000000E+00 -0.00000000000E+00 -0.74505805969E-08  0.93827000000E+00  0.93827000000E+00 0.  1.
     999902    2    1    2    0    0  0.95438097075E-02 -0.21697320821E-01  0.84027464856E-02  0.10187811594E+01  0.10184707097E+01 0.  0.
     999903    2    3    3    0    0  0.10676208856E+00  0.66956415953E-01  0.18216804110E-01  0.12894567208E+00  0.20342792466E-01 0.  0.
         14    1    1    2    0    0 -0.95438097075E-02  0.21697320821E-01 -0.84027464856E-02  0.25148840590E-01  0.00000000000E+00 0. -1.
     999901    1    3    3    0    0 -0.97218278851E-01 -0.88653736773E-01 -0.98140576241E-02  0.88983548733E+00  0.88000000000E+00 0.  1.
        -11    1    4    4    0    0  0.16128021816E-01  0.90080568195E-02  0.10106863679E-01  0.21063427778E-01  0.51100000000E-03 0.  1.
         11    1    4    4    0    0  0.90634066743E-01  0.57948359133E-01  0.81099404311E-02  0.10788224430E+00  0.51100000000E-03 0. -1.
</event>
<event>
 8    1  0.1086235E+005  0.1043930E+01  0.7957747E-01            NaN
         13   -1    0    0    0    0  0.00000000000E+00  0.00000000000E+00  0.74505805969E-08  0.10566000000E+00  0.10566000000E+00 0.  1.
     999900   -1    0    0    0    0 -0.00000000000E+00 -0.00000000000E+00 -0.74505805969E-08  0.93827000000E+00  0.93827000000E+00 0.  1.
     999902    2    1    2    0    0 -0.10829171281E-01  0.28272336562E-02 -0.20539018640E-01  0.10205395001E+01  0.10202714128E+01 0.  0.
     999903    2    3    3    0    0 -0.43176165534E-01 -0.72211650834E-01 -0.10103533948E+00  0.13309551879E+00  0.20677850742E-01 0.  0.
         14    1    1    2    0    0  0.10829171281E-01 -0.28272336562E-02  0.20539018640E-01  0.23390499941E-01  0.00000000000E+00 0.  1.
     999901    1    3    3    0    0  0.32346994253E-01  0.75038884490E-01  0.80496320841E-01  0.88744398127E+00  0.88000000000E+00 0. -1.
        -11    1    4    4    0    0 -0.37025015492E-01 -0.45561342617E-01 -0.61560701015E-01  0.85068611977E-01  0.51100000000E-03 0. -1.
         11    1    4    4    0    0 -0.61511500417E-02 -0.26650308217E-01 -0.39474638466E-01  0.48026906812E-01  0.51100000000E-03 0.  1.
</event>
<event>
 8    1  0.1086235E+005  0.1043930E+01  0.7957747E-01            NaN
         13   -1    0    0    0    0  0.00000000000E+00  0.00000000000E+00  0.74505805969E-08  0.10566000000E+00  0.10566000000E+00 0.  1.
     999900   -1    0    0    0    0 -0.00000000000E+00 -0.00000000000E+00 -0.74505805969E-08  0.93827000000E+00  0.93827000000E+00 0.  1.
     999902    2    1    2    0    0 -0.15032206105E-01  0.41801304579E-02  0.17472274650E-01  0.10205052035E+01  0.10202363203E+01 0.  0.
     999903    2    3    3    0    0 -0.89393501606E-01 -0.40629054360E-01  0.88824609392E-01  0.13335886775E+00  0.15901515203E-01 0.  0.
         14    1    1    2    0    0  0.15032206105E-01 -0.41801304579E-02 -0.17472274650E-01  0.23424796530E-01  0.00000000000E+00 0.  1.
     999901    1    3    3    0    0  0.74361295501E-01  0.44809184818E-01 -0.71352334742E-01  0.88714633572E+00  0.88000000000E+00 0.  1.
        -11    1    4    4    0    0 -0.50303017820E-01 -0.15341086045E-01  0.52431215068E-01  0.74263288086E-01  0.51100000000E-03 0.  1.
         11    1    4    4    0    0 -0.39090483786E-01 -0.25287968315E-01  0.36393394323E-01  0.59095579661E-01  0.51100000000E-03 0. -1.
</event>
<event>
 8    1  0.1086235E+005  0.1043930E+01  0.7957747E-01            NaN
         13   -1    0    0    0    0  0.00000000000E+00  0.00000000000E+00  0.74505805969E-08  0.10566000000E+00  0.10566000000E+00 0. -1.
     999900   -1    0    0    0    0 -0.00000000000E+00 -0.00000000000E+00 -0.74505805969E-08  0.93827000000E+00  0.93827000000E+00 0. -1.
     999902    2    1    2    0    0 -0.16389626965E-01 -0.15159236861E-01 -0.14236810608E-01  0.10174515350E+01  0.10171069348E+01 0.  0.
     999903    2    3    3    0    0 -0.18601830019E-01 -0.92039213128E-01  0.85437928223E-01  0.12849119943E+00  0.19826848440E-01 0.  0.
         14    1    1    2    0    0  0.16389626965E-01  0.15159236861E-01  0.14236810608E-01  0.26478465034E-01  0.00000000000E+00 0. -1.
     999901    1    3    3    0    0  0.22122030536E-02  0.76879976267E-01 -0.99674738831E-01  0.88896033553E+00  0.88000000000E+00 0.  1.
        -11    1    4    4    0    0 -0.38058185345E-02 -0.77097025528E-02  0.16326806569E-01  0.18459401450E-01  0.51100000000E-03 0.  1.
         11    1    4    4    0    0 -0.14796011485E-01 -0.84329510575E-01  0.69111121654E-01  0.11003179798E+00  0.51100000000E-03 0. -1.
</event>
<event>
 8    1  0.1086235E+005  0.1043930E+01  0.7957747E-01            NaN
         13   -1    0    0    0    0  0.00000000000E+00  0.00000000000E+00  0.74505805969E-08  0.10566000000E+00  0.10566000000E+00 0. -1.
     999900   -1    0    0    0    0 -0.00000000000E+00 -0.00000000000E+00 -0.74505805969E-08  0.93827000000E+00  0.93827000000E+00 0.  1.
     999902    2    1    2    0    0 -0.20331568022E-01  0.32350037815E-02  0.73786268963E-02  0.10220603397E+01  0.10218263335E+01 0.  0.
     999903    2    3    3    0    0 -0.41974737408E-02 -0.13070695616E+00 -0.15266630738E-02  0.13173452189E+00  0.15802733428E-01 0.  0.
         14    1    1    2    0    0  0.20331568022E-01 -0.32350037815E-02 -0.73786268963E-02  0.21869660322E-01  0.00000000000E+00 0. -1.
     999901    1    3    3    0    0 -0.16134094282E-01  0.13394195994E+00  0.89052899702E-02  0.89032581779E+00  0.88000000000E+00 0. -1.
        -11    1    4    4    0    0  0.22070366256E-02 -0.11040526091E+00 -0.16124485884E-02  0.11044027236E+00  0.51100000000E-03 0. -1.
         11    1    4    4    0    0 -0.64045103664E-02 -0.20301695250E-01  0.85785514593E-04  0.21294249534E-01  0.51100000000E-03 0.  1.
</event>
<event>
 8    1  0.1086235E+005  0.1043930E+01  0.7957747E-01            NaN
         13   -1    0    0    0    0  0.00000000000E+00  0.00000000000E+00  0.74505805969E-08  0.10566000000E+00  0.10566000000E+00 0. -1.
     999900   -1    0    0    0    0 -0.00000000000E+00 -0.00000000000E+00 -0.74505805969E-08  0.93827000000E+00  0.93827000000E+00 0.  1.
     999902    2    1    2    0    0 -0.22941549076E-01  0.37055838358E-02 -0.57116029521E-02  0.10199995083E+01  0.10197187497E+01 0.  0.
     999903    2    3    3    0    0 -0.71277738948E-01  0.26576625175E-01  0.10528661731E+00  0.13141632327E+00  0.19953575156E-01 0.  0.
         14    1    1    2    0    0  0.22941549076E-01 -0.37055838358E-02  0.57116029521E-02  0.23930491717E-01  0.00000000000E+00 0.  1.
     999901    1    3    3    0    0  0.48336189873E-01 -0.22871041339E-01 -0.11099822027E+00  0.88858318501E+00  0.88000000000E+00 0.  1.
        -11    1    4    4    0    0 -0.54020071156E-01  0.28651300148E-01  0.79074179616E-01  0.99960252554E-01  0.51100000000E-03 0.  1.
         11    1    4    4    0    0 -0.17257667793E-01 -0.20746749729E-02  0.26212437697E-01  0.31456070717E-01  0.51100000000E-03 0. -1.
</event>
<event>
 8    1  0.1086235E+005  0.1043930E+01  0.7957747E-01            NaN
         13   -1    0    0    0    0  0.00000000000E+00  0.00000000000E+00  0.74505805969E-08  0.10566000000E+00  0.10566000000E+00 0.  1.
     999900   -1    0    0    0    0 -0.00000000000E+00 -0.00000000000E+00 -0.74505805969E-08  0.93827000000E+00  0.93827000000E+00 0.  1.
     999902    2    1    2    0    0  0.26139880281E-01  0.57348334438E-02 -0.11020336132E-01  0.10149881710E+01  0.10145754570E+01 0.  0.
     999903    2    3    3    0    0  0.28478186110E-01  0.12235382265E+00  0.65289044194E-02  0.12711800475E+00  0.18300151299E-01 0.  0.
         14    1    1    2    0    0 -0.26139880281E-01 -0.57348334438E-02  0.11020336132E-01  0.28941828971E-01  0.00000000000E+00 0.  1.
     999901    1    3    3    0    0 -0.23383058288E-02 -0.11661898921E+00 -0.17549240551E-01  0.88787016628E+00  0.88000000000E+00 0.  1.
        -11    1    4    4    0    0  0.12479472426E-02  0.12264744627E-01  0.59738795749E-02  0.13708745065E-01  0.51100000000E-03 0. -1.
         11    1    4    4    0    0  0.27230238867E-01  0.11008907803E+00  0.55502484453E-03  0.11340925969E+00  0.51100000000E-03 0.  1.
</event>
<event>
 8    1  0.1086235E+005  0.1043930E+01  0.7957747E-01            NaN
         13   -1    0    0    0    0  0.00000000000E+00  0.00000000000E+00  0.74505805969E-08  0.10566000000E+00  0.10566000000E+00 0.  1.
     999900   -1    0    0    0    0 -0.00000000000E+00 -0.00000000000E+00 -0.74505805969E-08  0.93827000000E+00  0.93827000000E+00 0. -1.
     999902    2    1    2    0    0  0.11938273553E-01  0.12518885107E-01  0.14015700866E-01  0.10216660217E+01  0.10214234064E+01 0.  0.
     999903    2    3    3    0    0  0.48285262014E-01  0.11464589962E+00  0.46464211417E-01  0.13442088278E+00  0.20854303120E-01 0.  0.
         14    1    1    2    0    0 -0.11938273553E-01 -0.12518885107E-01 -0.14015700866E-01  0.22263978317E-01  0.00000000000E+00 0. -1.
     999901    1    3    3    0    0 -0.36346988461E-01 -0.10212701451E+00 -0.32448510551E-01  0.88724513890E+00  0.88000000000E+00 0.  1.
        -11    1    4    4    0    0  0.13045704038E-01  0.53533730524E-01  0.26248445022E-01  0.61035175798E-01  0.51100000000E-03 0.  1.
         11    1    4    4    0    0  0.35239557976E-01  0.61112169095E-01  0.20215766394E-01  0.73385706985E-01  0.51100000000E-03 0. -1.
</event>
<event>
 8    1  0.1086235E+005  0.1043930E+01  0.7957747E-01            NaN
         13   -1    0    0    0    0  0.00000000000E+00  0.00000000000E+00  0.74505805969E-08  0.10566000000E+00  0.10566000000E+00 0.  1.
     999900   -1    0    0    0    0 -0.00000000000E+00 -0.00000000000E+00 -0.74505805969E-08  0.93827000000E+00  0.93827000000E+00 0.  1.
     999902    2    1    2    0    0 -0.28033786742E-02  0.19572975430E-01 -0.13903557048E-01  0.10197583390E+01  0.10194718244E+01 0.  0.
     999903    2    3    3    0    0  0.99706140656E-01 -0.33156366549E-01 -0.74977357654E-01  0.13014123358E+00  0.16567359137E-01 0.  0.
         14    1    1    2    0    0  0.28033786742E-02 -0.19572975430E-01  0.13903557048E-01  0.24171661047E-01  0.00000000000E+00 0.  1.
     999901    1    3    3    0    0 -0.10250951933E+00  0.52729341979E-01  0.61073800606E-01  0.88961710538E+00  0.88000000000E+00 0. -1.
        -11    1    4    4    0    0  0.39636346298E-01 -0.14518171218E-01 -0.40085244382E-01  0.58214303926E-01  0.51100000000E-03 0. -1.
         11    1    4    4    0    0  0.60069794358E-01 -0.18638195331E-01 -0.34892113272E-01  0.71926929650E-01  0.51100000000E-03 0.  1.
</event>
<event>
 7    1  0.1086235E+005  0.1043930E+01  0.7957747E-01            NaN
         13   -1    0    0    0    0  0.00000000000E+00  0.00000000000E+00  0.74505805969E-08  0.10566000000E+00  0.10566000000E+00 0.  1.
     999900   -1    0    0    0    0 -0.00000000000E+00 -0.00000000000E+00 -0.74505805969E-08  0.93827000000E+00  0.93827000000E+00 0.  1.
     999903    2    1    2    0    0  0.56849478458E-03  0.68126212622E-01 -0.50937654532E-01  0.87403467891E-01  0.20080276831E-01 0.  0.
         14    1    1    2    0    0  0.15845765331E-01  0.19077067862E-01  0.67497339378E-01  0.71909064938E-01  0.00000000000E+00 0.  1.
     999901    1    1    2    0    0 -0.16414260116E-01 -0.87203280484E-01 -0.16559684846E-01  0.88461746717E+00  0.88000000000E+00 0. -1.
        -11    1    3    3    0    0 -0.67862670719E-02  0.57582838495E-01 -0.43990359527E-01  0.72782206358E-01  0.51100000000E-03 0.  1.
         11    1    3    3    0    0  0.73547618564E-02  0.10543374127E-01 -0.69472950043E-02  0.14621261533E-01  0.51100000000E-03 0. -1.
</event>
<event>
 8    1  0.1086235E+005  0.1043930E+01  0.7957747E-01            NaN
         13   -1    0    0    0    0  0.00000000000E+00  0.00000000000E+00  0.74505805969E-08  0.10566000000E+00  0.10566000000E+00 0. -1.
     999900   -1    0    0    0    0 -0.00000000000E+00 -0.00000000000E+00 -0.74505805969E-08  0.93827000000E+00  0.93827000000E+00 0. -1.
     999902    2    1    2    0    0  0.73186504052E-02  0.32793536503E-03 -0.22031928401E-01  0.10207119886E+01  0.10204478858E+01 0.  0.
     999903    2    3    3    0    0 -0.11007671804E+00 -0.62308488484E-01  0.20394725483E-01  0.12969851220E+00  0.20162530792E-01 0.  0.
         14    1    1    2    0    0 -0.73186504052E-02 -0.32793536503E-03  0.22031928401E-01  0.23218011423E-01  0.00000000000E+00 0. -1.
     999901    1    3    3    0    0  0.11739536844E+00  0.62636423849E-01 -0.42426653885E-01  0.89101347638E+00  0.88000000000E+00 0. -1.
        -11    1    4    4    0    0 -0.70877848271E-02 -0.79785843845E-02  0.63082378565E-02  0.12407638308E-01  0.51100000000E-03 0.  1.
         11    1    4    4    0    0 -0.10298893321E+00 -0.54329904100E-01  0.14086487627E-01  0.11729087389E+00  0.51100000000E-03 0. -1.
</event>
<event>
 8    1  0.1086235E+005  0.1043930E+01  0.7957747E-01            NaN
         13   -1    0    0    0    0  0.00000000000E+00  0.00000000000E+00  0.74505805969E-08  0.10566000000E+00  0.10566000000E+00 0.  1.
     999900   -1    0    0    0    0 -0.00000000000E+00 -0.00000000000E+00 -0.74505805969E-08  0.93827000000E+00  0.93827000000E+00 0.  1.
     999902    2    1    2    0    0  0.15477892518E-01 -0.87828524268E-02  0.15505738127E-01  0.10203263654E+01  0.10200533125E+01 0.  0.
     999903    2    3    3    0    0  0.25636532913E-01  0.10274398347E+00 -0.70963256630E-01  0.12902488990E+00  0.19951953842E-01 0.  0.
         14    1    1    2    0    0 -0.15477892518E-01  0.87828524268E-02 -0.15505738127E-01  0.23603634644E-01  0.00000000000E+00 0.  1.
     999901    1    3    3    0    0 -0.10158640395E-01 -0.11152683590E+00  0.86468994757E-01  0.89130147546E+00  0.88000000000E+00 0. -1.
        -11    1    4    4    0    0 -0.12029234591E-02  0.19569548175E-01 -0.74287673866E-02  0.20972885984E-01  0.51100000000E-03 0.  1.
         11    1    4    4    0    0  0.26839456372E-01  0.83174435296E-01 -0.63534489243E-01  0.10805200391E+00  0.51100000000E-03 0. -1.
</event>
<event>
 8    1  0.1086235E+005  0.1043930E+01  0.7957747E-01            NaN
         13   -1    0    0    0    0  0.00000000000E+00  0.00000000000E+00  0.74505805969E-08  0.10566000000E+00  0.10566000000E+00 0.  1.
     999900   -1    0    0    0    0 -0.00000000000E+00 -0.00000000000E+00 -0.74505805969E-08  0.93827000000E+00  0.93827000000E+00 0.  1.
     999902    2    1    2    0    0  0.12754799087E-01 -0.66844246011E-02 -0.18352865961E-01  0.10206020314E+01  0.10203353921E+01 0.  0.
     999903    2    3    3    0    0 -0.66170219196E-01 -0.88141917870E-01  0.64754668433E-01  0.12943911472E+00  0.20342609000E-01 0.  0.
         14    1    1    2    0    0 -0.12754799087E-01  0.66844246011E-02  0.18352865961E-01  0.23327968642E-01  0.00000000000E+00 0.  1.
     999901    1    3    3    0    0  0.78925018283E-01  0.81457493268E-01 -0.83107534394E-01  0.89116291664E+00  0.88000000000E+00 0.  1.
        -11    1    4    4    0    0 -0.38424405509E-01 -0.35386518261E-01  0.34383007445E-01  0.62538731481E-01  0.51100000000E-03 0.  1.
         11    1    4    4    0    0 -0.27745813687E-01 -0.52755399609E-01  0.30371660988E-01  0.66900383237E-01  0.51100000000E-03 0. -1.
</event>
<event>
 8    1  0.1086235E+005  0.1043930E+01  0.7957747E-01            NaN
         13   -1    0    0    0    0  0.00000000000E+00  0.00000000000E+00  0.74505805969E-08  0.10566000000E+00  0.10566000000E+00 0. -1.
     999900   -1    0    0    0    0 -0.00000000000E+00 -0.00000000000E+00 -0.74505805969E-08  0.93827000000E+00  0.93827000000E+00 0.  1.
     999902    2    1    2    0    0  0.44802046331E-02 -0.22805265264E-01  0.38476422941E-02  0.10203724808E+01  0.10201005063E+01 0.  0.
     999903    2    3    3    0    0 -0.99416390461E-01  0.78448678553E-01  0.97180506315E-02  0.12847488286E+00  0.19327212888E-01 0.  0.
         14    1    1    2    0    0 -0.44802046331E-02  0.22805265264E-01 -0.38476422941E-02  0.23557519150E-01  0.00000000000E+00 0. -1.
     999901    1    3    3    0    0  0.10389659509E+00 -0.10125394382E+00 -0.58704083374E-02  0.89189759799E+00  0.88000000000E+00 0.  1.
        -11    1    4    4    0    0 -0.11558791544E-02  0.57178336661E-02  0.52339292266E-03  0.58791784804E-02  0.51100000000E-03 0. -1.
         11    1    4    4    0    0 -0.98260511307E-01  0.72730844887E-01  0.91946577089E-02  0.12259570438E+00  0.51100000000E-03 0.  1.
</event>
<event>
 8    1  0.1086235E+005  0.1043930E+01  0.7957747E-01            NaN
         13   -1    0    0    0    0  0.00000000000E+00  0.00000000000E+00  0.74505805969E-08  0.10566000000E+00  0.10566000000E+00 0.  1.
     999900   -1    0    0    0    0 -0.00000000000E+00 -0.00000000000E+00 -0.74505805969E-08  0.93827000000E+00  0.93827000000E+00 0. -1.
     999902    2    1    2    0    0 -0.61350640948E-02  0.13925354856E-01 -0.10782739445E-01  0.10252800137E+01  0.10251103767E+01 0.  0.
     999903    2    3    3    0    0  0.44594670098E-01  0.47488744512E-01  0.11594121127E+00  0.13412404152E+00  0.17407716291E-01 0.  0.
         14    1    1    2    0    0  0.61350640948E-02 -0.13925354856E-01  0.10782739445E-01  0.18649986307E-01  0.00000000000E+00 0.  1.
     999901    1    3    3    0    0 -0.50729734193E-01 -0.33563389656E-01 -0.12672395071E+00  0.89115597217E+00  0.88000000000E+00 0. -1.
        -11    1    4    4    0    0  0.74046562644E-02  0.18648807986E-02  0.21701899212E-01  0.23011741898E-01  0.51100000000E-03 0. -1.
         11    1    4    4    0    0  0.37190013834E-01  0.45623863713E-01  0.94239312057E-01  0.11111229962E+00  0.51100000000E-03 0.  1.
</event>
<event>
 8    1  0.1086235E+005  0.1043930E+01  0.7957747E-01            NaN
         13   -1    0    0    0    0  0.00000000000E+00  0.00000000000E+00  0.74505805969E-08  0.10566000000E+00  0.10566000000E+00 0. -1.
     999900   -1    0    0    0    0 -0.00000000000E+00 -0.00000000000E+00 -0.74505805969E-08  0.93827000000E+00  0.93827000000E+00 0. -1.
     999902    2    1    2    0    0  0.11383255184E-01  0.16914636018E-01 -0.10223266581E-01  0.10211221375E+01  0.10208673867E+01 0.  0.
     999903    2    3    3    0    0  0.21998282581E-01  0.12894059233E+00  0.17833298931E-01  0.13351317828E+00  0.19953481806E-01 0.  0.
         14    1    1    2    0    0 -0.11383255184E-01 -0.16914636018E-01  0.10223266581E-01  0.22807862455E-01  0.00000000000E+00 0. -1.
     999901    1    3    3    0    0 -0.10615027397E-01 -0.11202595632E+00 -0.28056565511E-01  0.88760895926E+00  0.88000000000E+00 0. -1.
        -11    1    4    4    0    0 -0.25125345695E-02  0.38339502744E-01  0.38442671471E-02  0.38616962743E-01  0.51100000000E-03 0.  1.
         11    1    4    4    0    0  0.24510817150E-01  0.90601089590E-01  0.13989031784E-01  0.94896215539E-01  0.51100000000E-03 0. -1.
</event>
<event>
 8    1  0.1086235E+005  0.1043930E+01  0.7957747E-01            NaN
         13   -1    0    0    0    0  0.00000000000E+00  0.00000000000E+00  0.74505805969E-08  0.10566000000E+00  0.10566000000E+00 0. -1.
     999900   -1    0    0    0    0 -0.00000000000E+00 -0.00000000000E+00 -0.74505805969E-08  0.93827000000E+00  0.93827000000E+00 0.  1.
     999902    2    1    2    0    0 -0.19359676278E-01 -0.10454177989E-01 -0.11846624016E-01  0.10189414145E+01  0.10186349576E+01 0.  0.
     999903    2    3    3    0    0  0.56350421804E-01  0.10929653084E+00 -0.26799071518E-01  0.12748427765E+00  0.20321149629E-01 0.  0.
         14    1    1    2    0    0  0.19359676278E-01  0.10454177989E-01  0.11846624016E-01  0.24988585466E-01  0.00000000000E+00 0. -1.
     999901    1    3    3    0    0 -0.75710098082E-01 -0.11975070883E+00  0.14952447502E-01  0.89145713688E+00  0.88000000000E+00 0. -1.
        -11    1    4    4    0    0  0.27512856776E-01  0.41033471038E-01 -0.19137898511E-01  0.52983236159E-01  0.51100000000E-03 0.  1.
         11    1    4    4    0    0  0.28837565028E-01  0.68263059803E-01 -0.76611730068E-02  0.74501041491E-01  0.51100000000E-03 0. -1.
</event>
<event>
 8    1  0.1086235E+005  0.1043930E+01  0.7957747E-01            NaN
         13   -1    0    0    0    0  0.00000000000E+00  0.00000000000E+00  0.74505805969E-08  0.10566000000E+00  0.10566000000E+00 0.  1.
     999900   -1    0    0    0    0 -0.00000000000E+00 -0.00000000000E+00 -0.74505805969E-08  0.93827000000E+00  0.93827000000E+00 0. -1.
     999902    2    1    2    0    0 -0.22847113060E-02 -0.23731900806E-01 -0.69942825050E-02  0.10190836117E+01  0.10187806755E+01 0.  0.
     999903    2    3    3    0    0 -0.89734812793E-01  0.25475750940E-01 -0.87873199162E-01  0.12969600648E+00  0.19950048931E-01 0.  0.
         14    1    1    2    0    0  0.22847113060E-02  0.23731900806E-01  0.69942825050E-02  0.24846388256E-01  0.00000000000E+00 0.  1.
     999901    1    3    3    0    0  0.87450101487E-01 -0.49207651746E-01  0.80878916657E-01  0.88938760527E+00  0.88000000000E+00 0.  1.
        -11    1    4    4    0    0 -0.20368825863E-01 -0.26314007679E-02 -0.19022694245E-01  0.27998881305E-01  0.51100000000E-03 0. -1.
         11    1    4    4    0    0 -0.69365986931E-01  0.28107151708E-01 -0.68850504917E-01  0.10169712517E+00  0.51100000000E-03 0.  1.
</event>
<event>
 8    1  0.1086235E+005  0.1043930E+01  0.7957747E-01            NaN
         13   -1    0    0    0    0  0.00000000000E+00  0.00000000000E+00  0.74505805969E-08  0.10566000000E+00  0.10566000000E+00 0. -1.
     999900   -1    0    0    0    0 -0.00000000000E+00 -0.00000000000E+00 -0.74505805969E-08  0.93827000000E+00  0.93827000000E+00 0. -1.
     999902    2    1    2    0    0  0.72629727457E-02  0.98520683999E-02 -0.19951907427E-01  0.10205228935E+01  0.10202544210E+01 0.  0.
     999903    2    3    3    0    0 -0.79086098451E-01  0.61319549342E-01  0.78007902160E-01  0.12939933978E+00  0.25382242553E-01 0.  0.
         14    1    1    2    0    0 -0.72629727457E-02 -0.98520683999E-02  0.19951907427E-01  0.23407106503E-01  0.00000000000E+00 0. -1.
     999901    1    3    3    0    0  0.86349071197E-01 -0.51467480943E-01 -0.97959809586E-01  0.89112355371E+00  0.88000000000E+00 0. -1.
        -11    1    4    4    0    0 -0.62322985363E-01  0.54586638287E-01  0.52305622859E-01  0.97979563622E-01  0.51100000000E-03 0.  1.
         11    1    4    4    0    0 -0.16763113088E-01  0.67329110558E-02  0.25702279301E-01  0.31419776160E-01  0.51100000000E-03 0. -1.
</event>
<event>
 8    1  0.1086235E+005  0.1043930E+01  0.7957747E-01            NaN
         13   -1    0    0    0    0  0.00000000000E+00  0.00000000000E+00  0.74505805969E-08  0.10566000000E+00  0.10566000000E+00 0.  1.
     999900   -1    0    0    0    0 -0.00000000000E+00 -0.00000000000E+00 -0.74505805969E-08  0.93827000000E+00  0.93827000000E+00 0.  1.
     999902    2    1    2    0    0  0.49423128131E-02  0.14257582932E-01 -0.18354265163E-01  0.10201690199E+01  0.10198922712E+01 0.  0.
     999903    2    3    3    0    0  0.45783876407E-02 -0.11114190812E+00  0.60156964948E-01  0.12781865255E+00  0.18581230682E-01 0.  0.
         14    1    1    2    0    0 -0.49423128131E-02 -0.14257582932E-01  0.18354265163E-01  0.23760980129E-01  0.00000000000E+00 0.  1.
     999901    1    3    3    0    0  0.36392517234E-03  0.12539949106E+00 -0.78511230112E-01  0.89235036732E+00  0.88000000000E+00 0.  1.
        -11    1    4    4    0    0  0.80021323882E-02 -0.19702879750E-01  0.11149930625E-01  0.24017070328E-01  0.51100000000E-03 0. -1.
         11    1    4    4    0    0 -0.34237447475E-02 -0.91439028375E-01  0.49007034323E-01  0.10380158223E+00  0.51100000000E-03 0.  1.
</event>
<event>
 8    1  0.1086235E+005  0.1043930E+01  0.7957747E-01            NaN
         13   -1    0    0    0    0  0.00000000000E+00  0.00000000000E+00  0.74505805969E-08  0.10566000000E+00  0.10566000000E+00 0.  1.
     999900   -1    0    0    0    0 -0.00000000000E+00 -0.00000000000E+00 -0.74505805969E-08  0.93827000000E+00  0.93827000000E+00 0. -1.
     999902    2    1    2    0    0  0.15355508779E-01  0.16752217299E-01 -0.66228185453E-02  0.10202595509E+01  0.10199849318E+01 0.  0.
     999903    2    3    3    0    0  0.12673541024E+00  0.29049613100E-01 -0.20411246840E-01  0.13304659500E+00  0.19468775353E-01 0.  0.
         14    1    1    2    0    0 -0.15355508779E-01 -0.16752217299E-01  0.66228185453E-02  0.23670449083E-01  0.00000000000E+00 0. -1.
     999901    1    3    3    0    0 -0.11137990146E+00 -0.12297395801E-01  0.13788428295E-01  0.88721295592E+00  0.88000000000E+00 0.  1.
        -11    1    4    4    0    0  0.66393737475E-01  0.22531696709E-01 -0.17583846847E-01  0.72285949696E-01  0.51100000000E-03 0.  1.
         11    1    4    4    0    0  0.60341672764E-01  0.65179163912E-02 -0.28273999937E-02  0.60760645304E-01  0.51100000000E-03 0. -1.
</event>
<event>
 8    1  0.1086235E+005  0.1043930E+01  0.7957747E-01            NaN
         13   -1    0    0    0    0  0.00000000000E+00  0.00000000000E+00  0.74505805969E-08  0.10566000000E+00  0.10566000000E+00 0. -1.
     999900   -1    0    0    0    0 -0.00000000000E+00 -0.00000000000E+00 -0.74505805969E-08  0.93827000000E+00  0.93827000000E+00 0. -1.
     999902    2    1    2    0    0  0.17059872772E-01 -0.15072611818E-01  0.86312285094E-02  0.10195841381E+01  0.10192934286E+01 0.  0.
     999903    2    3    3    0    0  0.47846085557E-01 -0.48644272884E-02  0.12078584030E+00  0.13187323084E+00  0.22100209000E-01 0.  0.
         14    1    1    2    0    0 -0.17059872772E-01  0.15072611818E-01 -0.86312285094E-02  0.24345861899E-01  0.00000000000E+00 0.  1.
     999901    1    3    3    0    0 -0.30786212784E-01 -0.10208184530E-01 -0.11215461179E+00  0.88771090726E+00  0.88000000000E+00 0. -1.
        -11    1    4    4    0    0  0.26844152404E-01  0.12668689756E-03  0.92315398807E-01  0.96140618605E-01  0.51100000000E-03 0.  1.
         11    1    4    4    0    0  0.21001933153E-01 -0.49911141860E-02  0.28470441496E-01  0.35732612232E-01  0.51100000000E-03 0. -1.
</event>
<event>
 8    1  0.1086235E+005  0.1043930E+01  0.7957747E-01            NaN
         13   -1    0    0    0    0  0.00000000000E+00  0.00000000000E+00  0.74505805969E-08  0.10566000000E+00  0.10566000000E+00 0. -1.
     999900   -1    0    0    0    0 -0.00000000000E+00 -0.00000000000E+00 -0.74505805969E-08  0.93827000000E+00  0.93827000000E+00 0. -1.
     999902    2    1    2    0    0 -0.15809452558E-01 -0.10037535012E-01  0.14950250339E-01  0.10199675109E+01  0.10196859920E+01 0.  0.
     999903    2    3    3    0    0 -0.10874618724E+00 -0.73168980521E-01  0.66304370923E-02  0.13278543524E+00  0.20213267071E-01 0.  0.
         14    1    1    2    0    0  0.15809452558E-01  0.10037535012E-01 -0.14950250339E-01  0.23962489113E-01  0.00000000000E+00 0.  1.
     999901    1    3    3    0    0  0.92936734678E-01  0.63131445510E-01  0.83198132466E-02  0.88718207565E+00  0.88000000000E+00 0.  1.
        -11    1    4    4    0    0 -0.83000393725E-01 -0.65396710342E-01  0.67790466291E-02  0.10588678707E+00  0.51100000000E-03 0. -1.
         11    1    4    4    0    0 -0.25745793512E-01 -0.77722701791E-02 -0.14860953684E-03  0.26898648164E-01  0.51100000000E-03 0.  1.
</event>
<event>
 8    1  0.1086235E+005  0.1043930E+01  0.7957747E-01            NaN
         13   -1    0    0    0    0  0.00000000000E+00  0.00000000000E+00  0.74505805969E-08  0.10566000000E+00  0.10566000000E+00 0. -1.
     999900   -1    0    0    0    0 -0.00000000000E+00 -0.00000000000E+00 -0.74505805969E-08  0.93827000000E+00  0.93827000000E+00 0.  1.
     999902    2    1    2    0    0  0.20925779750E-01 -0.82004185344E-02  0.55623718502E-02  0.10207767043E+01  0.10205140885E+01 0.  0.
     999903    2    3    3    0    0 -0.78213812654E-01 -0.10099426868E+00  0.15756629048E-01  0.13030307733E+00  0.20331694614E-01 0.  0.
         14    1    1    2    0    0 -0.20925779750E-01  0.82004185344E-02 -0.55623718502E-02  0.23153295724E-01  0.00000000000E+00 0. -1.
     999901    1    3    3    0    0  0.99139592404E-01  0.92793850149E-01 -0.10194257198E-01  0.89047362695E+00  0.88000000000E+00 0. -1.
        -11    1    4    4    0    0 -0.19288757345E-01 -0.40377252423E-01  0.72964197963E-02  0.45341785761E-01  0.51100000000E-03 0. -1.
         11    1    4    4    0    0 -0.58925055308E-01 -0.60617016260E-01  0.84602092521E-02  0.84961291568E-01  0.51100000000E-03 0.  1.
</event>
<event>
 8    1  0.1086235E+005  0.1043930E+01  0.7957747E-01            NaN
         13   -1    0    0    0    0  0.00000000000E+00  0.00000000000E+00  0.74505805969E-08  0.10566000000E+00  0.10566000000E+00 0. -1.
     999900   -1    0    0    0    0 -0.00000000000E+00 -0.00000000000E+00 -0.74505805969E-08  0.93827000000E+00  0.93827000000E+00 0.  1.
     999902    2    1    2    0    0  0.10563968503E-01  0.15449443453E-01  0.14573991587E-01  0.10202090396E+01  0.10199332333E+01 0.  0.
     999903    2    3    3    0    0 -0.83218435204E-01  0.74764432584E-01 -0.62629493841E-01  0.12988674660E+00  0.20810696898E-01 0.  0.
         14    1    1    2    0    0 -0.10563968503E-01 -0.15449443453E-01 -0.14573991587E-01  0.23720960442E-01  0.00000000000E+00 0.  1.
     999901    1    3    3    0    0  0.93782403707E-01 -0.59314989131E-01  0.77203485428E-01  0.89032229296E+00  0.88000000000E+00 0. -1.
        -11    1    4    4    0    0 -0.45227393316E-01  0.48807839642E-01 -0.27527642081E-01  0.72012183110E-01  0.51100000000E-03 0. -1.
         11    1    4    4    0    0 -0.37991041888E-01  0.25956592942E-01 -0.35101851759E-01  0.57874563487E-01  0.51100000000E-03 0.  1.
</event>
<event>
 8    1  0.1086235E+005  0.1043930E+01  0.7957747E-01            NaN
         13   -1    0    0    0    0  0.00000000000E+00  0.00000000000E+00  0.74505805969E-08  0.10566000000E+00  0.10566000000E+00 0. -1.
     999900   -1    0    0    0    0 -0.00000000000E+00 -0.00000000000E+00 -0.74505805969E-08  0.93827000000E+00  0.93827000000E+00 0.  1.
     999902    2    1    2    0    0 -0.12158091398E-01  0.24327753346E-01  0.94431931126E-02  0.10151405459E+01  0.10147322284E+01 0.  0.
     999903    2    3    3    0    0  0.46931710402E-01 -0.10883762058E+00 -0.23626484858E-01  0.12254980820E+00  0.20298561713E-01 0.  0.
         14    1    1    2    0    0  0.12158091398E-01 -0.24327753346E-01 -0.94431931126E-02  0.28789454067E-01  0.00000000000E+00 0.  1.
     999901    1    3    3    0    0 -0.59089801800E-01  0.13316537393E+00  0.33069677970E-01  0.89259073774E+00  0.88000000000E+00 0. -1.
        -11    1    4    4    0    0  0.29567596464E-01 -0.43747221559E-01 -0.81994670624E-02  0.53437388932E-01  0.51100000000E-03 0. -1.
         11    1    4    4    0    0  0.17364113938E-01 -0.65090399022E-01 -0.15427017795E-01  0.69112419265E-01  0.51100000000E-03 0.  1.
</event>
<event>
 8    1  0.1086235E+005  0.1043930E+01  0.7957747E-01            NaN
         13   -1    0    0    0    0  0.00000000000E+00  0.00000000000E+00  0.74505805969E-08  0.10566000000E+00  0.10566000000E+00 0.  1.
     999900   -1    0    0    0    0 -0.00000000000E+00 -0.00000000000E+00 -0.74505805969E-08  0.93827000000E+00  0.93827000000E+00 0.  1.
     999902    2    1    2    0    0  0.21254956277E-02  0.82447635660E-02 -0.20870136057E-01  0.10213898927E+01  0.10211411540E+01 0.  0.
     999903    2    3    3    0    0  0.65206126709E-01 -0.10982169373E+00 -0.23116148165E-01  0.13126411568E+00  0.19577241499E-01 0.  0.
         14    1    1    2    0    0 -0.21254956277E-02 -0.82447635660E-02  0.20870136057E-01  0.22540107297E-01  0.00000000000E+00 0.  1.
     999901    1    3    3    0    0 -0.63080631081E-01  0.11806645729E+00  0.22460121075E-02  0.89012577703E+00  0.88000000000E+00 0.  1.
        -11    1    4    4    0    0  0.56273353554E-01 -0.83568706474E-01 -0.23785668345E-01  0.10352023069E+00  0.51100000000E-03 0. -1.
         11    1    4    4    0    0  0.89327731542E-02 -0.26252987255E-01  0.66952018091E-03  0.27743884990E-01  0.51100000000E-03 0.  1.
</event>
<event>
 8    1  0.1086235E+005  0.1043930E+01  0.7957747E-01            NaN
         13   -1    0    0    0    0  0.00000000000E+00  0.00000000000E+00  0.74505805969E-08  0.10566000000E+00  0.10566000000E+00 0.  1.
     999900   -1    0    0    0    0 -0.00000000000E+00 -0.00000000000E+00 -0.74505805969E-08  0.93827000000E+00  0.93827000000E+00 0. -1.
     999902    2    1    2    0    0  0.22319977906E-01 -0.40935313732E-02 -0.47666108285E-02  0.10207425251E+01  0.10204791245E+01 0.  0.
     999903    2    3    3    0    0 -0.17646111162E-01 -0.69957939226E-01  0.10667728169E+00  0.13037453957E+00  0.20297281610E-01 0.  0.
         14    1    1    2    0    0 -0.22319977906E-01  0.40935313732E-02  0.47666108285E-02  0.23187474887E-01  0.00000000000E+00 0. -1.
     999901    1    3    3    0    0  0.39966089069E-01  0.65864407853E-01 -0.11144389251E+00  0.89036798554E+00  0.88000000000E+00 0. -1.
        -11    1    4    4    0    0 -0.51289967718E-02 -0.26827136189E-01  0.58182666850E-01  0.64276634065E-01  0.51100000000E-03 0. -1.
         11    1    4    4    0    0 -0.12517114390E-01 -0.43130803037E-01  0.48494614836E-01  0.66097905507E-01  0.51100000000E-03 0.  1.
</event>
<event>
 8    1  0.1086235E+005  0.1043930E+01  0.7957747E-01            NaN
         13   -1    0    0    0    0  0.00000000000E+00  0.00000000000E+00  0.74505805969E-08  0.10566000000E+00  0.10566000000E+00 0. -1.
     999900   -1    0    0    0    0 -0.00000000000E+00 -0.00000000000E+00 -0.74505805969E-08  0.93827000000E+00  0.93827000000E+00 0. -1.
     999902    2    1    2    0    0  0.44153010917E-02 -0.27161725122E-02 -0.23009399988E-01  0.10203438819E+01  0.10200712389E+01 0.  0.
     999903    2    3    3    0    0  0.53335994833E-01  0.83695524093E-01  0.79336466726E-01  0.12886483451E+00  0.21498872610E-01 0.  0.
         14    1    1    2    0    0 -0.44153010917E-02  0.27161725122E-02  0.23009399988E-01  0.23586118050E-01  0.00000000000E+00 0. -1.
     999901    1    3    3    0    0 -0.48920693741E-01 -0.86411696605E-01 -0.10234586671E+00  0.89147904744E+00  0.88000000000E+00 0. -1.
        -11    1    4    4    0    0  0.25265514637E-01  0.28433682325E-01  0.19653591719E-01  0.42817581773E-01  0.51100000000E-03 0.  1.
         11    1    4    4    0    0  0.28070480196E-01  0.55261841767E-01  0.59682875006E-01  0.86047252739E-01  0.51100000000E-03 0. -1.
</event>
<event>
 8    1  0.1086235E+005  0.1043930E+01  0.7957747E-01            NaN
         13   -1    0    0    0    0  0.00000000000E+00  0.00000000000E+00  0.74505805969E-08  0.10566000000E+00  0.10566000000E+00 0. -1.
     999900   -1    0    0    0    0 -0.00000000000E+00 -0.00000000000E+00 -0.74505805969E-08  0.93827000000E+00  0.93827000000E+00 0. -1.
     999902    2    1    2    0    0  0.70912657333E-02  0.42288126874E-02  0.21849670258E-01  0.10205724103E+01  0.10203050856E+01 0.  0.
     999903    2    3    3    0    0  0.24502092882E-01 -0.27881534265E-01  0.12672063434E+00  0.13359319386E+00  0.20280280304E-01 0.  0.
         14    1    1    2    0    0 -0.70912657333E-02 -0.42288126874E-02 -0.21849670258E-01  0.23357589705E-01  0.00000000000E+00 0.  1.
     999901    1    3    3    0    0 -0.17410827148E-01  0.32110346953E-01 -0.10487096408E+00  0.88697921644E+00  0.88000000000E+00 0. -1.
        -11    1    4    4    0    0  0.19515065420E-01 -0.13224466752E-01  0.99669633383E-01  0.10242080472E+00  0.51100000000E-03 0. -1.
         11    1    4    4    0    0  0.49870274619E-02 -0.14657067513E-01  0.27051000956E-01  0.31172389141E-01  0.51100000000E-03 0.  1.
</event>
<event>
 8    1  0.1086235E+005  0.1043930E+01  0.7957747E-01            NaN
         13   -1    0    0    0    0  0.00000000000E+00  0.00000000000E+00  0.74505805969E-08  0.10566000000E+00  0.10566000000E+00 0. -1.
     999900   -1    0    0    0    0 -0.00000000000E+00 -0.00000000000E+00 -0.74505805969E-08  0.93827000000E+00  0.93827000000E+00 0. -1.
     999902    2    1    2    0    0  0.12405223949E-01 -0.21552832994E-02 -0.20514379854E-01  0.10198597983E+01  0.10195757126E+01 0.  0.
     999903    2    3    3    0    0 -0.11580997822E+00  0.49395707097E-01  0.20783082932E-01  0.12811873552E+00  0.11427463407E-01 0.  0.
         14    1    1    2    0    0 -0.12405223949E-01  0.21552832994E-02  0.20514379854E-01  0.24070201663E-01  0.00000000000E+00 0. -1.
     999901    1    3    3    0    0  0.12821520217E+00 -0.51550990397E-01 -0.41297462786E-01  0.89174106282E+00  0.88000000000E+00 0. -1.
        -11    1    4    4    0    0 -0.75904259985E-01  0.27832289530E-01  0.16863652666E-01  0.82587752885E-01  0.51100000000E-03 0.  1.
         11    1    4    4    0    0 -0.39905718238E-01  0.21563417567E-01  0.39194302660E-02  0.45530982636E-01  0.51100000000E-03 0. -1.
</event>
<event>
 8    1  0.1086235E+005  0.1043930E+01  0.7957747E-01            NaN
         13   -1    0    0    0    0  0.00000000000E+00  0.00000000000E+00  0.74505805969E-08  0.10566000000E+00  0.10566000000E+00 0. -1.
     999900   -1    0    0    0    0 -0.00000000000E+00 -0.00000000000E+00 -0.74505805969E-08  0.93827000000E+00  0.93827000000E+00 0. -1.
     999902    2    1    2    0    0  0.70567941618E-02  0.13433783942E-03 -0.21821793537E-01  0.10209951561E+01  0.10207375283E+01 0.  0.
     999903    2    3    3    0    0  0.12911378122E+00 -0.12117083465E-01 -0.17561938081E-01  0.13247607823E+00  0.20598481014E-01 0.  0.
         14    1    1    2    0    0 -0.70567941618E-02 -0.13433783942E-03  0.21821793537E-01  0.22934843878E-01  0.00000000000E+00 0. -1.
     999901    1    3    3    0    0 -0.12205698706E+00  0.12251421304E-01 -0.42598554566E-02  0.88851907789E+00  0.88000000000E+00 0.  1.
        -11    1    4    4    0    0  0.44761653219E-01 -0.17676618717E-02 -0.15695605395E-01  0.47469394110E-01  0.51100000000E-03 0.  1.
         11    1    4    4    0    0  0.84352128004E-01 -0.10349421593E-01 -0.18663326854E-02  0.85006684118E-01  0.51100000000E-03 0. -1.
</event>
<event>
 8    1  0.1086235E+005  0.1043930E+01  0.7957747E-01            NaN
         13   -1    0    0    0    0  0.00000000000E+00  0.00000000000E+00  0.74505805969E-08  0.10566000000E+00  0.10566000000E+00 0. -1.
     999900   -1    0    0    0    0 -0.00000000000E+00 -0.00000000000E+00 -0.74505805969E-08  0.93827000000E+00  0.93827000000E+00 0.  1.
     999902    2    1    2    0    0 -0.68796473252E-02  0.13511057123E-01  0.17533909806E-01  0.10207499179E+01  0.10204866872E+01 0.  0.
     999903    2    3    3    0    0 -0.68982761763E-01  0.10492224170E+00  0.40963500337E-01  0.13352855479E+00  0.19610414610E-01 0.  0.
         14    1    1    2    0    0  0.68796473252E-02 -0.13511057123E-01 -0.17533909806E-01  0.23180082074E-01  0.00000000000E+00 0.  1.
     999901    1    3    3    0    0  0.62103114438E-01 -0.91411184577E-01 -0.23429590531E-01  0.88722136313E+00  0.88000000000E+00 0.  1.
        -11    1    4    4    0    0 -0.42517427355E-01  0.69752672127E-01  0.17112502348E-01  0.83464158508E-01  0.51100000000E-03 0.  1.
         11    1    4    4    0    0 -0.26465334408E-01  0.35169569573E-01  0.23850997989E-01  0.50064396284E-01  0.51100000000E-03 0. -1.
</event>
<event>
 8    1  0.1086235E+005  0.1043930E+01  0.7957747E-01            NaN
         13   -1    0    0    0    0  0.00000000000E+00  0.00000000000E+00  0.74505805969E-08  0.10566000000E+00  0.10566000000E+00 0. -1.
     999900   -1    0    0    0    0 -0.00000000000E+00 -0.00000000000E+00 -0.74505805969E-08  0.93827000000E+00  0.93827000000E+00 0.  1.
     999902    2    1    2    0    0 -0.56997261986E-02  0.20830250679E-01  0.98749358426E-02  0.10201834091E+01  0.10199069995E+01 0.  0.
     999903    2    3    3    0    0 -0.94140478985E-01 -0.47221809358E-01 -0.72397760754E-01  0.12932896181E+00  0.19804432283E-01 0.  0.
         14    1    1    2    0    0  0.56997261986E-02 -0.20830250679E-01 -0.98749358426E-02  0.23746590913E-01  0.00000000000E+00 0.  1.
     999901    1    3    3    0    0  0.88440752787E-01  0.68052060037E-01  0.82272696597E-01  0.89085444728E+00  0.88000000000E+00 0.  1.
        -11    1    4    4    0    0 -0.59657046821E-01 -0.26706330968E-01 -0.33525323093E-01  0.73460191659E-01  0.51100000000E-03 0.  1.
         11    1    4    4    0    0 -0.34483432164E-01 -0.20515478390E-01 -0.38872437662E-01  0.55868770151E-01  0.51100000000E-03 0. -1.
</event>
<event>
 8    1  0.1086235E+005  0.1043930E+01  0.7957747E-01            NaN
         13   -1    0    0    0    0  0.00000000000E+00  0.00000000000E+00  0.74505805969E-08  0.10566000000E+00  0.10566000000E+00 0.  1.
     999900   -1    0    0    0    0 -0.00000000000E+00 -0.00000000000E+00 -0.74505805969E-08  0.93827000000E+00  0.93827000000E+00 0.  1.
     999902    2    1    2    0    0  0.88816502192E-02  0.84427850768E-02 -0.19660022921E-01  0.10207636271E+01  0.10205007112E+01 0.  0.
     999903    2    3    3    0    0 -0.75481726162E-01 -0.84553208711E-01 -0.62422152669E-01  0.13082316066E+00  0.19272730281E-01 0.  0.
         14    1    1    2    0    0 -0.88816502192E-02 -0.84427850768E-02  0.19660022921E-01  0.23166372865E-01  0.00000000000E+00 0.  1.
     999901    1    3    3    0    0  0.84363376381E-01  0.92995993788E-01  0.42762129748E-01  0.88994046648E+00  0.88000000000E+00 0. -1.
        -11    1    4    4    0    0 -0.28447810978E-01 -0.42078386774E-01 -0.35471393387E-01  0.61954414312E-01  0.51100000000E-03 0.  1.
         11    1    4    4    0    0 -0.47033915184E-01 -0.42474821938E-01 -0.26950759282E-01  0.68868746344E-01  0.51100000000E-03 0. -1.
</event>
<event>
 8    1  0.1086235E+005  0.1043930E+01  0.7957747E-01            NaN
         13   -1    0    0    0    0  0.00000000000E+00  0.00000000000E+00  0.74505805969E-08  0.10566000000E+00  0.10566000000E+00 0. -1.
     999900   -1    0    0    0    0 -0.00000000000E+00 -0.00000000000E+00 -0.74505805969E-08  0.93827000000E+00  0.93827000000E+00 0.  1.
     999902    2    1    2    0    0 -0.15331493636E-01  0.17971217643E-01  0.65371202171E-03  0.10202985231E+01  0.10200248181E+01 0.  0.
     999903    2    3    3    0    0 -0.16874910918E-01  0.48965572205E-01 -0.11934831651E+00  0.13161212229E+00  0.19883163733E-01 0.  0.
         14    1    1    2    0    0  0.15331493636E-01 -0.17971217643E-01 -0.65371202171E-03  0.23631476892E-01  0.00000000000E+00 0. -1.
     999901    1    3    3    0    0  0.15434172821E-02 -0.30994354562E-01  0.12000202853E+00  0.88868640082E+00  0.88000000000E+00 0. -1.
        -11    1    4    4    0    0 -0.50159151710E-02  0.28283998845E-01 -0.85574585465E-01  0.90268570356E-01  0.51100000000E-03 0. -1.
         11    1    4    4    0    0 -0.11858995747E-01  0.20681573360E-01 -0.33773731043E-01  0.41343551932E-01  0.51100000000E-03 0.  1.
</event>
<event>
 8    1  0.1086235E+005  0.1043930E+01  0.7957747E-01            NaN
         13   -1    0    0    0    0  0.00000000000E+00  0.00000000000E+00  0.74505805969E-08  0.10566000000E+00  0.10566000000E+00 0.  1.
     999900   -1    0    0    0    0 -0.00000000000E+00 -0.00000000000E+00 -0.74505805969E-08  0.93827000000E+00  0.93827000000E+00 0. -1.
     999902    2    1    2    0    0  0.11362391186E-01 -0.54574020685E-02 -0.17993075780E-01  0.10219609776E+01  0.10217248170E+01 0.  0.
     999903    2    3    3    0    0 -0.10521312259E+00  0.87919602700E-02  0.72360580018E-01  0.12957278969E+00  0.20148314014E-01 0.  0.
         14    1    1    2    0    0 -0.11362391186E-01  0.54574020685E-02  0.17993075780E-01  0.21969022437E-01  0.00000000000E+00 0.  1.
     999901    1    3    3    0    0  0.11657551377E+00 -0.14249362338E-01 -0.90353655799E-01  0.89238818787E+00  0.88000000000E+00 0. -1.
        -11    1    4    4    0    0 -0.27307765400E-01 -0.64242429884E-02  0.17209301554E-01  0.32915135274E-01  0.51100000000E-03 0. -1.
         11    1    4    4    0    0 -0.77905357187E-01  0.15216203258E-01  0.55151278464E-01  0.96657654416E-01  0.51100000000E-03 0.  1.
</event>
<event>
 8    1  0.1086235E+005  0.1043930E+01  0.7957747E-01            NaN
         13   -1    0    0    0    0  0.00000000000E+00  0.00000000000E+00  0.74505805969E-08  0.10566000000E+00  0.10566000000E+00 0.  1.
     999900   -1    0    0    0    0 -0.00000000000E+00 -0.00000000000E+00 -0.74505805969E-08  0.93827000000E+00  0.93827000000E+00 0. -1.
     999902    2    1    2    0    0  0.32776292604E-01 -0.63026858194E-02  0.92294421833E-02  0.10093006511E+01  0.10087064055E+01 0.  0.
     999903    2    3    3    0    0 -0.51058036509E-02  0.30811710597E-01  0.11553321151E+00  0.12131809322E+00  0.19867713536E-01 0.  0.
         14    1    1    2    0    0 -0.32776292604E-01  0.63026858194E-02 -0.92294421833E-02  0.34629348945E-01  0.00000000000E+00 0.  1.
     999901    1    3    3    0    0  0.37882096254E-01 -0.37114396416E-01 -0.10630376933E+00  0.88798255783E+00  0.88000000000E+00 0. -1.
        -11    1    4    4    0    0 -0.46084601694E-02 -0.74209344727E-03  0.25099464417E-01  0.25534933774E-01  0.51100000000E-03 0.  1.
         11    1    4    4    0    0 -0.49734348157E-03  0.31553804044E-01  0.90433747092E-01  0.95783159451E-01  0.51100000000E-03 0. -1.
</event>
<event>
 8    1  0.1086235E+005  0.1043930E+01  0.7957747E-01            NaN
         13   -1    0    0    0    0  0.00000000000E+00  0.00000000000E+00  0.74505805969E-08  0.10566000000E+00  0.10566000000E+00 0. -1.
     999900   -1    0    0    0    0 -0.00000000000E+00 -0.00000000000E+00 -0.74505805969E-08  0.93827000000E+00  0.93827000000E+00 0.  1.
     999902    2    1    2    0    0  0.11479824960E-01 -0.15499578813E-02 -0.20320458477E-01  0.10205396220E+01  0.10202715375E+01 0.  0.
     999903    2    3    3    0    0  0.10369693610E+00  0.63582152427E-01 -0.49534785888E-01  0.13284617023E+00  0.19966603793E-01 0.  0.
         14    1    1    2    0    0 -0.11479824960E-01  0.15499578813E-02  0.20320458477E-01  0.23390378006E-01  0.00000000000E+00 0. -1.
     999901    1    3    3    0    0 -0.92217111144E-01 -0.65132110308E-01  0.29214327410E-01  0.88769345177E+00  0.88000000000E+00 0. -1.
        -11    1    4    4    0    0  0.76128597622E-01  0.35839652934E-01 -0.34466894879E-01  0.90930039381E-01  0.51100000000E-03 0. -1.
         11    1    4    4    0    0  0.27568338482E-01  0.27742499493E-01 -0.15067891009E-01  0.41916130848E-01  0.51100000000E-03 0.  1.
</event>
<event>
 8    1  0.1086235E+005  0.1043930E+01  0.7957747E-01            NaN
         13   -1    0    0    0    0  0.00000000000E+00  0.00000000000E+00  0.74505805969E-08  0.10566000000E+00  0.10566000000E+00 0.  1.
     999900   -1    0    0    0    0 -0.00000000000E+00 -0.00000000000E+00 -0.74505805969E-08  0.93827000000E+00  0.93827000000E+00 0. -1.
     999902    2    1    2    0    0  0.19305458583E-01  0.10769586198E-01  0.91168945099E-02  0.10200176082E+01  0.10197372791E+01 0.  0.
     999903    2    3    3    0    0  0.81074006804E-01  0.67393148631E-01  0.79310256267E-01  0.13325456799E+00  0.18757187429E-01 0.  0.
         14    1    1    2    0    0 -0.19305458583E-01 -0.10769586198E-01 -0.91168945099E-02  0.23912391839E-01  0.00000000000E+00 0. -1.
     999901    1    3    3    0    0 -0.61768548221E-01 -0.56623562433E-01 -0.70193361757E-01  0.88676304017E+00  0.88000000000E+00 0. -1.
        -11    1    4    4    0    0  0.56385846296E-01  0.47878598953E-01  0.44503688998E-01  0.86328230352E-01  0.51100000000E-03 0. -1.
         11    1    4    4    0    0  0.24688160508E-01  0.19514549678E-01  0.34806567269E-01  0.46926337641E-01  0.51100000000E-03 0.  1.
</event>
<event>
 8    1  0.1086235E+005  0.1043930E+01  0.7957747E-01            NaN
         13   -1    0    0    0    0  0.00000000000E+00  0.00000000000E+00  0.74505805969E-08  0.10566000000E+00  0.10566000000E+00 0.  1.
     999900   -1    0    0    0    0 -0.00000000000E+00 -0.00000000000E+00 -0.74505805969E-08  0.93827000000E+00  0.93827000000E+00 0.  1.
     999902    2    1    2    0    0 -0.18558063924E-01  0.23996698237E-02 -0.14154851438E-01  0.10204668380E+01  0.10201970631E+01 0.  0.
     999903    2    3    3    0    0 -0.55700391253E-01 -0.32272774357E-01  0.11143842676E+00  0.13009871054E+00  0.19054815043E-01 0.  0.
         14    1    1    2    0    0  0.18558063924E-01 -0.23996698237E-02  0.14154851438E-01  0.23463162001E-01  0.00000000000E+00 0.  1.
     999901    1    3    3    0    0  0.37142327328E-01  0.34672444181E-01 -0.12559327819E+00  0.89036812746E+00  0.88000000000E+00 0.  1.
        -11    1    4    4    0    0 -0.23561809014E-01 -0.23651212094E-01  0.63475993739E-01  0.71721695321E-01  0.51100000000E-03 0. -1.
         11    1    4    4    0    0 -0.32138582239E-01 -0.86215622630E-02  0.47962433017E-01  0.58377015221E-01  0.51100000000E-03 0.  1.
</event>
<event>
 8    1  0.1086235E+005  0.1043930E+01  0.7957747E-01            NaN
         13   -1    0    0    0    0  0.00000000000E+00  0.00000000000E+00  0.74505805969E-08  0.10566000000E+00  0.10566000000E+00 0. -1.
     999900   -1    0    0    0    0 -0.00000000000E+00 -0.00000000000E+00 -0.74505805969E-08  0.93827000000E+00  0.93827000000E+00 0. -1.
     999902    2    1    2    0    0 -0.89383917870E-02  0.20684507905E-01 -0.83874718154E-02  0.10198864271E+01  0.10196029770E+01 0.  0.
     999903    2    3    3    0    0 -0.70671242468E-01  0.46459377793E-01 -0.10003165472E+00  0.13260183631E+00  0.20591666965E-01 0.  0.
         14    1    1    2    0    0  0.89383917870E-02 -0.20684507905E-01  0.83874718154E-02  0.24043572914E-01  0.00000000000E+00 0. -1.
     999901    1    3    3    0    0  0.61732850681E-01 -0.25774869888E-01  0.91644182909E-01  0.88728459078E+00  0.88000000000E+00 0.  1.
        -11    1    4    4    0    0 -0.38859514682E-01  0.21995207106E-01 -0.37570139710E-01  0.58357754718E-01  0.51100000000E-03 0. -1.
         11    1    4    4    0    0 -0.31811727786E-01  0.24464170687E-01 -0.62461515015E-01  0.74244081590E-01  0.51100000000E-03 0.  1.
</event>
<event>
 8    1  0.1086235E+005  0.1043930E+01  0.7957747E-01            NaN
         13   -1    0    0    0    0  0.00000000000E+00  0.00000000000E+00  0.74505805969E-08  0.10566000000E+00  0.10566000000E+00 0.  1.
     999900   -1    0    0    0    0 -0.00000000000E+00 -0.00000000000E+00 -0.74505805969E-08  0.93827000000E+00  0.93827000000E+00 0. -1.
     999902    2    1    2    0    0 -0.37173657477E-02 -0.10312766167E-01 -0.20966890511E-01  0.10202702779E+01  0.10199959105E+01 0.  0.
     999903    2    3    3    0    0 -0.56139356375E-01  0.86757790516E-03  0.11374561378E+00  0.12840676587E+00  0.19946248809E-01 0.  0.
         14    1    1    2    0    0  0.37173657477E-02  0.10312766167E-01  0.20966890511E-01  0.23659722142E-01  0.00000000000E+00 0.  1.
     999901    1    3    3    0    0  0.52421990627E-01 -0.11180344072E-01 -0.13471250430E+00  0.89186351198E+00  0.88000000000E+00 0. -1.
        -11    1    4    4    0    0 -0.29769013498E-01 -0.57344546564E-02  0.76527367810E-01  0.82315109668E-01  0.51100000000E-03 0. -1.
         11    1    4    4    0    0 -0.26370342877E-01  0.66020325616E-02  0.37218245975E-01  0.46091656206E-01  0.51100000000E-03 0.  1.
</event>
<event>
 8    1  0.1086235E+005  0.1043930E+01  0.7957747E-01            NaN
         13   -1    0    0    0    0  0.00000000000E+00  0.00000000000E+00  0.74505805969E-08  0.10566000000E+00  0.10566000000E+00 0.  1.
     999900   -1    0    0    0    0 -0.00000000000E+00 -0.00000000000E+00 -0.74505805969E-08  0.93827000000E+00  0.93827000000E+00 0.  1.
     999902    2    1    2    0    0  0.18816892735E-02 -0.25118356499E-02  0.23126364638E-01  0.10205916450E+01  0.10203247655E+01 0.  0.
     999903    2    3    3    0    0 -0.20578229402E-01 -0.10678082734E+00  0.73276341987E-01  0.13273383498E+00  0.20572798581E-01 0.  0.
         14    1    1    2    0    0 -0.18816892735E-02  0.25118356499E-02 -0.23126364638E-01  0.23338355003E-01  0.00000000000E+00 0. -1.
     999901    1    3    3    0    0  0.22459918676E-01  0.10426899169E+00 -0.50149977348E-01  0.88785781001E+00  0.88000000000E+00 0. -1.
        -11    1    4    4    0    0 -0.41923804598E-02 -0.64962351141E-01  0.50384556621E-01  0.82319789763E-01  0.51100000000E-03 0.  1.
         11    1    4    4    0    0 -0.16385848943E-01 -0.41818476199E-01  0.22891785365E-01  0.50414045220E-01  0.51100000000E-03 0. -1.
</event>
<event>
 8    1  0.1086235E+005  0.1043930E+01  0.7957747E-01            NaN
         13   -1    0    0    0    0  0.00000000000E+00  0.00000000000E+00  0.74505805969E-08  0.10566000000E+00  0.10566000000E+00 0. -1.
     999900   -1    0    0    0    0 -0.00000000000E+00 -0.00000000000E+00 -0.74505805969E-08  0.93827000000E+00  0.93827000000E+00 0. -1.
     999902    2    1    2    0    0 -0.12313615919E-01 -0.33006679736E-02  0.20109014587E-01  0.10201205058E+01  0.10198426125E+01 0.  0.
     999903    2    3    3    0    0 -0.97117460574E-01 -0.43506363660E-01  0.77804591607E-01  0.13325131047E+00  0.19435854466E-01 0.  0.
         14    1    1    2    0    0  0.12313615919E-01  0.33006679736E-02 -0.20109014587E-01  0.23809494193E-01  0.00000000000E+00 0.  1.
     999901    1    3    3    0    0  0.84803844655E-01  0.40205695686E-01 -0.57695577020E-01  0.88686919534E+00  0.88000000000E+00 0. -1.
        -11    1    4    4    0    0 -0.64770055101E-01 -0.35282782386E-01  0.61828764060E-01  0.96244958085E-01  0.51100000000E-03 0.  1.
         11    1    4    4    0    0 -0.32347405473E-01 -0.82235812743E-02  0.15975827548E-01  0.37006352382E-01  0.51100000000E-03 0. -1.
</event>
<event>
 8    1  0.1086235E+005  0.1043930E+01  0.7957747E-01            NaN
         13   -1    0    0    0    0  0.00000000000E+00  0.00000000000E+00  0.74505805969E-08  0.10566000000E+00  0.10566000000E+00 0. -1.
     999900   -1    0    0    0    0 -0.00000000000E+00 -0.00000000000E+00 -0.74505805969E-08  0.93827000000E+00  0.93827000000E+00 0.  1.
     999902    2    1    2    0    0 -0.21929334380E-01 -0.82578698644E-02  0.11324173576E-02  0.10204700237E+01  0.10202003228E+01 0.  0.
     999903    2    3    3    0    0 -0.51561061070E-01  0.63963362329E-01  0.10119932503E+00  0.13136523140E+00  0.16299260570E-01 0.  0.
         14    1    1    2    0    0  0.21929334380E-01  0.82578698644E-02 -0.11324173576E-02  0.23459976345E-01  0.00000000000E+00 0.  1.
     999901    1    3    3    0    0  0.29631726690E-01 -0.72221232193E-01 -0.10006690767E+00  0.88910479226E+00  0.88000000000E+00 0.  1.
        -11    1    4    4    0    0 -0.29081645738E-01  0.26688863883E-01  0.56943553929E-01  0.69288289265E-01  0.51100000000E-03 0. -1.
         11    1    4    4    0    0 -0.22479415332E-01  0.37274498446E-01  0.44255771097E-01  0.62076942132E-01  0.51100000000E-03 0.  1.
</event>
<event>
 8    1  0.1086235E+005  0.1043930E+01  0.7957747E-01            NaN
         13   -1    0    0    0    0  0.00000000000E+00  0.00000000000E+00  0.74505805969E-08  0.10566000000E+00  0.10566000000E+00 0. -1.
     999900   -1    0    0    0    0 -0.00000000000E+00 -0.00000000000E+00 -0.74505805969E-08  0.93827000000E+00  0.93827000000E+00 0.  1.
     999902    2    1    2    0    0  0.66251312527E-02 -0.20462823885E-01  0.94137785342E-02  0.10204515258E+01  0.10201813945E+01 0.  0.
     999903    2    3    3    0    0 -0.71413861202E-01  0.44949847626E-01  0.97579510926E-01  0.13020319059E+00  0.17626159935E-01 0.  0.
         14    1    1    2    0    0 -0.66251312527E-02  0.20462823885E-01 -0.94137785342E-02  0.23478474221E-01  0.00000000000E+00 0. -1.
     999901    1    3    3    0    0  0.78038992455E-01 -0.65412671511E-01 -0.88165732391E-01  0.89024833519E+00  0.88000000000E+00 0.  1.
        -11    1    4    4    0    0 -0.21240240016E-01  0.17062135283E-01  0.43539091069E-01  0.51363195272E-01  0.51100000000E-03 0.  1.
         11    1    4    4    0    0 -0.50173621186E-01  0.27887712343E-01  0.54040419856E-01  0.78839995319E-01  0.51100000000E-03 0. -1.
</event>
<event>
 8    1  0.1086235E+005  0.1043930E+01  0.7957747E-01            NaN
         13   -1    0    0    0    0  0.00000000000E+00  0.00000000000E+00  0.74505805969E-08  0.10566000000E+00  0.10566000000E+00 0. -1.
     999900   -1    0    0    0    0 -0.00000000000E+00 -0.00000000000E+00 -0.74505805969E-08  0.93827000000E+00  0.93827000000E+00 0. -1.
     999902    2    1    2    0    0  0.74111206038E-02  0.47766619007E-03  0.22225926501E-01  0.10204961637E+01  0.10202270706E+01 0.  0.
     999903    2    3    3    0    0 -0.12212064537E+00 -0.28834720442E-01  0.30094228137E-01  0.13049638588E+00  0.19461526924E-01 0.  0.
         14    1    1    2    0    0 -0.74111206038E-02 -0.47766619007E-03 -0.22225926501E-01  0.23433836272E-01  0.00000000000E+00 0.  1.
     999901    1    3    3    0    0  0.12953176598E+00  0.29312386632E-01 -0.78683016357E-02  0.88999977785E+00  0.88000000000E+00 0.  1.
        -11    1    4    4    0    0 -0.10197743468E+00 -0.26070976288E-01  0.17863030773E-01  0.10676348616E+00  0.51100000000E-03 0. -1.
         11    1    4    4    0    0 -0.20143210695E-01 -0.27637441540E-02  0.12231197364E-01  0.23732899714E-01  0.51100000000E-03 0.  1.
</event>
<event>
 8    1  0.1086235E+005  0.1043930E+01  0.7957747E-01            NaN
         13   -1    0    0    0    0  0.00000000000E+00  0.00000000000E+00  0.74505805969E-08  0.10566000000E+00  0.10566000000E+00 0. -1.
     999900   -1    0    0    0    0 -0.00000000000E+00 -0.00000000000E+00 -0.74505805969E-08  0.93827000000E+00  0.93827000000E+00 0.  1.
     999902    2    1    2    0    0  0.13267423319E-01  0.16665692642E-02 -0.20596708714E-01  0.10193734045E+01  0.10190775787E+01 0.  0.
     999903    2    3    3    0    0  0.11051263505E+00  0.61661085982E-01  0.26169205940E-01  0.13075480010E+00  0.19921304659E-01 0.  0.
         14    1    1    2    0    0 -0.13267423319E-01 -0.16665692642E-02  0.20596708714E-01  0.24556595540E-01  0.00000000000E+00 0. -1.
     999901    1    3    3    0    0 -0.97245211732E-01 -0.59994516718E-01 -0.46765914654E-01  0.88861860436E+00  0.88000000000E+00 0.  1.
        -11    1    4    4    0    0  0.48572467643E-01  0.15971410693E-01  0.11052559837E-01  0.52314345761E-01  0.51100000000E-03 0. -1.
         11    1    4    4    0    0  0.61940167408E-01  0.45689675289E-01  0.15116646103E-01  0.78440454339E-01  0.51100000000E-03 0.  1.
</event>
<event>
 8    1  0.1086235E+005  0.1043930E+01  0.7957747E-01            NaN
         13   -1    0    0    0    0  0.00000000000E+00  0.00000000000E+00  0.74505805969E-08  0.10566000000E+00  0.10566000000E+00 0.  1.
     999900   -1    0    0    0    0 -0.00000000000E+00 -0.00000000000E+00 -0.74505805969E-08  0.93827000000E+00  0.93827000000E+00 0.  1.
     999902    2    1    2    0    0  0.10595251436E-02  0.19792335294E-01 -0.89011182857E-02  0.10222023900E+01  0.10219714463E+01 0.  0.
     999903    2    3    3    0    0 -0.85713492153E-01  0.76429380832E-01 -0.66139824814E-01  0.13427582716E+00  0.21616390577E-01 0.  0.
         14    1    1    2    0    0 -0.10595251436E-02 -0.19792335294E-01  0.89011182857E-02  0.21727610008E-01  0.00000000000E+00 0.  1.
     999901    1    3    3    0    0  0.86773017297E-01 -0.56637045538E-01  0.57238706528E-01  0.88792656283E+00  0.88000000000E+00 0. -1.
        -11    1    4    4    0    0 -0.67684249099E-01  0.69560475797E-01 -0.59609960939E-01  0.11390094790E+00  0.51100000000E-03 0.  1.
         11    1    4    4    0    0 -0.18029243054E-01  0.68689050353E-02 -0.65298638753E-02  0.20374879256E-01  0.51100000000E-03 0. -1.
</event>
<event>
 8    1  0.1086235E+005  0.1043930E+01  0.7957747E-01            NaN
         13   -1    0    0    0    0  0.00000000000E+00  0.00000000000E+00  0.74505805969E-08  0.10566000000E+00  0.10566000000E+00 0.  1.
     999900   -1    0    0    0    0 -0.00000000000E+00 -0.00000000000E+00 -0.74505805969E-08  0.93827000000E+00  0.93827000000E+00 0.  1.
     999902    2    1    2    0    0 -0.18495270999E-01 -0.34368184924E-03  0.16014406821E-01  0.10194625851E+01  0.10191689301E+01 0.  0.
     999903    2    3    3    0    0  0.14673299947E-01  0.67375086965E-01 -0.10579733796E+00  0.12787743104E+00  0.20120948697E-01 0.  0.
         14    1    1    2    0    0  0.18495270999E-01  0.34368184924E-03 -0.16014406821E-01  0.24467414909E-01  0.00000000000E+00 0. -1.
     999901    1    3    3    0    0 -0.33168570946E-01 -0.67718768814E-01  0.12181174478E+00  0.89158515405E+00  0.88000000000E+00 0. -1.
        -11    1    4    4    0    0  0.16941246522E-02  0.43670949584E-01 -0.54182591614E-01  0.69613477509E-01  0.51100000000E-03 0. -1.
         11    1    4    4    0    0  0.12979175295E-01  0.23704137381E-01 -0.51614746345E-01  0.58263953535E-01  0.51100000000E-03 0.  1.
</event>
<event>
 8    1  0.1123322E+005  0.1043930E+01  0.7957747E-01            NaN
         13   -1    0    0    0    0  0.00000000000E+00  0.00000000000E+00  0.74505805969E-08  0.10566000000E+00  0.10566000000E+00 0. -1.
     999900   -1    0    0    0    0 -0.00000000000E+00 -0.00000000000E+00 -0.74505805969E-08  0.93827000000E+00  0.93827000000E+00 0. -1.
     999902    2    1    2    0    0  0.16769405730E-01  0.14366427846E-01 -0.69413553282E-02  0.10207828699E+01  0.10205203956E+01 0.  0.
     999903    2    3    3    0    0 -0.22247604989E-01 -0.85183048237E-01  0.91949936443E-01  0.12881206719E+00  0.19663423094E-01 0.  0.
         14    1    1    2    0    0 -0.16769405730E-01 -0.14366427846E-01  0.69413553282E-02  0.23147130090E-01  0.00000000000E+00 0. -1.
     999901    1    3    3    0    0  0.39017010719E-01  0.99549476083E-01 -0.98891291771E-01  0.89197080272E+00  0.88000000000E+00 0. -1.
        -11    1    4    4    0    0 -0.23096224807E-01 -0.60008937891E-01  0.58462273264E-01  0.86905734813E-01  0.51100000000E-03 0. -1.
         11    1    4    4    0    0  0.84861981809E-03 -0.25174110346E-01  0.33487663179E-01  0.41906332379E-01  0.51100000000E-03 0.  1.
</event>
<event>
 8    1  0.1086235E+005  0.1043930E+01  0.7957747E-01            NaN
         13   -1    0    0    0    0  0.00000000000E+00  0.00000000000E+00  0.74505805969E-08  0.10566000000E+00  0.10566000000E+00 0.  1.
     999900   -1    0    0    0    0 -0.00000000000E+00 -0.00000000000E+00 -0.74505805969E-08  0.93827000000E+00  0.93827000000E+00 0.  1.
     999902    2    1    2    0    0 -0.92549214969E-02  0.10161556202E-01 -0.19912590714E-01  0.10197345032E+01  0.10194474165E+01 0.  0.
     999903    2    3    3    0    0  0.29294668827E-01  0.11261426892E+00  0.54010411399E-01  0.12987651481E+00  0.20264090737E-01 0.  0.
         14    1    1    2    0    0  0.92549214969E-02 -0.10161556202E-01  0.19912590714E-01  0.24195496798E-01  0.00000000000E+00 0.  1.
     999901    1    3    3    0    0 -0.38549590324E-01 -0.10245271272E+00 -0.73923002113E-01  0.88985798839E+00  0.88000000000E+00 0.  1.
        -11    1    4    4    0    0  0.25173110971E-01  0.93884020341E-01  0.36275745123E-01  0.10375011131E+00  0.51100000000E-03 0. -1.
         11    1    4    4    0    0  0.41215578563E-02  0.18730248584E-01  0.17734666276E-01  0.26126403505E-01  0.51100000000E-03 0.  1.
</event>
<event>
 8    1  0.1086235E+005  0.1043930E+01  0.7957747E-01            NaN
         13   -1    0    0    0    0  0.00000000000E+00  0.00000000000E+00  0.74505805969E-08  0.10566000000E+00  0.10566000000E+00 0.  1.
     999900   -1    0    0    0    0 -0.00000000000E+00 -0.00000000000E+00 -0.74505805969E-08  0.93827000000E+00  0.93827000000E+00 0. -1.
     999902    2    1    2    0    0  0.27536177027E-02 -0.26255087848E-01 -0.23287527221E-01  0.10087274295E+01  0.10081129927E+01 0.  0.
     999903    2    3    3    0    0 -0.99158236164E-01  0.59000641705E-01 -0.19437354800E-01  0.11874462670E+00  0.20224838405E-01 0.  0.
         14    1    1    2    0    0 -0.27536177027E-02  0.26255087848E-01  0.23287527221E-01  0.35202570537E-01  0.00000000000E+00 0.  1.
     999901    1    3    3    0    0  0.10191185387E+00 -0.85255729553E-01 -0.38501724212E-02  0.88998280276E+00  0.88000000000E+00 0. -1.
        -11    1    4    4    0    0 -0.72250328364E-01  0.44025485299E-01 -0.50717316083E-02  0.84760467714E-01  0.51100000000E-03 0.  1.
         11    1    4    4    0    0 -0.26907907800E-01  0.14975156406E-01 -0.14365623191E-01  0.33984158990E-01  0.51100000000E-03 0. -1.
</event>
<event>
 8    1  0.1086235E+005  0.1043930E+01  0.7957747E-01            NaN
         13   -1    0    0    0    0  0.00000000000E+00  0.00000000000E+00  0.74505805969E-08  0.10566000000E+00  0.10566000000E+00 0.  1.
     999900   -1    0    0    0    0 -0.00000000000E+00 -0.00000000000E+00 -0.74505805969E-08  0.93827000000E+00  0.93827000000E+00 0. -1.
     999902    2    1    2    0    0  0.49389547072E-02 -0.12410092332E-01  0.17807521987E-01  0.10216699123E+01  0.10214273827E+01 0.  0.
     999903    2    3    3    0    0  0.10894798695E+00  0.55083539458E-01  0.47293616486E-01  0.13248899770E+00  0.20317189044E-01 0.  0.
         14    1    1    2    0    0 -0.49389547072E-02  0.12410092332E-01 -0.17807521987E-01  0.22260087705E-01  0.00000000000E+00 0. -1.
     999901    1    3    3    0    0 -0.10400903224E+00 -0.67493631790E-01 -0.29486094499E-01  0.88918091460E+00  0.88000000000E+00 0. -1.
        -11    1    4    4    0    0  0.90030635030E-01  0.51751130548E-01  0.44856380688E-01  0.11311963033E+00  0.51100000000E-03 0. -1.
         11    1    4    4    0    0  0.18917351918E-01  0.33324089100E-02  0.24372357987E-02  0.19369367364E-01  0.51100000000E-03 0.  1.
</event>
<event>
 8    1  0.1086235E+005  0.1043930E+01  0.7957747E-01            NaN
         13   -1    0    0    0    0  0.00000000000E+00  0.00000000000E+00  0.74505805969E-08  0.10566000000E+00  0.10566000000E+00 0. -1.
     999900   -1    0    0    0    0 -0.00000000000E+00 -0.00000000000E+00 -0.74505805969E-08  0.93827000000E+00  0.93827000000E+00 0. -1.
     999902    2    1    2    0    0  0.13270513327E-01  0.79165594577E-02  0.18245722259E-01  0.10200200686E+01  0.10197397980E+01 0.  0.
     999903    2    3    3    0    0  0.57108088461E-01  0.64672754536E-01  0.99786898104E-01  0.13334540335E+00  0.19485189649E-01 0.  0.
         14    1    1    2    0    0 -0.13270513327E-01 -0.79165594577E-02 -0.18245722259E-01  0.23909931376E-01  0.00000000000E+00 0. -1.
     999901    1    3    3    0    0 -0.43837575134E-01 -0.56756195078E-01 -0.81541175845E-01  0.88667466527E+00  0.88000000000E+00 0.  1.
        -11    1    4    4    0    0  0.33026484496E-01  0.28073362231E-01  0.60969871133E-01  0.74809415531E-01  0.51100000000E-03 0.  1.
         11    1    4    4    0    0  0.24081603966E-01  0.36599392305E-01  0.38817026971E-01  0.58535987824E-01  0.51100000000E-03 0. -1.
</event>
<event>
 8    1  0.1086235E+005  0.1043930E+01  0.7957747E-01            NaN
         13   -1    0    0    0    0  0.00000000000E+00  0.00000000000E+00  0.74505805969E-08  0.10566000000E+00  0.10566000000E+00 0.  1.
     999900   -1    0    0    0    0 -0.00000000000E+00 -0.00000000000E+00 -0.74505805969E-08  0.93827000000E+00  0.93827000000E+00 0.  1.
     999902    2    1    2    0    0 -0.15241898267E-01 -0.13489624472E-01  0.12451877537E-01  0.10200692648E+01  0.10197901599E+01 0.  0.
     999903    2    3    3    0    0  0.50009107770E-01 -0.11878670962E+00  0.15448587013E-01  0.13138813513E+00  0.20322154613E-01 0.  0.
         14    1    1    2    0    0  0.15241898267E-01  0.13489624472E-01 -0.12451877537E-01  0.23860735223E-01  0.00000000000E+00 0. -1.
     999901    1    3    3    0    0 -0.65251006037E-01  0.10529708515E+00 -0.29967094752E-02  0.88868112965E+00  0.88000000000E+00 0.  1.
        -11    1    4    4    0    0  0.17469050801E-01 -0.47678602539E-01 -0.35737466729E-02  0.50906283131E-01  0.51100000000E-03 0. -1.
         11    1    4    4    0    0  0.32540056970E-01 -0.71108107084E-01  0.19022333686E-01  0.80481851995E-01  0.51100000000E-03 0.  1.
</event>
<event>
 8    1  0.1086235E+005  0.1043930E+01  0.7957747E-01            NaN
         13   -1    0    0    0    0  0.00000000000E+00  0.00000000000E+00  0.74505805969E-08  0.10566000000E+00  0.10566000000E+00 0.  1.
     999900   -1    0    0    0    0 -0.00000000000E+00 -0.00000000000E+00 -0.74505805969E-08  0.93827000000E+00  0.93827000000E+00 0. -1.
     999902    2    1    2    0    0 -0.18086430724E-01  0.18740066001E-01 -0.15145344067E-01  0.10138020977E+01  0.10133543323E+01 0.  0.
     999903    2    3    3    0    0  0.12628465220E-01  0.45255371900E-01  0.11260111057E+00  0.12365288383E+00  0.20087278508E-01 0.  0.
         14    1    1    2    0    0  0.18086430724E-01 -0.18740066001E-01  0.15145344067E-01  0.30127902300E-01  0.00000000000E+00 0.  1.
     999901    1    3    3    0    0 -0.30714895944E-01 -0.26515305899E-01 -0.12774645464E+00  0.89014921387E+00  0.88000000000E+00 0. -1.
        -11    1    4    4    0    0 -0.11059303333E-02  0.30644843276E-01  0.60639554700E-01  0.67954000740E-01  0.51100000000E-03 0. -1.
         11    1    4    4    0    0  0.13734395553E-01  0.14610528624E-01  0.51961555873E-01  0.55698883091E-01  0.51100000000E-03 0.  1.
</event>
<event>
 8    1  0.1086235E+005  0.1043930E+01  0.7957747E-01            NaN
         13   -1    0    0    0    0  0.00000000000E+00  0.00000000000E+00  0.74505805969E-08  0.10566000000E+00  0.10566000000E+00 0.  1.
     999900   -1    0    0    0    0 -0.00000000000E+00 -0.00000000000E+00 -0.74505805969E-08  0.93827000000E+00  0.93827000000E+00 0. -1.
     999902    2    1    2    0    0  0.14152804855E-01  0.18228072148E-01  0.91370670956E-02  0.10191096355E+01  0.10188073413E+01 0.  0.
     999903    2    3    3    0    0  0.88845660652E-01  0.33384306617E-01  0.87551423881E-01  0.13234160184E+00  0.28999731178E-01 0.  0.
         14    1    1    2    0    0 -0.14152804855E-01 -0.18228072148E-01 -0.91370670956E-02  0.24820364514E-01  0.00000000000E+00 0. -1.
     999901    1    3    3    0    0 -0.74692855796E-01 -0.15156234469E-01 -0.78414356786E-01  0.88676803365E+00  0.88000000000E+00 0. -1.
        -11    1    4    4    0    0  0.87420413234E-01  0.28223018256E-01  0.74675369349E-01  0.11838724305E+00  0.51100000000E-03 0.  1.
         11    1    4    4    0    0  0.14252474174E-02  0.51612883607E-02  0.12876054532E-01  0.13954358783E-01  0.51100000000E-03 0. -1.
</event>
<event>
 8    1  0.1086235E+005  0.1043930E+01  0.7957747E-01            NaN
         13   -1    0    0    0    0  0.00000000000E+00  0.00000000000E+00  0.74505805969E-08  0.10566000000E+00  0.10566000000E+00 0.  1.
     999900   -1    0    0    0    0 -0.00000000000E+00 -0.00000000000E+00 -0.74505805969E-08  0.93827000000E+00  0.93827000000E+00 0.  1.
     999902    2    1    2    0    0 -0.23609309142E-01  0.53166782805E-02 -0.13543491780E-03  0.10197290726E+01  0.10194418554E+01 0.  0.
     999903    2    3    3    0    0  0.10904694242E+00  0.40964088287E-01 -0.48494987483E-01  0.12776098724E+00  0.20045295430E-01 0.  0.
         14    1    1    2    0    0  0.23609309142E-01 -0.53166782805E-02  0.13543491780E-03  0.24200927435E-01  0.00000000000E+00 0.  1.
     999901    1    3    3    0    0 -0.13265625156E+00 -0.35647410006E-01  0.48359552565E-01  0.89196808533E+00  0.88000000000E+00 0.  1.
        -11    1    4    4    0    0  0.26202431247E-01  0.42038192420E-02 -0.41717712751E-02  0.26868276760E-01  0.51100000000E-03 0. -1.
         11    1    4    4    0    0  0.82844511172E-01  0.36760269045E-01 -0.44323216208E-01  0.10089271048E+00  0.51100000000E-03 0.  1.
</event>
<event>
 8    1  0.1086235E+005  0.1043930E+01  0.7957747E-01            NaN
         13   -1    0    0    0    0  0.00000000000E+00  0.00000000000E+00  0.74505805969E-08  0.10566000000E+00  0.10566000000E+00 0. -1.
     999900   -1    0    0    0    0 -0.00000000000E+00 -0.00000000000E+00 -0.74505805969E-08  0.93827000000E+00  0.93827000000E+00 0.  1.
     999902    2    1    2    0    0 -0.42036565958E-02  0.18073023042E-01  0.14635977392E-01  0.10202970416E+01  0.10200233018E+01 0.  0.
     999903    2    3    3    0    0 -0.28136452006E-01  0.12543974304E+00  0.29141969124E-01  0.13332984089E+00  0.20020065966E-01 0.  0.
         14    1    1    2    0    0  0.42036565958E-02 -0.18073023042E-01 -0.14635977392E-01  0.23632958445E-01  0.00000000000E+00 0. -1.
     999901    1    3    3    0    0  0.23932795410E-01 -0.10736672000E+00 -0.14505991732E-01  0.88696720067E+00  0.88000000000E+00 0.  1.
        -11    1    4    4    0    0 -0.13824910053E-01  0.29791048102E-01  0.12757260114E-01  0.35236962009E-01  0.51100000000E-03 0. -1.
         11    1    4    4    0    0 -0.14311541953E-01  0.95648694940E-01  0.16384709010E-01  0.98092878881E-01  0.51100000000E-03 0.  1.
</event>
<event>
 8    1  0.1086235E+005  0.1043930E+01  0.7957747E-01            NaN
         13   -1    0    0    0    0  0.00000000000E+00  0.00000000000E+00  0.74505805969E-08  0.10566000000E+00  0.10566000000E+00 0.  1.
     999900   -1    0    0    0    0 -0.00000000000E+00 -0.00000000000E+00 -0.74505805969E-08  0.93827000000E+00  0.93827000000E+00 0. -1.
     999902    2    1    2    0    0 -0.68308498566E-02 -0.88593513621E-02  0.20687209647E-01  0.10204117250E+01  0.10201406664E+01 0.  0.
     999903    2    3    3    0    0  0.33189459106E-01 -0.12565729535E+00  0.76922670888E-02  0.13169790526E+00  0.19846188698E-01 0.  0.
         14    1    1    2    0    0  0.68308498566E-02  0.88593513621E-02 -0.20687209647E-01  0.23518275007E-01  0.00000000000E+00 0. -1.
     999901    1    3    3    0    0 -0.40020308962E-01  0.11679794399E+00  0.12994942558E-01  0.88871381973E+00  0.88000000000E+00 0. -1.
        -11    1    4    4    0    0  0.25494137851E-01 -0.76979432766E-01  0.12998777045E-01  0.82128030899E-01  0.51100000000E-03 0.  1.
         11    1    4    4    0    0  0.76953212550E-02 -0.48677862589E-01 -0.53065099560E-02  0.49569874363E-01  0.51100000000E-03 0. -1.
</event>
<event>
 8    1  0.1086235E+005  0.1043930E+01  0.7957747E-01            NaN
         13   -1    0    0    0    0  0.00000000000E+00  0.00000000000E+00  0.74505805969E-08  0.10566000000E+00  0.10566000000E+00 0.  1.
     999900   -1    0    0    0    0 -0.00000000000E+00 -0.00000000000E+00 -0.74505805969E-08  0.93827000000E+00  0.93827000000E+00 0.  1.
     999902    2    1    2    0    0 -0.16817838583E-01 -0.78504948127E-02 -0.14790146181E-01  0.10201977774E+01  0.10199217062E+01 0.  0.
     999903    2    3    3    0    0  0.89640696090E-01 -0.46121110233E-01 -0.80229413868E-01  0.13054595939E+00  0.21044653933E-01 0.  0.
         14    1    1    2    0    0  0.16817838583E-01  0.78504948127E-02  0.14790146181E-01  0.23732222557E-01  0.00000000000E+00 0.  1.
     999901    1    3    3    0    0 -0.10645853467E+00  0.38270615420E-01  0.65439267686E-01  0.88965181805E+00  0.88000000000E+00 0. -1.
        -11    1    4    4    0    0  0.64113372986E-01 -0.22187972453E-01 -0.49655529664E-01  0.84075938678E-01  0.51100000000E-03 0. -1.
         11    1    4    4    0    0  0.25527323103E-01 -0.23933137779E-01 -0.30573884203E-01  0.46470020713E-01  0.51100000000E-03 0.  1.
</event>
<event>
 8    1  0.1086235E+005  0.1043930E+01  0.7957747E-01            NaN
         13   -1    0    0    0    0  0.00000000000E+00  0.00000000000E+00  0.74505805969E-08  0.10566000000E+00  0.10566000000E+00 0.  1.
     999900   -1    0    0    0    0 -0.00000000000E+00 -0.00000000000E+00 -0.74505805969E-08  0.93827000000E+00  0.93827000000E+00 0.  1.
     999902    2    1    2    0    0  0.15135343631E-02  0.15873338595E-01  0.16482713014E-01  0.10209967601E+01  0.10207391688E+01 0.  0.
     999903    2    3    3    0    0  0.21410605279E-01  0.20914747144E-01  0.12888425770E+00  0.13360991295E+00  0.18563843578E-01 0.  0.
         14    1    1    2    0    0 -0.15135343631E-02 -0.15873338595E-01 -0.16482713014E-01  0.22933239909E-01  0.00000000000E+00 0.  1.
     999901    1    3    3    0    0 -0.19897070916E-01 -0.50414085495E-02 -0.11240154469E+00  0.88738684714E+00  0.88000000000E+00 0.  1.
        -11    1    4    4    0    0  0.15333154022E-01  0.47575075162E-02  0.83915701150E-01  0.85439133367E-01  0.51100000000E-03 0.  1.
         11    1    4    4    0    0  0.60774512576E-02  0.16157239628E-01  0.44968556553E-01  0.48170779583E-01  0.51100000000E-03 0. -1.
</event>
<event>
 8    1  0.1086235E+005  0.1043930E+01  0.7957747E-01            NaN
         13   -1    0    0    0    0  0.00000000000E+00  0.00000000000E+00  0.74505805969E-08  0.10566000000E+00  0.10566000000E+00 0. -1.
     999900   -1    0    0    0    0 -0.00000000000E+00 -0.00000000000E+00 -0.74505805969E-08  0.93827000000E+00  0.93827000000E+00 0. -1.
     999902    2    1    2    0    0 -0.18996996556E-01  0.14122188418E-01  0.34360077812E-02  0.10200107978E+01  0.10197303072E+01 0.  0.
     999903    2    3    3    0    0  0.16522640764E-01  0.10905692539E+00 -0.70061586210E-01  0.13114852207E+00  0.11175792761E-01 0.  0.
         14    1    1    2    0    0  0.18996996556E-01 -0.14122188418E-01 -0.34360077812E-02  0.23919202188E-01  0.00000000000E+00 0.  1.
     999901    1    3    3    0    0 -0.35519637320E-01 -0.94934736975E-01  0.73497593991E-01  0.88886227574E+00  0.88000000000E+00 0.  1.
        -11    1    4    4    0    0 -0.15899522601E-02  0.11131642831E-01 -0.63301211252E-02  0.12914061126E-01  0.51100000000E-03 0. -1.
         11    1    4    4    0    0  0.18112593024E-01  0.97925282562E-01 -0.63731465085E-01  0.11823446094E+00  0.51100000000E-03 0.  1.
</event>
<event>
 8    1  0.1086235E+005  0.1043930E+01  0.7957747E-01            NaN
         13   -1    0    0    0    0  0.00000000000E+00  0.00000000000E+00  0.74505805969E-08  0.10566000000E+00  0.10566000000E+00 0.  1.
     999900   -1    0    0    0    0 -0.00000000000E+00 -0.00000000000E+00 -0.74505805969E-08  0.93827000000E+00  0.93827000000E+00 0. -1.
     999902    2    1    2    0    0  0.16633512225E-01 -0.15545294969E-01  0.66125221154E-02  0.10202222930E+01  0.10199467984E+01 0.  0.
     999903    2    3    3    0    0 -0.74081413494E-02  0.44126563956E-01 -0.11910889242E+00  0.12896217047E+00  0.21030429277E-01 0.  0.
         14    1    1    2    0    0 -0.16633512225E-01  0.15545294969E-01 -0.66125221154E-02  0.23707707046E-01  0.00000000000E+00 0.  1.
     999901    1    3    3    0    0  0.24041653575E-01 -0.59671858926E-01  0.12572141453E+00  0.89126012248E+00  0.88000000000E+00 0.  1.
        -11    1    4    4    0    0  0.45906642350E-02  0.17944382391E-02 -0.18486013068E-01  0.19138652169E-01  0.51100000000E-03 0. -1.
         11    1    4    4    0    0 -0.11998805584E-01  0.42332125717E-01 -0.10062287935E+00  0.10982351830E+00  0.51100000000E-03 0.  1.
</event>
<event>
 8    1  0.1086235E+005  0.1043930E+01  0.7957747E-01            NaN
         13   -1    0    0    0    0  0.00000000000E+00  0.00000000000E+00  0.74505805969E-08  0.10566000000E+00  0.10566000000E+00 0. -1.
     999900   -1    0    0    0    0 -0.00000000000E+00 -0.00000000000E+00 -0.74505805969E-08  0.93827000000E+00  0.93827000000E+00 0. -1.
     999902    2    1    2    0    0  0.13200646546E-01 -0.39227178962E-02  0.13363307756E-01  0.10247408682E+01  0.10245611862E+01 0.  0.
     999903    2    3    3    0    0  0.13247121093E+00  0.23495872364E-01  0.13359242254E-01  0.13627182168E+00  0.17054685119E-01 0.  0.
         14    1    1    2    0    0 -0.13200646546E-01  0.39227178962E-02 -0.13363307756E-01  0.19189131797E-01  0.00000000000E+00 0.  1.
     999901    1    3    3    0    0 -0.11927056439E+00 -0.27418590260E-01  0.40655024399E-05  0.88846904653E+00  0.88000000000E+00 0. -1.
        -11    1    4    4    0    0  0.40301277162E-01 -0.65551129000E-03  0.51090192914E-02  0.40632325002E-01  0.51100000000E-03 0. -1.
         11    1    4    4    0    0  0.92169933773E-01  0.24151383654E-01  0.82502229621E-02  0.95639496674E-01  0.51100000000E-03 0.  1.
</event>
<event>
 8    1  0.1086235E+005  0.1043930E+01  0.7957747E-01            NaN
         13   -1    0    0    0    0  0.00000000000E+00  0.00000000000E+00  0.74505805969E-08  0.10566000000E+00  0.10566000000E+00 0.  1.
     999900   -1    0    0    0    0 -0.00000000000E+00 -0.00000000000E+00 -0.74505805969E-08  0.93827000000E+00  0.93827000000E+00 0.  1.
     999902    2    1    2    0    0 -0.96883077689E-02 -0.15903807189E-01 -0.16326017226E-01  0.10191644346E+01  0.10188634901E+01 0.  0.
     999903    2    3    3    0    0  0.47443331221E-01  0.38227939170E-01  0.10970986419E+00  0.12670753731E+00  0.17501448483E-01 0.  0.
         14    1    1    2    0    0  0.96883077689E-02  0.15903807189E-01  0.16326017226E-01  0.24765565388E-01  0.00000000000E+00 0.  1.
     999901    1    3    3    0    0 -0.57131638990E-01 -0.54131746359E-01 -0.12603588142E+00  0.89245689730E+00  0.88000000000E+00 0.  1.
        -11    1    4    4    0    0  0.13434815619E-01  0.21493797223E-01  0.48044473911E-01  0.54323201159E-01  0.51100000000E-03 0.  1.
         11    1    4    4    0    0  0.34008515602E-01  0.16734141947E-01  0.61665390283E-01  0.72384336151E-01  0.51100000000E-03 0. -1.
</event>
<event>
 8    1  0.1086235E+005  0.1043930E+01  0.7957747E-01            NaN
         13   -1    0    0    0    0  0.00000000000E+00  0.00000000000E+00  0.74505805969E-08  0.10566000000E+00  0.10566000000E+00 0.  1.
     999900   -1    0    0    0    0 -0.00000000000E+00 -0.00000000000E+00 -0.74505805969E-08  0.93827000000E+00  0.93827000000E+00 0.  1.
     999902    2    1    2    0    0  0.17379627686E-01  0.63026917956E-02  0.14604681227E-01  0.10203700319E+01  0.10200980002E+01 0.  0.
     999903    2    3    3    0    0 -0.90104497343E-01  0.38546360960E-01 -0.80200991370E-01  0.12819257934E+00  0.19912207207E-01 0.  0.
         14    1    1    2    0    0 -0.17379627686E-01 -0.63026917956E-02 -0.14604681227E-01  0.23559968084E-01  0.00000000000E+00 0. -1.
     999901    1    3    3    0    0  0.10748412503E+00 -0.32243669164E-01  0.94805672597E-01  0.89217745258E+00  0.88000000000E+00 0. -1.
        -11    1    4    4    0    0 -0.83980788896E-01  0.30317684755E-01 -0.75359815178E-01  0.11683876830E+00  0.51100000000E-03 0. -1.
         11    1    4    4    0    0 -0.61237084471E-02  0.82286762047E-02 -0.48411761919E-02  0.11353811041E-01  0.51100000000E-03 0.  1.
</event>
<event>
 8    1  0.1086235E+005  0.1043930E+01  0.7957747E-01            NaN
         13   -1    0    0    0    0  0.00000000000E+00  0.00000000000E+00  0.74505805969E-08  0.10566000000E+00  0.10566000000E+00 0. -1.
     999900   -1    0    0    0    0 -0.00000000000E+00 -0.00000000000E+00 -0.74505805969E-08  0.93827000000E+00  0.93827000000E+00 0.  1.
     999902    2    1    2    0    0  0.60314073401E-02 -0.38049370028E-02  0.18819443728E-01  0.10238047203E+01  0.10236068965E+01 0.  0.
     999903    2    3    3    0    0  0.12240525185E+00  0.51824444265E-01  0.59180089536E-04  0.13420399683E+00  0.18490282824E-01 0.  0.
         14    1    1    2    0    0 -0.60314073401E-02  0.38049370028E-02 -0.18819443728E-01  0.20125279683E-01  0.00000000000E+00 0.  1.
     999901    1    3    3    0    0 -0.11637384451E+00 -0.55629381268E-01  0.18760263638E-01  0.88960072349E+00  0.88000000000E+00 0. -1.
        -11    1    4    4    0    0  0.11084509174E+00  0.49904744127E-01  0.45417131294E-02  0.12164705556E+00  0.51100000000E-03 0. -1.
         11    1    4    4    0    0  0.11560160110E-01  0.19197001379E-02 -0.44825330399E-02  0.12556941261E-01  0.51100000000E-03 0.  1.
</event>
<event>
 8    1  0.1086235E+005  0.1043930E+01  0.7957747E-01            NaN
         13   -1    0    0    0    0  0.00000000000E+00  0.00000000000E+00  0.74505805969E-08  0.10566000000E+00  0.10566000000E+00 0. -1.
     999900   -1    0    0    0    0 -0.00000000000E+00 -0.00000000000E+00 -0.74505805969E-08  0.93827000000E+00  0.93827000000E+00 0. -1.
     999902    2    1    2    0    0 -0.13754247341E-02  0.22825942988E-01 -0.60592405821E-02  0.10202735027E+01  0.10199992110E+01 0.  0.
     999903    2    3    3    0    0  0.21784806836E-01 -0.49166907000E-01  0.11524383211E+00  0.12873898169E+00  0.20015544319E-01 0.  0.
         14    1    1    2    0    0  0.13754247341E-02 -0.22825942988E-01  0.60592405821E-02  0.23656497266E-01  0.00000000000E+00 0. -1.
     999901    1    3    3    0    0 -0.23160231571E-01  0.71992849988E-01 -0.12130307269E+00  0.89153452105E+00  0.88000000000E+00 0. -1.
        -11    1    4    4    0    0  0.17379616396E-01 -0.15353684477E-01  0.50070276821E-01  0.55182247463E-01  0.51100000000E-03 0. -1.
         11    1    4    4    0    0  0.44051904404E-02 -0.33813222524E-01  0.65173555284E-01  0.73556734224E-01  0.51100000000E-03 0.  1.
</event>
<event>
 8    1  0.1086235E+005  0.1043930E+01  0.7957747E-01            NaN
         13   -1    0    0    0    0  0.00000000000E+00  0.00000000000E+00  0.74505805969E-08  0.10566000000E+00  0.10566000000E+00 0. -1.
     999900   -1    0    0    0    0 -0.00000000000E+00 -0.00000000000E+00 -0.74505805969E-08  0.93827000000E+00  0.93827000000E+00 0. -1.
     999902    2    1    2    0    0 -0.12345033206E-01  0.15989783376E-02 -0.19329950746E-01  0.10209386196E+01  0.10206797056E+01 0.  0.
     999903    2    3    3    0    0 -0.11410498351E+00  0.59731090134E-01 -0.20808714081E-01  0.13316803176E+00  0.26701530124E-01 0.  0.
         14    1    1    2    0    0  0.12345033206E-01 -0.15989783376E-02  0.19329950746E-01  0.22991380394E-01  0.00000000000E+00 0. -1.
     999901    1    3    3    0    0  0.10175995030E+00 -0.58132111797E-01  0.14787633352E-02  0.88777058785E+00  0.88000000000E+00 0.  1.
        -11    1    4    4    0    0 -0.89001909788E-01  0.56923356236E-01 -0.21834622090E-01  0.10788243728E+00  0.51100000000E-03 0. -1.
         11    1    4    4    0    0 -0.25103073719E-01  0.28077338983E-02  0.10259080092E-02  0.25285594477E-01  0.51100000000E-03 0.  1.
</event>
<event>
 8    1  0.1086235E+005  0.1043930E+01  0.7957747E-01            NaN
         13   -1    0    0    0    0  0.00000000000E+00  0.00000000000E+00  0.74505805969E-08  0.10566000000E+00  0.10566000000E+00 0.  1.
     999900   -1    0    0    0    0 -0.00000000000E+00 -0.00000000000E+00 -0.74505805969E-08  0.93827000000E+00  0.93827000000E+00 0.  1.
     999902    2    1    2    0    0 -0.18061062020E-01 -0.14277204221E-01 -0.49461558914E-02  0.10203820706E+01  0.10201103200E+01 0.  0.
     999903    2    3    3    0    0  0.23516911017E-01 -0.95459017771E-01  0.84560339893E-01  0.13115171377E+00  0.19617639110E-01 0.  0.
         14    1    1    2    0    0  0.18061062020E-01  0.14277204221E-01  0.49461558914E-02  0.23547929415E-01  0.00000000000E+00 0.  1.
     999901    1    3    3    0    0 -0.41577973037E-01  0.81181813550E-01 -0.89506495785E-01  0.88923035681E+00  0.88000000000E+00 0.  1.
        -11    1    4    4    0    0  0.19946944072E-03 -0.52023774320E-02  0.11762933256E-01  0.12873703383E-01  0.51100000000E-03 0.  1.
         11    1    4    4    0    0  0.23317441577E-01 -0.90256640339E-01  0.72797406637E-01  0.11827801039E+00  0.51100000000E-03 0. -1.
</event>
<event>
 8    1  0.1086235E+005  0.1043930E+01  0.7957747E-01            NaN
         13   -1    0    0    0    0  0.00000000000E+00  0.00000000000E+00  0.74505805969E-08  0.10566000000E+00  0.10566000000E+00 0.  1.
     999900   -1    0    0    0    0 -0.00000000000E+00 -0.00000000000E+00 -0.74505805969E-08  0.93827000000E+00  0.93827000000E+00 0. -1.
     999902    2    1    2    0    0 -0.67379906046E-02 -0.18002216044E-01  0.14420998266E-01  0.10198999045E+01  0.10196167759E+01 0.  0.
     999903    2    3    3    0    0  0.10110172395E+00 -0.76054952036E-01  0.29558171187E-01  0.13128938338E+00  0.18902444030E-01 0.  0.
         14    1    1    2    0    0  0.67379906046E-02  0.18002216044E-01 -0.14420998266E-01  0.24030095524E-01  0.00000000000E+00 0. -1.
     999901    1    3    3    0    0 -0.10783971456E+00  0.58052735992E-01 -0.15137172921E-01  0.88861052109E+00  0.88000000000E+00 0.  1.
        -11    1    4    4    0    0  0.28069474425E-01 -0.12079150905E-01  0.10710581304E-01  0.32384856862E-01  0.51100000000E-03 0.  1.
         11    1    4    4    0    0  0.73032249526E-01 -0.63975801131E-01  0.18847589883E-01  0.98904526522E-01  0.51100000000E-03 0. -1.
</event>
<event>
 8    1  0.1086235E+005  0.1043930E+01  0.7957747E-01            NaN
         13   -1    0    0    0    0  0.00000000000E+00  0.00000000000E+00  0.74505805969E-08  0.10566000000E+00  0.10566000000E+00 0.  1.
     999900   -1    0    0    0    0 -0.00000000000E+00 -0.00000000000E+00 -0.74505805969E-08  0.93827000000E+00  0.93827000000E+00 0.  1.
     999902    2    1    2    0    0  0.33508961632E-02 -0.23926534652E-02  0.23553588836E-01  0.10200192317E+01  0.10197389412E+01 0.  0.
     999903    2    3    3    0    0  0.80355545927E-01  0.14304439355E-01  0.10327948126E+00  0.13290890767E+00  0.18343820311E-01 0.  0.
         14    1    1    2    0    0 -0.33508961632E-02  0.23926534652E-02 -0.23553588836E-01  0.23910768343E-01  0.00000000000E+00 0. -1.
     999901    1    3    3    0    0 -0.77004649763E-01 -0.16697092820E-01 -0.79725892423E-01  0.88711032398E+00  0.88000000000E+00 0.  1.
        -11    1    4    4    0    0  0.53842101748E-01  0.12626709817E-02  0.61751534245E-01  0.81939485972E-01  0.51100000000E-03 0. -1.
         11    1    4    4    0    0  0.26513444178E-01  0.13041768374E-01  0.41527947014E-01  0.50969421703E-01  0.51100000000E-03 0.  1.
</event>
<event>
 8    1  0.1086235E+005  0.1043930E+01  0.7957747E-01            NaN
         13   -1    0    0    0    0  0.00000000000E+00  0.00000000000E+00  0.74505805969E-08  0.10566000000E+00  0.10566000000E+00 0. -1.
     999900   -1    0    0    0    0 -0.00000000000E+00 -0.00000000000E+00 -0.74505805969E-08  0.93827000000E+00  0.93827000000E+00 0.  1.
     999902    2    1    2    0    0  0.12113426491E-01 -0.24334050446E-01  0.36063914909E-02  0.10165094389E+01  0.10161395338E+01 0.  0.
     999903    2    3    3    0    0  0.26000783879E-01  0.16442175924E-01 -0.12143126183E+00  0.12662743879E+00  0.18508673513E-01 0.  0.
         14    1    1    2    0    0 -0.12113426491E-01  0.24334050446E-01 -0.36063914909E-02  0.27420561119E-01  0.00000000000E+00 0. -1.
     999901    1    3    3    0    0 -0.13887357388E-01 -0.40776226370E-01  0.12503765332E+00  0.88988200009E+00  0.88000000000E+00 0. -1.
        -11    1    4    4    0    0  0.86027978433E-02  0.11323982566E-01 -0.27538057624E-01  0.30997523298E-01  0.51100000000E-03 0. -1.
         11    1    4    4    0    0  0.17397986036E-01  0.51181933578E-02 -0.93893204202E-01  0.95629915496E-01  0.51100000000E-03 0.  1.
</event>
<event>
 8    1  0.1086235E+005  0.1043930E+01  0.7957747E-01            NaN
         13   -1    0    0    0    0  0.00000000000E+00  0.00000000000E+00  0.74505805969E-08  0.10566000000E+00  0.10566000000E+00 0.  1.
     999900   -1    0    0    0    0 -0.00000000000E+00 -0.00000000000E+00 -0.74505805969E-08  0.93827000000E+00  0.93827000000E+00 0. -1.
     999902    2    1    2    0    0  0.87356644805E-04 -0.65481475350E-02  0.24196937635E-01  0.10188625379E+01  0.10185541190E+01 0.  0.
     999903    2    3    3    0    0  0.12661640822E+00  0.15346619961E-01  0.52584531389E-02  0.12934151622E+00  0.20840895248E-01 0.  0.
         14    1    1    2    0    0 -0.87356644805E-04  0.65481475350E-02 -0.24196937635E-01  0.25067462142E-01  0.00000000000E+00 0. -1.
     999901    1    3    3    0    0 -0.12652905157E+00 -0.21894767496E-01  0.18938484496E-01  0.88952102164E+00  0.88000000000E+00 0. -1.
        -11    1    4    4    0    0  0.28906048114E-01  0.11734529007E-01 -0.22019400587E-02  0.31278881847E-01  0.51100000000E-03 0. -1.
         11    1    4    4    0    0  0.97710360105E-01  0.36120909539E-02  0.74603931976E-02  0.98062634375E-01  0.51100000000E-03 0.  1.
</event>
<event>
 8    1  0.1086235E+005  0.1043930E+01  0.7957747E-01            NaN
         13   -1    0    0    0    0  0.00000000000E+00  0.00000000000E+00  0.74505805969E-08  0.10566000000E+00  0.10566000000E+00 0. -1.
     999900   -1    0    0    0    0 -0.00000000000E+00 -0.00000000000E+00 -0.74505805969E-08  0.93827000000E+00  0.93827000000E+00 0. -1.
     999902    2    1    2    0    0  0.83968667219E-02  0.15879693300E-01  0.15937651642E-01  0.10199158215E+01  0.10196330723E+01 0.  0.
     999903    2    3    3    0    0  0.60422719320E-01 -0.83600417359E-01  0.77414568116E-01  0.13065635821E+00  0.20931645707E-01 0.  0.
         14    1    1    2    0    0 -0.83968667219E-02 -0.15879693300E-01 -0.15937651642E-01  0.24014178518E-01  0.00000000000E+00 0.  1.
     999901    1    3    3    0    0 -0.52025852598E-01  0.99480110659E-01 -0.61476916474E-01  0.88925946327E+00  0.88000000000E+00 0. -1.
        -11    1    4    4    0    0  0.54171384092E-01 -0.60068809426E-01  0.60257873404E-01  0.10086661067E+00  0.51100000000E-03 0. -1.
         11    1    4    4    0    0  0.62513352279E-02 -0.23531607933E-01  0.17156694712E-01  0.29789747540E-01  0.51100000000E-03 0.  1.
</event>
<event>
 8    1  0.1086235E+005  0.1043930E+01  0.7957747E-01            NaN
         13   -1    0    0    0    0  0.00000000000E+00  0.00000000000E+00  0.74505805969E-08  0.10566000000E+00  0.10566000000E+00 0.  1.
     999900   -1    0    0    0    0 -0.00000000000E+00 -0.00000000000E+00 -0.74505805969E-08  0.93827000000E+00  0.93827000000E+00 0.  1.
     999902    2    1    2    0    0  0.15436588825E-01 -0.82282158408E-02  0.15749906156E-01  0.10203917045E+01  0.10201201788E+01 0.  0.
     999903    2    3    3    0    0  0.40983301646E-01 -0.11453208654E+00  0.50001211023E-01  0.13296491917E+00  0.19552973312E-01 0.  0.
         14    1    1    2    0    0 -0.15436588825E-01  0.82282158408E-02 -0.15749906156E-01  0.23538295486E-01  0.00000000000E+00 0. -1.
     999901    1    3    3    0    0 -0.25546712820E-01  0.10630387070E+00 -0.34251304867E-01  0.88742678534E+00  0.88000000000E+00 0.  1.
        -11    1    4    4    0    0  0.16226481580E-01 -0.25429725144E-01  0.69707270853E-02  0.30964847528E-01  0.51100000000E-03 0. -1.
         11    1    4    4    0    0  0.24756820065E-01 -0.89102361395E-01  0.43030483937E-01  0.10200007164E+00  0.51100000000E-03 0.  1.
</event>
<event>
 8    1  0.1086235E+005  0.1043930E+01  0.7957747E-01            NaN
         13   -1    0    0    0    0  0.00000000000E+00  0.00000000000E+00  0.74505805969E-08  0.10566000000E+00  0.10566000000E+00 0. -1.
     999900   -1    0    0    0    0 -0.00000000000E+00 -0.00000000000E+00 -0.74505805969E-08  0.93827000000E+00  0.93827000000E+00 0.  1.
     999902    2    1    2    0    0 -0.98358969088E-02  0.13164467556E-02  0.21623531652E-01  0.10201380892E+01  0.10198606110E+01 0.  0.
     999903    2    3    3    0    0 -0.27522150046E-01 -0.80742143685E-01 -0.93808746665E-01  0.12863877526E+00  0.21704631757E-01 0.  0.
         14    1    1    2    0    0  0.98358969088E-02 -0.13164467556E-02 -0.21623531652E-01  0.23791910834E-01  0.00000000000E+00 0. -1.
     999901    1    3    3    0    0  0.17686253137E-01  0.82058590440E-01  0.11543227832E+00  0.89149931390E+00  0.88000000000E+00 0. -1.
        -11    1    4    4    0    0 -0.20206991346E-01 -0.35650909618E-01 -0.33208758713E-01  0.52748389853E-01  0.51100000000E-03 0.  1.
         11    1    4    4    0    0 -0.73151586995E-02 -0.45091234066E-01 -0.60599987953E-01  0.75890385408E-01  0.51100000000E-03 0. -1.
</event>
<event>
 8    1  0.1086235E+005  0.1043930E+01  0.7957747E-01            NaN
         13   -1    0    0    0    0  0.00000000000E+00  0.00000000000E+00  0.74505805969E-08  0.10566000000E+00  0.10566000000E+00 0. -1.
     999900   -1    0    0    0    0 -0.00000000000E+00 -0.00000000000E+00 -0.74505805969E-08  0.93827000000E+00  0.93827000000E+00 0.  1.
     999902    2    1    2    0    0 -0.65678903479E-02  0.17043462720E-01 -0.93627883976E-02  0.10234049272E+01  0.10231990845E+01 0.  0.
     999903    2    3    3    0    0  0.56871082837E-01  0.84764027713E-01 -0.86123626374E-01  0.13520292067E+00  0.21054459849E-01 0.  0.
         14    1    1    2    0    0  0.65678903479E-02 -0.17043462720E-01  0.93627883976E-02  0.20525072757E-01  0.00000000000E+00 0. -1.
     999901    1    3    3    0    0 -0.63438973185E-01 -0.67720564993E-01  0.76760837976E-01  0.88820200658E+00  0.88000000000E+00 0. -1.
        -11    1    4    4    0    0  0.77474149432E-02  0.30859005721E-02 -0.34846970849E-02  0.90525938502E-02  0.51100000000E-03 0.  1.
         11    1    4    4    0    0  0.49123667894E-01  0.81678127141E-01 -0.82638929289E-01  0.12615032682E+00  0.51100000000E-03 0. -1.
</event>
<event>
 8    1  0.1086235E+005  0.1043930E+01  0.7957747E-01            NaN
         13   -1    0    0    0    0  0.00000000000E+00  0.00000000000E+00  0.74505805969E-08  0.10566000000E+00  0.10566000000E+00 0. -1.
     999900   -1    0    0    0    0 -0.00000000000E+00 -0.00000000000E+00 -0.74505805969E-08  0.93827000000E+00  0.93827000000E+00 0.  1.
     999902    2    1    2    0    0  0.22322739566E-02 -0.15080467868E-01  0.17350812744E-01  0.10208333712E+01  0.10205720541E+01 0.  0.
     999903    2    3    3    0    0  0.67075552173E-01 -0.60417310478E-02 -0.10872532484E+00  0.12944033672E+00  0.19949242933E-01 0.  0.
         14    1    1    2    0    0 -0.22322739566E-02  0.15080467868E-01 -0.17350812744E-01  0.23096628780E-01  0.00000000000E+00 0.  1.
     999901    1    3    3    0    0 -0.64843278217E-01 -0.90387368198E-02  0.12607613759E+00  0.89139303450E+00  0.88000000000E+00 0. -1.
        -11    1    4    4    0    0  0.26796761386E-01  0.25490713023E-02 -0.28171878654E-01  0.38967679597E-01  0.51100000000E-03 0. -1.
         11    1    4    4    0    0  0.40278790788E-01 -0.85908023501E-02 -0.80553446189E-01  0.90472657119E-01  0.51100000000E-03 0.  1.
</event>
<event>
 8    1  0.1086235E+005  0.1043930E+01  0.7957747E-01            NaN
         13   -1    0    0    0    0  0.00000000000E+00  0.00000000000E+00  0.74505805969E-08  0.10566000000E+00  0.10566000000E+00 0. -1.
     999900   -1    0    0    0    0 -0.00000000000E+00 -0.00000000000E+00 -0.74505805969E-08  0.93827000000E+00  0.93827000000E+00 0.  1.
     999902    2    1    2    0    0 -0.98160161440E-02 -0.51041531983E-02 -0.22115094189E-01  0.10192017986E+01  0.10189017727E+01 0.  0.
     999903    2    3    3    0    0  0.92447409646E-01  0.76703262018E-01 -0.42901823373E-01  0.12926789683E+00  0.20969233340E-01 0.  0.
         14    1    1    2    0    0  0.98160161440E-02  0.51041531983E-02  0.22115094189E-01  0.24728201386E-01  0.00000000000E+00 0. -1.
     999901    1    3    3    0    0 -0.10226342579E+00 -0.81807415216E-01  0.20786729184E-01  0.88993390179E+00  0.88000000000E+00 0. -1.
        -11    1    4    4    0    0  0.33216305687E-01  0.38170366637E-01 -0.11241116394E-01  0.51835544479E-01  0.51100000000E-03 0.  1.
         11    1    4    4    0    0  0.59231103959E-01  0.38532895381E-01 -0.31660706980E-01  0.77432352348E-01  0.51100000000E-03 0. -1.
</event>
<event>
 8    1  0.1086235E+005  0.1043930E+01  0.7957747E-01            NaN
         13   -1    0    0    0    0  0.00000000000E+00  0.00000000000E+00  0.74505805969E-08  0.10566000000E+00  0.10566000000E+00 0. -1.
     999900   -1    0    0    0    0 -0.00000000000E+00 -0.00000000000E+00 -0.74505805969E-08  0.93827000000E+00  0.93827000000E+00 0. -1.
     999902    2    1    2    0    0  0.19385779342E-01 -0.17508883168E-01 -0.59880157545E-02  0.10171302656E+01  0.10167771395E+01 0.  0.
     999903    2    3    3    0    0  0.67313420562E-01 -0.40490531030E-01  0.10047416615E+00  0.12912158823E+00  0.20167964511E-01 0.  0.
         14    1    1    2    0    0 -0.19385779342E-01  0.17508883168E-01  0.59880157545E-02  0.26799734386E-01  0.00000000000E+00 0. -1.
     999901    1    3    3    0    0 -0.47927641220E-01  0.22981647863E-01 -0.10646218191E+00  0.88800867738E+00  0.88000000000E+00 0. -1.
        -11    1    4    4    0    0  0.15393952487E-01 -0.98890629366E-02  0.11366337458E-01  0.21545813680E-01  0.51100000000E-03 0.  1.
         11    1    4    4    0    0  0.51919468075E-01 -0.30601468094E-01  0.89107828694E-01  0.10757577455E+00  0.51100000000E-03 0. -1.
</event>
<event>
 8    1  0.1086235E+005  0.1043930E+01  0.7957747E-01            NaN
         13   -1    0    0    0    0  0.00000000000E+00  0.00000000000E+00  0.74505805969E-08  0.10566000000E+00  0.10566000000E+00 0.  1.
     999900   -1    0    0    0    0 -0.00000000000E+00 -0.00000000000E+00 -0.74505805969E-08  0.93827000000E+00  0.93827000000E+00 0.  1.
     999902    2    1    2    0    0  0.15744161955E-01  0.13963728155E-01 -0.10853707536E-01  0.10202515856E+01  0.10199767795E+01 0.  0.
     999903    2    3    3    0    0 -0.84510402618E-03 -0.10455607061E+00  0.71663685744E-01  0.12832599084E+00  0.19979738976E-01 0.  0.
         14    1    1    2    0    0 -0.15744161955E-01 -0.13963728155E-01  0.10853707536E-01  0.23678414367E-01  0.00000000000E+00 0.  1.
     999901    1    3    3    0    0  0.16589265981E-01  0.11851979877E+00 -0.82517393280E-01  0.89192559479E+00  0.88000000000E+00 0.  1.
        -11    1    4    4    0    0  0.76235905709E-02 -0.29803186392E-01  0.26291341016E-01  0.40470295103E-01  0.51100000000E-03 0. -1.
         11    1    4    4    0    0 -0.84686945971E-02 -0.74752884218E-01  0.45372344728E-01  0.87855695741E-01  0.51100000000E-03 0.  1.
</event>
<event>
 8    1  0.1086235E+005  0.1043930E+01  0.7957747E-01            NaN
         13   -1    0    0    0    0  0.00000000000E+00  0.00000000000E+00  0.74505805969E-08  0.10566000000E+00  0.10566000000E+00 0. -1.
     999900   -1    0    0    0    0 -0.00000000000E+00 -0.00000000000E+00 -0.74505805969E-08  0.93827000000E+00  0.93827000000E+00 0.  1.
     999902    2    1    2    0    0 -0.17035310766E-01 -0.23769869655E-02 -0.15913926162E-01  0.10204970120E+01  0.10202279386E+01 0.  0.
     999903    2    3    3    0    0  0.22562069189E-01  0.37477759997E-01 -0.12311652192E+00  0.13221285146E+00  0.20222034037E-01 0.  0.
         14    1    1    2    0    0  0.17035310766E-01  0.23769869655E-02  0.15913926162E-01  0.23432987983E-01  0.00000000000E+00 0. -1.
     999901    1    3    3    0    0 -0.39597379955E-01 -0.39854746963E-01  0.10720259576E+00  0.88828416055E+00  0.88000000000E+00 0. -1.
        -11    1    4    4    0    0  0.11973311018E-01  0.29546286858E-01 -0.62451126735E-01  0.70119523639E-01  0.51100000000E-03 0. -1.
         11    1    4    4    0    0  0.10588758170E-01  0.79314731390E-02 -0.60665395189E-01  0.62093327823E-01  0.51100000000E-03 0.  1.
</event>
<event>
 8    1  0.1086235E+005  0.1043930E+01  0.7957747E-01            NaN
         13   -1    0    0    0    0  0.00000000000E+00  0.00000000000E+00  0.74505805969E-08  0.10566000000E+00  0.10566000000E+00 0. -1.
     999900   -1    0    0    0    0 -0.00000000000E+00 -0.00000000000E+00 -0.74505805969E-08  0.93827000000E+00  0.93827000000E+00 0. -1.
     999902    2    1    2    0    0  0.68759694444E-02  0.33688007661E-02  0.21615617622E-01  0.10209983036E+01  0.10207407473E+01 0.  0.
     999903    2    3    3    0    0 -0.31887943347E-01 -0.12313598519E+00 -0.19264687855E-01  0.13016874573E+00  0.19835886321E-01 0.  0.
         14    1    1    2    0    0 -0.68759694444E-02 -0.33688007661E-02 -0.21615617622E-01  0.22931696396E-01  0.00000000000E+00 0.  1.
     999901    1    3    3    0    0  0.38763912791E-01  0.12650478596E+00  0.40880305477E-01  0.89082955787E+00  0.88000000000E+00 0. -1.
        -11    1    4    4    0    0 -0.15266983837E-01 -0.32701602414E-01  0.59353993677E-03  0.36098324152E-01  0.51100000000E-03 0. -1.
         11    1    4    4    0    0 -0.16620959510E-01 -0.90434382780E-01 -0.19858227792E-01  0.94070421578E-01  0.51100000000E-03 0.  1.
</event>
<event>
 8    1  0.1365357E+005  0.1043930E+01  0.7957747E-01            NaN
         13   -1    0    0    0    0  0.00000000000E+00  0.00000000000E+00  0.74505805969E-08  0.10566000000E+00  0.10566000000E+00 0. -1.
     999900   -1    0    0    0    0 -0.00000000000E+00 -0.00000000000E+00 -0.74505805969E-08  0.93827000000E+00  0.93827000000E+00 0. -1.
     999902    2    1    2    0    0  0.48635047628E-02 -0.20455093845E-01  0.12022658150E-01  0.10197099907E+01  0.10194223150E+01 0.  0.
     999903    2    3    3    0    0  0.72431462412E-01 -0.35872760490E-01 -0.99595860072E-01  0.12995618936E+00  0.20883106011E-01 0.  0.
         14    1    1    2    0    0 -0.48635047628E-02  0.20455093845E-01 -0.12022658150E-01  0.24220009326E-01  0.00000000000E+00 0.  1.
     999901    1    3    3    0    0 -0.67567957649E-01  0.15417666646E-01  0.11161851822E+00  0.88975380132E+00  0.88000000000E+00 0.  1.
        -11    1    4    4    0    0  0.48972893041E-01 -0.13738461362E-01 -0.54978512199E-01  0.74899849787E-01  0.51100000000E-03 0.  1.
         11    1    4    4    0    0  0.23458569371E-01 -0.22134299128E-01 -0.44617347873E-01  0.55056339572E-01  0.51100000000E-03 0. -1.
</event>
<event>
 8    1  0.1086235E+005  0.1043930E+01  0.7957747E-01            NaN
         13   -1    0    0    0    0  0.00000000000E+00  0.00000000000E+00  0.74505805969E-08  0.10566000000E+00  0.10566000000E+00 0.  1.
     999900   -1    0    0    0    0 -0.00000000000E+00 -0.00000000000E+00 -0.74505805969E-08  0.93827000000E+00  0.93827000000E+00 0. -1.
     999902    2    1    2    0    0 -0.75113896758E-03  0.22528118381E-01  0.77794217132E-02  0.10200846707E+01  0.10198059304E+01 0.  0.
     999903    2    3    3    0    0 -0.68235625687E-01  0.53479364184E-01  0.98094473424E-01  0.13235219741E+00  0.19453417065E-01 0.  0.
         14    1    1    2    0    0  0.75113896758E-03 -0.22528118381E-01 -0.77794217132E-02  0.23845329306E-01  0.00000000000E+00 0.  1.
     999901    1    3    3    0    0  0.67484486719E-01 -0.30951245804E-01 -0.90315051711E-01  0.88773247329E+00  0.88000000000E+00 0. -1.
        -11    1    4    4    0    0 -0.52958663520E-01  0.34360648672E-01  0.60156476050E-01  0.87202849442E-01  0.51100000000E-03 0. -1.
         11    1    4    4    0    0 -0.15276962167E-01  0.19118715512E-01  0.37937997374E-01  0.45149347964E-01  0.51100000000E-03 0.  1.
</event>
<event>
 8    1  0.1086235E+005  0.1043930E+01  0.7957747E-01            NaN
         13   -1    0    0    0    0  0.00000000000E+00  0.00000000000E+00  0.74505805969E-08  0.10566000000E+00  0.10566000000E+00 0.  1.
     999900   -1    0    0    0    0 -0.00000000000E+00 -0.00000000000E+00 -0.74505805969E-08  0.93827000000E+00  0.93827000000E+00 0.  1.
     999902    2    1    2    0    0 -0.10614863398E-01  0.31036813158E-02 -0.20100625241E-01  0.10209878271E+01  0.10207300328E+01 0.  0.
     999903    2    3    3    0    0 -0.94742238609E-01 -0.84039107662E-01  0.28687711245E-01  0.13135218105E+00  0.19792607132E-01 0.  0.
         14    1    1    2    0    0  0.10614863398E-01 -0.31036813158E-02  0.20100625241E-01  0.22942172908E-01  0.00000000000E+00 0.  1.
     999901    1    3    3    0    0  0.84127375210E-01  0.87142788977E-01 -0.48788336486E-01  0.88963564604E+00  0.88000000000E+00 0.  1.
        -11    1    4    4    0    0 -0.20672197408E-01 -0.94077724819E-02  0.16270379889E-02  0.22776178396E-01  0.51100000000E-03 0.  1.
         11    1    4    4    0    0 -0.74070041201E-01 -0.74631335180E-01  0.27060673256E-01  0.10857600265E+00  0.51100000000E-03 0. -1.
</event>
<event>
 8    1  0.1086235E+005  0.1043930E+01  0.7957747E-01            NaN
         13   -1    0    0    0    0  0.00000000000E+00  0.00000000000E+00  0.74505805969E-08  0.10566000000E+00  0.10566000000E+00 0. -1.
     999900   -1    0    0    0    0 -0.00000000000E+00 -0.00000000000E+00 -0.74505805969E-08  0.93827000000E+00  0.93827000000E+00 0.  1.
     999902    2    1    2    0    0  0.60181374495E-02  0.19327101463E-01 -0.12018381282E-01  0.10203886254E+01  0.10201170279E+01 0.  0.
     999903    2    3    3    0    0  0.10754838950E+00 -0.55123961799E-02 -0.73778841301E-01  0.13205324552E+00  0.19942407922E-01 0.  0.
         14    1    1    2    0    0 -0.60181374495E-02 -0.19327101463E-01  0.12018381282E-01  0.23541374597E-01  0.00000000000E+00 0.  1.
     999901    1    3    3    0    0 -0.10153025205E+00  0.24839497643E-01  0.61760460019E-01  0.88833537988E+00  0.88000000000E+00 0. -1.
        -11    1    4    4    0    0  0.25346789289E-01 -0.45908156194E-02 -0.86668207315E-02  0.27182903044E-01  0.51100000000E-03 0. -1.
         11    1    4    4    0    0  0.82201600211E-01 -0.92158056048E-03 -0.65112020569E-01  0.10487034248E+00  0.51100000000E-03 0.  1.
</event>
<event>
 8    1  0.1086235E+005  0.1043930E+01  0.7957747E-01            NaN
         13   -1    0    0    0    0  0.00000000000E+00  0.00000000000E+00  0.74505805969E-08  0.10566000000E+00  0.10566000000E+00 0.  1.
     999900   -1    0    0    0    0 -0.00000000000E+00 -0.00000000000E+00 -0.74505805969E-08  0.93827000000E+00  0.93827000000E+00 0. -1.
     999902    2    1    2    0    0 -0.18830114127E-02 -0.35431265456E-02 -0.22549434934E-01  0.10210263651E+01  0.10207694459E+01 0.  0.
     999903    2    3    3    0    0  0.20576123525E-01  0.12293988593E+00 -0.37160879518E-01  0.13157942482E+00  0.19865086402E-01 0.  0.
         14    1    1    2    0    0  0.18830114127E-02  0.35431265456E-02  0.22549434934E-01  0.22903634941E-01  0.00000000000E+00 0.  1.
     999901    1    3    3    0    0 -0.22459134937E-01 -0.12648301248E+00  0.14611444584E-01  0.88944694024E+00  0.88000000000E+00 0.  1.
        -11    1    4    4    0    0  0.21001001973E-01  0.68904381261E-01 -0.18076532358E-01  0.74268957068E-01  0.51100000000E-03 0.  1.
         11    1    4    4    0    0 -0.42487844835E-03  0.54035504668E-01 -0.19084347160E-01  0.57310467752E-01  0.51100000000E-03 0. -1.
</event>
<event>
 8    1  0.1086235E+005  0.1043930E+01  0.7957747E-01            NaN
         13   -1    0    0    0    0  0.00000000000E+00  0.00000000000E+00  0.74505805969E-08  0.10566000000E+00  0.10566000000E+00 0. -1.
     999900   -1    0    0    0    0 -0.00000000000E+00 -0.00000000000E+00 -0.74505805969E-08  0.93827000000E+00  0.93827000000E+00 0. -1.
     999902    2    1    2    0    0  0.11634226155E-01 -0.16680722701E-01 -0.11129725501E-01  0.10207465465E+01  0.10204832383E+01 0.  0.
     999903    2    3    3    0    0 -0.80939264342E-02  0.26739345753E-01  0.12430332964E+00  0.12910950440E+00  0.20915116828E-01 0.  0.
         14    1    1    2    0    0 -0.11634226155E-01  0.16680722701E-01  0.11129725501E-01  0.23183453535E-01  0.00000000000E+00 0. -1.
     999901    1    3    3    0    0  0.19728152589E-01 -0.43420068454E-01 -0.13543305514E+00  0.89163704206E+00  0.88000000000E+00 0. -1.
        -11    1    4    4    0    0  0.44382192631E-02  0.19292558747E-02  0.41045280899E-01  0.41332747593E-01  0.51100000000E-03 0. -1.
         11    1    4    4    0    0 -0.12532145697E-01  0.24810089878E-01  0.83258048740E-01  0.87776756812E-01  0.51100000000E-03 0.  1.
</event>
<event>
 8    1  0.1086235E+005  0.1043930E+01  0.7957747E-01            NaN
         13   -1    0    0    0    0  0.00000000000E+00  0.00000000000E+00  0.74505805969E-08  0.10566000000E+00  0.10566000000E+00 0.  1.
     999900   -1    0    0    0    0 -0.00000000000E+00 -0.00000000000E+00 -0.74505805969E-08  0.93827000000E+00  0.93827000000E+00 0. -1.
     999902    2    1    2    0    0 -0.15557970507E-01 -0.71640419465E-02 -0.15541587561E-01  0.10208017729E+01  0.10205397321E+01 0.  0.
     999903    2    3    3    0    0 -0.89459898113E-01 -0.74324929735E-01 -0.61990877977E-01  0.13393672326E+00  0.23851799405E-01 0.  0.
         14    1    1    2    0    0  0.15557970507E-01  0.71640419465E-02  0.15541587561E-01  0.23128227066E-01  0.00000000000E+00 0.  1.
     999901    1    3    3    0    0  0.73901927605E-01  0.67160887788E-01  0.46449290416E-01  0.88686504967E+00  0.88000000000E+00 0.  1.
        -11    1    4    4    0    0 -0.29662342731E-01 -0.33463950923E-01 -0.13270991499E-01  0.46648375363E-01  0.51100000000E-03 0. -1.
         11    1    4    4    0    0 -0.59797555382E-01 -0.40860978812E-01 -0.48719886479E-01  0.87288347897E-01  0.51100000000E-03 0.  1.
</event>
<event>
 8    1  0.1086235E+005  0.1043930E+01  0.7957747E-01            NaN
         13   -1    0    0    0    0  0.00000000000E+00  0.00000000000E+00  0.74505805969E-08  0.10566000000E+00  0.10566000000E+00 0. -1.
     999900   -1    0    0    0    0 -0.00000000000E+00 -0.00000000000E+00 -0.74505805969E-08  0.93827000000E+00  0.93827000000E+00 0. -1.
     999902    2    1    2    0    0  0.54992890022E-03  0.11449914217E-01 -0.21664291367E-01  0.10194199107E+01  0.10191252179E+01 0.  0.
     999903    2    3    3    0    0  0.99685752835E-01  0.49281482997E-01 -0.67729394719E-01  0.13184955690E+00  0.20763450133E-01 0.  0.
         14    1    1    2    0    0 -0.54992890022E-03 -0.11449914217E-01  0.21664291367E-01  0.24510089306E-01  0.00000000000E+00 0. -1.
     999901    1    3    3    0    0 -0.99135823935E-01 -0.37831568780E-01  0.46065103352E-01  0.88757035379E+00  0.88000000000E+00 0.  1.
        -11    1    4    4    0    0  0.66163965484E-01  0.35876231074E-01 -0.56246489942E-01  0.93961178348E-01  0.51100000000E-03 0. -1.
         11    1    4    4    0    0  0.33521787351E-01  0.13405251923E-01 -0.11482904777E-01  0.37888378554E-01  0.51100000000E-03 0.  1.
</event>
<event>
 8    1  0.1086235E+005  0.1043930E+01  0.7957747E-01            NaN
         13   -1    0    0    0    0  0.00000000000E+00  0.00000000000E+00  0.74505805969E-08  0.10566000000E+00  0.10566000000E+00 0.  1.
     999900   -1    0    0    0    0 -0.00000000000E+00 -0.00000000000E+00 -0.74505805969E-08  0.93827000000E+00  0.93827000000E+00 0.  1.
     999902    2    1    2    0    0 -0.14849261105E-01 -0.18346800233E-01  0.30004690595E-02  0.10201369664E+01  0.10198594618E+01 0.  0.
     999903    2    3    3    0    0 -0.83525604481E-01  0.85391126356E-01  0.43814668463E-01  0.13044949517E+00  0.28795391200E-01 0.  0.
         14    1    1    2    0    0  0.14849261105E-01  0.18346800233E-01 -0.30004690595E-02  0.23793033617E-01  0.00000000000E+00 0. -1.
     999901    1    3    3    0    0  0.68676343376E-01 -0.10373792659E+00 -0.40814199403E-01  0.88968747121E+00  0.88000000000E+00 0.  1.
        -11    1    4    4    0    0 -0.69991611285E-01  0.80669816126E-01  0.45335905002E-01  0.11602607589E+00  0.51100000000E-03 0.  1.
         11    1    4    4    0    0 -0.13533993196E-01  0.47213102302E-02 -0.15212365388E-02  0.14423419280E-01  0.51100000000E-03 0. -1.
</event>
<event>
 8    1  0.1086235E+005  0.1043930E+01  0.7957747E-01            NaN
         13   -1    0    0    0    0  0.00000000000E+00  0.00000000000E+00  0.74505805969E-08  0.10566000000E+00  0.10566000000E+00 0.  1.
     999900   -1    0    0    0    0 -0.00000000000E+00 -0.00000000000E+00 -0.74505805969E-08  0.93827000000E+00  0.93827000000E+00 0. -1.
     999902    2    1    2    0    0 -0.10068916671E-01 -0.13562888235E-01  0.16444380106E-01  0.10203555932E+01  0.10200832240E+01 0.  0.
     999903    2    3    3    0    0  0.11671771817E+00 -0.46948123651E-01 -0.23643963573E-01  0.12973979497E+00  0.21124046375E-01 0.  0.
         14    1    1    2    0    0  0.10068916671E-01  0.13562888235E-01 -0.16444380106E-01  0.23574406827E-01  0.00000000000E+00 0. -1.
     999901    1    3    3    0    0 -0.12678663484E+00  0.33385235416E-01  0.40088343678E-01  0.89061579821E+00  0.88000000000E+00 0. -1.
        -11    1    4    4    0    0  0.40259969831E-01 -0.56366142227E-02 -0.69957127606E-02  0.41253335728E-01  0.51100000000E-03 0.  1.
         11    1    4    4    0    0  0.76457748338E-01 -0.41311509428E-01 -0.16648250812E-01  0.88486459237E-01  0.51100000000E-03 0. -1.
</event>
<event>
 8    1  0.1086235E+005  0.1043930E+01  0.7957747E-01            NaN
         13   -1    0    0    0    0  0.00000000000E+00  0.00000000000E+00  0.74505805969E-08  0.10566000000E+00  0.10566000000E+00 0. -1.
     999900   -1    0    0    0    0 -0.00000000000E+00 -0.00000000000E+00 -0.74505805969E-08  0.93827000000E+00  0.93827000000E+00 0. -1.
     999902    2    1    2    0    0  0.75273247325E-02 -0.21834564621E-01  0.67701508902E-02  0.10198625163E+01  0.10195784954E+01 0.  0.
     999903    2    3    3    0    0 -0.76214956706E-01  0.10057112325E+00 -0.12467786719E-02  0.12741633118E+00  0.17609558143E-01 0.  0.
         14    1    1    2    0    0 -0.75273247325E-02  0.21834564621E-01 -0.67701508902E-02  0.24067483725E-01  0.00000000000E+00 0. -1.
     999901    1    3    3    0    0  0.83742281438E-01 -0.12240568787E+00  0.80169295621E-02  0.89244618509E+00  0.88000000000E+00 0. -1.
        -11    1    4    4    0    0 -0.35926980601E-01  0.33380552796E-01  0.66087395363E-03  0.49048008273E-01  0.51100000000E-03 0.  1.
         11    1    4    4    0    0 -0.40287976104E-01  0.67190570453E-01 -0.19076526255E-02  0.78368322911E-01  0.51100000000E-03 0. -1.
</event>
<event>
 8    1  0.1086235E+005  0.1043930E+01  0.7957747E-01            NaN
         13   -1    0    0    0    0  0.00000000000E+00  0.00000000000E+00  0.74505805969E-08  0.10566000000E+00  0.10566000000E+00 0.  1.
     999900   -1    0    0    0    0 -0.00000000000E+00 -0.00000000000E+00 -0.74505805969E-08  0.93827000000E+00  0.93827000000E+00 0. -1.
     999902    2    1    2    0    0  0.21784328045E-01  0.19361994947E-02  0.79017279652E-02  0.10206761160E+01  0.10204111870E+01 0.  0.
     999903    2    3    3    0    0  0.47319130151E-01  0.99685736801E-01 -0.68581871319E-01  0.13159977555E+00  0.20944728500E-01 0.  0.
         14    1    1    2    0    0 -0.21784328045E-01 -0.19361994947E-02 -0.79017279652E-02  0.23253884013E-01  0.00000000000E+00 0.  1.
     999901    1    3    3    0    0 -0.25534802106E-01 -0.97749537307E-01  0.76483599284E-01  0.88907634044E+00  0.88000000000E+00 0.  1.
        -11    1    4    4    0    0  0.17363271375E-01  0.60528753979E-01 -0.40218989640E-01  0.74719753077E-01  0.51100000000E-03 0. -1.
         11    1    4    4    0    0  0.29955858776E-01  0.39156982822E-01 -0.28362881678E-01  0.56880022476E-01  0.51100000000E-03 0.  1.
</event>
<event>
 8    1  0.1086235E+005  0.1043930E+01  0.7957747E-01            NaN
         13   -1    0    0    0    0  0.00000000000E+00  0.00000000000E+00  0.74505805969E-08  0.10566000000E+00  0.10566000000E+00 0. -1.
     999900   -1    0    0    0    0 -0.00000000000E+00 -0.00000000000E+00 -0.74505805969E-08  0.93827000000E+00  0.93827000000E+00 0. -1.
     999902    2    1    2    0    0 -0.29854448288E-02  0.18233173044E-01  0.13781874534E-01  0.10208800207E+01  0.10206197701E+01 0.  0.
     999903    2    3    3    0    0  0.61748089497E-01 -0.47904995465E-01  0.10393638553E+00  0.13144619874E+00  0.19173309001E-01 0.  0.
         14    1    1    2    0    0  0.29854448288E-02 -0.18233173044E-01 -0.13781874534E-01  0.23049979300E-01  0.00000000000E+00 0.  1.
     999901    1    3    3    0    0 -0.64733534326E-01  0.66138168509E-01 -0.90154510996E-01  0.88943382196E+00  0.88000000000E+00 0. -1.
        -11    1    4    4    0    0  0.21666809209E-01 -0.11381214775E-01  0.45882681243E-01  0.52004463560E-01  0.51100000000E-03 0. -1.
         11    1    4    4    0    0  0.40081280288E-01 -0.36523780690E-01  0.58053704286E-01  0.79441735176E-01  0.51100000000E-03 0.  1.
</event>
<event>
 8    1  0.1086235E+005  0.1043930E+01  0.7957747E-01            NaN
         13   -1    0    0    0    0  0.00000000000E+00  0.00000000000E+00  0.74505805969E-08  0.10566000000E+00  0.10566000000E+00 0.  1.
     999900   -1    0    0    0    0 -0.00000000000E+00 -0.00000000000E+00 -0.74505805969E-08  0.93827000000E+00  0.93827000000E+00 0.  1.
     999902    2    1    2    0    0 -0.48019213311E-02 -0.21613503653E-01  0.84512024621E-02  0.10202313753E+01  0.10199560943E+01 0.  0.
     999903    2    3    3    0    0  0.11440898516E+00  0.52492139639E-01  0.19510414798E-01  0.12903824655E+00  0.20624552760E-01 0.  0.
         14    1    1    2    0    0  0.48019213311E-02  0.21613503653E-01 -0.84512024621E-02  0.23698624679E-01  0.00000000000E+00 0.  1.
     999901    1    3    3    0    0 -0.11921090649E+00 -0.74105643292E-01 -0.11059212336E-01  0.89119312877E+00  0.88000000000E+00 0.  1.
        -11    1    4    4    0    0  0.20025608742E-01  0.36256684425E-02 -0.24628927274E-02  0.20506034202E-01  0.51100000000E-03 0.  1.
         11    1    4    4    0    0  0.94383376422E-01  0.48866471197E-01  0.21973307525E-01  0.10853221235E+00  0.51100000000E-03 0. -1.
</event>
<event>
 8    1  0.1086235E+005  0.1043930E+01  0.7957747E-01            NaN
         13   -1    0    0    0    0  0.00000000000E+00  0.00000000000E+00  0.74505805969E-08  0.10566000000E+00  0.10566000000E+00 0. -1.
     999900   -1    0    0    0    0 -0.00000000000E+00 -0.00000000000E+00 -0.74505805969E-08  0.93827000000E+00  0.93827000000E+00 0.  1.
     999902    2    1    2    0    0  0.35244572864E-02 -0.19897810757E-01 -0.12346303022E-01  0.10202492933E+01  0.10199744333E+01 0.  0.
     999903    2    3    3    0    0  0.49222439322E-01  0.46173207423E-01  0.10740205340E+00  0.12851314741E+00  0.20630423309E-01 0.  0.
         14    1    1    2    0    0 -0.35244572864E-02  0.19897810757E-01  0.12346303022E-01  0.23680706712E-01  0.00000000000E+00 0.  1.
     999901    1    3    3    0    0 -0.45697982036E-01 -0.66071018180E-01 -0.11974835642E+00  0.89173614588E+00  0.88000000000E+00 0.  1.
        -11    1    4    4    0    0  0.32497808019E-02  0.13747317438E-01  0.25373300371E-01  0.29045056459E-01  0.51100000000E-03 0.  1.
         11    1    4    4    0    0  0.45972658520E-01  0.32425889985E-01  0.82028753027E-01  0.99468090948E-01  0.51100000000E-03 0. -1.
</event>
<event>
 8    1  0.1086235E+005  0.1043930E+01  0.7957747E-01            NaN
         13   -1    0    0    0    0  0.00000000000E+00  0.00000000000E+00  0.74505805969E-08  0.10566000000E+00  0.10566000000E+00 0. -1.
     999900   -1    0    0    0    0 -0.00000000000E+00 -0.00000000000E+00 -0.74505805969E-08  0.93827000000E+00  0.93827000000E+00 0. -1.
     999902    2    1    2    0    0  0.17210765661E-01 -0.10287983630E-01 -0.12354066496E-01  0.10203784391E+01  0.10201066037E+01 0.  0.
     999903    2    3    3    0    0 -0.10188682354E-01 -0.12838975174E+00  0.15984180402E-01  0.13161423324E+00  0.21887776687E-01 0.  0.
         14    1    1    2    0    0 -0.17210765661E-01  0.10287983630E-01  0.12354066496E-01  0.23551560899E-01  0.00000000000E+00 0. -1.
     999901    1    3    3    0    0  0.27399448015E-01  0.11810176811E+00 -0.28338246898E-01  0.88876420586E+00  0.88000000000E+00 0.  1.
        -11    1    4    4    0    0 -0.10060958991E-01 -0.60538609037E-01  0.17249889013E-01  0.63749242128E-01  0.51100000000E-03 0. -1.
         11    1    4    4    0    0 -0.12772336258E-03 -0.67851142703E-01 -0.12657086101E-02  0.67864991112E-01  0.51100000000E-03 0.  1.
</event>
<event>
 8    1  0.1086235E+005  0.1043930E+01  0.7957747E-01            NaN
         13   -1    0    0    0    0  0.00000000000E+00  0.00000000000E+00  0.74505805969E-08  0.10566000000E+00  0.10566000000E+00 0. -1.
     999900   -1    0    0    0    0 -0.00000000000E+00 -0.00000000000E+00 -0.74505805969E-08  0.93827000000E+00  0.93827000000E+00 0. -1.
     999902    2    1    2    0    0  0.78679984916E-02  0.11930578504E-01 -0.20416279779E-01  0.10190087524E+01  0.10187039652E+01 0.  0.
     999903    2    3    3    0    0 -0.94516366186E-01 -0.65283918252E-01 -0.55188928861E-01  0.12903472254E+00  0.20219008203E-01 0.  0.
         14    1    1    2    0    0 -0.78679984916E-02 -0.11930578504E-01  0.20416279779E-01  0.24921247635E-01  0.00000000000E+00 0. -1.
     999901    1    3    3    0    0  0.10238436468E+00  0.77214496756E-01  0.34772649082E-01  0.88997402983E+00  0.88000000000E+00 0.  1.
        -11    1    4    4    0    0 -0.31759366583E-01 -0.24613725896E-01 -0.29908179529E-01  0.50092446457E-01  0.51100000000E-03 0.  1.
         11    1    4    4    0    0 -0.62756999602E-01 -0.40670192356E-01 -0.25280749332E-01  0.78942276083E-01  0.51100000000E-03 0. -1.
</event>
<event>
 8    1  0.1086235E+005  0.1043930E+01  0.7957747E-01            NaN
         13   -1    0    0    0    0  0.00000000000E+00  0.00000000000E+00  0.74505805969E-08  0.10566000000E+00  0.10566000000E+00 0. -1.
     999900   -1    0    0    0    0 -0.00000000000E+00 -0.00000000000E+00 -0.74505805969E-08  0.93827000000E+00  0.93827000000E+00 0. -1.
     999902    2    1    2    0    0  0.95060758198E-02 -0.12443583322E-01  0.87935873852E-02  0.10259707288E+01  0.10258135313E+01 0.  0.
     999903    2    3    3    0    0 -0.12247328739E+00  0.15765635514E-01 -0.47533022786E-01  0.13390178563E+00  0.20543576883E-01 0.  0.
         14    1    1    2    0    0 -0.95060758198E-02  0.12443583322E-01 -0.87935873852E-02  0.17959271212E-01  0.00000000000E+00 0.  1.
     999901    1    3    3    0    0  0.13197936321E+00 -0.28209218836E-01  0.56326610171E-01  0.89206894316E+00  0.88000000000E+00 0. -1.
        -11    1    4    4    0    0 -0.26957841980E-01 -0.45491539783E-02 -0.74344266178E-02  0.28336405317E-01  0.51100000000E-03 0. -1.
         11    1    4    4    0    0 -0.95515445411E-01  0.20314789492E-01 -0.40098596168E-01  0.10556538031E+00  0.51100000000E-03 0.  1.
</event>
<event>
 8    1  0.1086235E+005  0.1043930E+01  0.7957747E-01            NaN
         13   -1    0    0    0    0  0.00000000000E+00  0.00000000000E+00  0.74505805969E-08  0.10566000000E+00  0.10566000000E+00 0.  1.
     999900   -1    0    0    0    0 -0.00000000000E+00 -0.00000000000E+00 -0.74505805969E-08  0.93827000000E+00  0.93827000000E+00 0. -1.
     999902    2    1    2    0    0  0.17489644666E-01  0.13969759287E-01  0.85220667495E-02  0.10199786437E+01  0.10196973895E+01 0.  0.
     999903    2    3    3    0    0  0.91563871112E-01  0.72837983304E-01 -0.58274570736E-01  0.13238963434E+00  0.21018453367E-01 0.  0.
         14    1    1    2    0    0 -0.17489644666E-01 -0.13969759287E-01 -0.85220667495E-02  0.23951356261E-01  0.00000000000E+00 0.  1.
     999901    1    3    3    0    0 -0.74074226446E-01 -0.58868224017E-01  0.66796637485E-01  0.88758900940E+00  0.88000000000E+00 0.  1.
        -11    1    4    4    0    0  0.65454380335E-01  0.39271340819E-01 -0.38334930134E-01  0.85418628555E-01  0.51100000000E-03 0.  1.
         11    1    4    4    0    0  0.26109490777E-01  0.33566642485E-01 -0.19939640602E-01  0.46971005787E-01  0.51100000000E-03 0. -1.
</event>
<event>
 8    1  0.1086235E+005  0.1043930E+01  0.7957747E-01            NaN
         13   -1    0    0    0    0  0.00000000000E+00  0.00000000000E+00  0.74505805969E-08  0.10566000000E+00  0.10566000000E+00 0.  1.
     999900   -1    0    0    0    0 -0.00000000000E+00 -0.00000000000E+00 -0.74505805969E-08  0.93827000000E+00  0.93827000000E+00 0. -1.
     999902    2    1    2    0    0  0.14390664756E-01 -0.18000633502E-01 -0.74191431590E-02  0.10197193056E+01  0.10194318538E+01 0.  0.
     999903    2    3    3    0    0 -0.85174216937E-01  0.22372782127E-02 -0.94414681162E-01  0.12961202982E+00  0.25009870286E-01 0.  0.
         14    1    1    2    0    0 -0.14390664756E-01  0.18000633502E-01  0.74191431590E-02  0.24210694410E-01  0.00000000000E+00 0. -1.
     999901    1    3    3    0    0  0.99564881693E-01 -0.20237911715E-01  0.86995538003E-01  0.89010727576E+00  0.88000000000E+00 0.  1.
        -11    1    4    4    0    0 -0.35829498586E-01  0.88862876760E-02 -0.54342020813E-01  0.65696540431E-01  0.51100000000E-03 0.  1.
         11    1    4    4    0    0 -0.49344718351E-01 -0.66490094633E-02 -0.40072660349E-01  0.63915489394E-01  0.51100000000E-03 0. -1.
</event>
<event>
 8    1  0.1086235E+005  0.1043930E+01  0.7957747E-01            NaN
         13   -1    0    0    0    0  0.00000000000E+00  0.00000000000E+00  0.74505805969E-08  0.10566000000E+00  0.10566000000E+00 0.  1.
     999900   -1    0    0    0    0 -0.00000000000E+00 -0.00000000000E+00 -0.74505805969E-08  0.93827000000E+00  0.93827000000E+00 0. -1.
     999902    2    1    2    0    0  0.23293714634E-01  0.40586617747E-02  0.27652670186E-02  0.10201241902E+01  0.10198463840E+01 0.  0.
     999903    2    3    3    0    0  0.33132611265E-01 -0.93832279704E-01  0.82832052971E-01  0.13102907130E+00  0.20129626959E-01 0.  0.
         14    1    1    2    0    0 -0.23293714634E-01 -0.40586617747E-02 -0.27652670186E-02  0.23805809764E-01  0.00000000000E+00 0.  1.
     999901    1    3    3    0    0 -0.98388966310E-02  0.97890941479E-01 -0.80066785952E-01  0.88909511894E+00  0.88000000000E+00 0. -1.
        -11    1    4    4    0    0  0.10431011003E-01 -0.47138348074E-01  0.50480617478E-01  0.69852585576E-01  0.51100000000E-03 0. -1.
         11    1    4    4    0    0  0.22701600262E-01 -0.46693931630E-01  0.32351435492E-01  0.61176485719E-01  0.51100000000E-03 0.  1.
</event>
<event>
 8    1  0.1086235E+005  0.1043930E+01  0.7957747E-01            NaN
         13   -1    0    0    0    0  0.00000000000E+00  0.00000000000E+00  0.74505805969E-08  0.10566000000E+00  0.10566000000E+00 0.  1.
     999900   -1    0    0    0    0 -0.00000000000E+00 -0.00000000000E+00 -0.74505805969E-08  0.93827000000E+00  0.93827000000E+00 0.  1.
     999902    2    1    2    0    0  0.33017172264E-02  0.15103021677E-01 -0.11805443540E-01  0.10244782366E+01  0.10242935547E+01 0.  0.
     999903    2    3    3    0    0 -0.86670240004E-01 -0.94205168623E-01  0.27176606177E-01  0.13231074466E+00  0.19524879813E-01 0.  0.
         14    1    1    2    0    0 -0.33017172264E-02 -0.15103021677E-01  0.11805443540E-01  0.19451763354E-01  0.00000000000E+00 0.  1.
     999901    1    3    3    0    0  0.89971957231E-01  0.10930819030E+00 -0.38982049716E-01  0.89216749198E+00  0.88000000000E+00 0.  1.
        -11    1    4    4    0    0 -0.81021784196E-01 -0.84105737970E-01  0.29599831862E-01  0.12047703450E+00  0.51100000000E-03 0. -1.
         11    1    4    4    0    0 -0.56484558084E-02 -0.10099430653E-01 -0.24232256855E-02  0.11833710164E-01  0.51100000000E-03 0.  1.
</event>
<event>
 8    1  0.1086235E+005  0.1043930E+01  0.7957747E-01            NaN
         13   -1    0    0    0    0  0.00000000000E+00  0.00000000000E+00  0.74505805969E-08  0.10566000000E+00  0.10566000000E+00 0.  1.
     999900   -1    0    0    0    0 -0.00000000000E+00 -0.00000000000E+00 -0.74505805969E-08  0.93827000000E+00  0.93827000000E+00 0. -1.
     999902    2    1    2    0    0  0.99063634694E-04 -0.22294974858E-01 -0.13861846069E-02  0.10215917542E+01  0.10213474996E+01 0.  0.
     999903    2    3    3    0    0  0.38889197441E-01  0.10902088978E+00  0.54681459795E-01  0.12923974320E+00  0.17746128957E-01 0.  0.
         14    1    1    2    0    0 -0.99063634694E-04  0.22294974858E-01  0.13861846069E-02  0.22338245797E-01  0.00000000000E+00 0.  1.
     999901    1    3    3    0    0 -0.38790133806E-01 -0.13131586463E+00 -0.56067644402E-01  0.89235201100E+00  0.88000000000E+00 0. -1.
        -11    1    4    4    0    0  0.22046455947E-01  0.83989430744E-01  0.38331502483E-01  0.94920155394E-01  0.51100000000E-03 0. -1.
         11    1    4    4    0    0  0.16842741494E-01  0.25031459032E-01  0.16349957313E-01  0.34319587809E-01  0.51100000000E-03 0.  1.
</event>
<event>
 8    1  0.1086235E+005  0.1043930E+01  0.7957747E-01            NaN
         13   -1    0    0    0    0  0.00000000000E+00  0.00000000000E+00  0.74505805969E-08  0.10566000000E+00  0.10566000000E+00 0.  1.
     999900   -1    0    0    0    0 -0.00000000000E+00 -0.00000000000E+00 -0.74505805969E-08  0.93827000000E+00  0.93827000000E+00 0. -1.
     999902    2    1    2    0    0  0.14103060690E-01 -0.16205938751E-01 -0.63177385163E-02  0.10215370861E+01  0.10212916213E+01 0.  0.
     999903    2    3    3    0    0 -0.10801431052E+00 -0.71823786034E-01  0.42398629481E-02  0.13130258880E+00  0.19915970216E-01 0.  0.
         14    1    1    2    0    0 -0.14103060690E-01  0.16205938751E-01  0.63177385163E-02  0.22392913869E-01  0.00000000000E+00 0.  1.
     999901    1    3    3    0    0  0.12211737121E+00  0.55617847284E-01 -0.10557601464E-01  0.89023449733E+00  0.88000000000E+00 0.  1.
        -11    1    4    4    0    0 -0.18694639863E-01 -0.51725162904E-02  0.42070113707E-02  0.19854585114E-01  0.51100000000E-03 0. -1.
         11    1    4    4    0    0 -0.89319670661E-01 -0.66651269744E-01  0.32851577385E-04  0.11144800369E+00  0.51100000000E-03 0.  1.
</event>
<event>
 8    1  0.1086235E+005  0.1043930E+01  0.7957747E-01            NaN
         13   -1    0    0    0    0  0.00000000000E+00  0.00000000000E+00  0.74505805969E-08  0.10566000000E+00  0.10566000000E+00 0. -1.
     999900   -1    0    0    0    0 -0.00000000000E+00 -0.00000000000E+00 -0.74505805969E-08  0.93827000000E+00  0.93827000000E+00 0.  1.
     999902    2    1    2    0    0  0.78323772172E-02 -0.12035638689E-01 -0.18356796375E-01  0.10206238913E+01  0.10203577572E+01 0.  0.
     999903    2    3    3    0    0  0.12438913630E+00  0.56095940618E-02  0.36000604262E-01  0.13110067103E+00  0.19677846959E-01 0.  0.
         14    1    1    2    0    0 -0.78323772172E-02  0.12035638689E-01  0.18356796375E-01  0.23306108742E-01  0.00000000000E+00 0. -1.
     999901    1    3    3    0    0 -0.11655675908E+00 -0.17645232751E-01 -0.54357400637E-01  0.88952322023E+00  0.88000000000E+00 0.  1.
        -11    1    4    4    0    0  0.79675227430E-01  0.11284504430E-01  0.17361904606E-01  0.82323622119E-01  0.51100000000E-03 0.  1.
         11    1    4    4    0    0  0.44713908872E-01 -0.56749103678E-02  0.18638699655E-01  0.48777048908E-01  0.51100000000E-03 0. -1.
</event>
<event>
 8    1  0.1086235E+005  0.1043930E+01  0.7957747E-01            NaN
         13   -1    0    0    0    0  0.00000000000E+00  0.00000000000E+00  0.74505805969E-08  0.10566000000E+00  0.10566000000E+00 0. -1.
     999900   -1    0    0    0    0 -0.00000000000E+00 -0.00000000000E+00 -0.74505805969E-08  0.93827000000E+00  0.93827000000E+00 0. -1.
     999902    2    1    2    0    0 -0.10051482341E-01 -0.17722484235E-02  0.20836629797E-01  0.10207278815E+01  0.10204641443E+01 0.  0.
     999903    2    3    3    0    0 -0.10085587101E+00  0.58077415478E-02  0.84871059155E-01  0.13370854609E+00  0.21661995183E-01 0.  0.
         14    1    1    2    0    0  0.10051482341E-01  0.17722484235E-02 -0.20836629797E-01  0.23202118503E-01  0.00000000000E+00 0.  1.
     999901    1    3    3    0    0  0.90804388669E-01 -0.75799899714E-02 -0.64034429358E-01  0.88701933541E+00  0.88000000000E+00 0.  1.
        -11    1    4    4    0    0 -0.51798150380E-01 -0.78097507735E-02  0.44288167795E-01  0.68598422122E-01  0.51100000000E-03 0. -1.
         11    1    4    4    0    0 -0.49057720631E-01  0.13617492321E-01  0.40582891360E-01  0.65110123965E-01  0.51100000000E-03 0.  1.
</event>
<event>
 8    1  0.1086235E+005  0.1043930E+01  0.7957747E-01            NaN
         13   -1    0    0    0    0  0.00000000000E+00  0.00000000000E+00  0.74505805969E-08  0.10566000000E+00  0.10566000000E+00 0. -1.
     999900   -1    0    0    0    0 -0.00000000000E+00 -0.00000000000E+00 -0.74505805969E-08  0.93827000000E+00  0.93827000000E+00 0. -1.
     999902    2    1    2    0    0  0.11619232207E-01 -0.13564540276E-01 -0.15337212566E-01  0.10203878378E+01  0.10201162219E+01 0.  0.
     999903    2    3    3    0    0  0.62700032323E-01 -0.89711461416E-01 -0.74085887566E-01  0.13367536553E+00  0.20023592314E-01 0.  0.
         14    1    1    2    0    0 -0.11619232207E-01  0.13564540276E-01  0.15337212566E-01  0.23542162162E-01  0.00000000000E+00 0. -1.
     999901    1    3    3    0    0 -0.51080800116E-01  0.76146921140E-01  0.58748675000E-01  0.88671247231E+00  0.88000000000E+00 0. -1.
        -11    1    4    4    0    0  0.33228881708E-01 -0.32248297643E-01 -0.25550602938E-01  0.52888616090E-01  0.51100000000E-03 0.  1.
         11    1    4    4    0    0  0.29471150615E-01 -0.57463163774E-01 -0.48535284628E-01  0.80786749436E-01  0.51100000000E-03 0. -1.
</event>
<event>
 8    1  0.1086235E+005  0.1043930E+01  0.7957747E-01            NaN
         13   -1    0    0    0    0  0.00000000000E+00  0.00000000000E+00  0.74505805969E-08  0.10566000000E+00  0.10566000000E+00 0. -1.
     999900   -1    0    0    0    0 -0.00000000000E+00 -0.00000000000E+00 -0.74505805969E-08  0.93827000000E+00  0.93827000000E+00 0.  1.
     999902    2    1    2    0    0 -0.13307245498E-01 -0.19157434128E-01 -0.23064077386E-02  0.10204905123E+01  0.10202212879E+01 0.  0.
     999903    2    3    3    0    0 -0.11059258558E+00 -0.40239193118E-03  0.69441545423E-01  0.13202894435E+00  0.19458468908E-01 0.  0.
         14    1    1    2    0    0  0.13307245498E-01  0.19157434128E-01  0.23064077386E-02  0.23439487661E-01  0.00000000000E+00 0.  1.
     999901    1    3    3    0    0  0.97285340082E-01 -0.18755042197E-01 -0.71747953161E-01  0.88846156798E+00  0.88000000000E+00 0. -1.
        -11    1    4    4    0    0 -0.86061909996E-01 -0.77112619106E-02  0.49541242883E-01  0.99602769941E-01  0.51100000000E-03 0.  1.
         11    1    4    4    0    0 -0.24530675584E-01  0.73088699794E-02  0.19900302539E-01  0.32426174414E-01  0.51100000000E-03 0. -1.
</event>
<event>
 8    1  0.1086235E+005  0.1043930E+01  0.7957747E-01            NaN
         13   -1    0    0    0    0  0.00000000000E+00  0.00000000000E+00  0.74505805969E-08  0.10566000000E+00  0.10566000000E+00 0.  1.
     999900   -1    0    0    0    0 -0.00000000000E+00 -0.00000000000E+00 -0.74505805969E-08  0.93827000000E+00  0.93827000000E+00 0. -1.
     999902    2    1    2    0    0 -0.12346317704E-01  0.20046352499E-01 -0.51012044321E-03  0.10203811565E+01  0.10201093845E+01 0.  0.
     999903    2    3    3    0    0  0.44248789672E-01 -0.16588308931E-01 -0.11876531948E+00  0.12991532517E+00  0.23230652642E-01 0.  0.
         14    1    1    2    0    0  0.12346317704E-01 -0.20046352499E-01  0.51012044321E-03  0.23548843543E-01  0.00000000000E+00 0. -1.
     999901    1    3    3    0    0 -0.56595107376E-01  0.36634661431E-01  0.11825519903E+00  0.89046583129E+00  0.88000000000E+00 0.  1.
        -11    1    4    4    0    0  0.36534047414E-01 -0.15681227672E-01 -0.69759033898E-01  0.80294591680E-01  0.51100000000E-03 0. -1.
         11    1    4    4    0    0  0.77147422582E-02 -0.90708125941E-03 -0.49006285578E-01  0.49620733486E-01  0.51100000000E-03 0.  1.
</event>
<event>
 8    1  0.1086235E+005  0.1043930E+01  0.7957747E-01            NaN
         13   -1    0    0    0    0  0.00000000000E+00  0.00000000000E+00  0.74505805969E-08  0.10566000000E+00  0.10566000000E+00 0. -1.
     999900   -1    0    0    0    0 -0.00000000000E+00 -0.00000000000E+00 -0.74505805969E-08  0.93827000000E+00  0.93827000000E+00 0. -1.
     999902    2    1    2    0    0 -0.12487060326E-01  0.13879000838E-01  0.12614738867E-01  0.10213981342E+01  0.10211495794E+01 0.  0.
     999903    2    3    3    0    0 -0.11393529700E+00  0.74726183483E-02  0.67173529255E-01  0.13386816396E+00  0.19269415189E-01 0.  0.
         14    1    1    2    0    0  0.12487060326E-01 -0.13879000838E-01 -0.12614738867E-01  0.22531865802E-01  0.00000000000E+00 0.  1.
     999901    1    3    3    0    0  0.10144823667E+00  0.64063824898E-02 -0.54558790389E-01  0.88752997024E+00  0.88000000000E+00 0. -1.
        -11    1    4    4    0    0 -0.83337926640E-01  0.28757864285E-02  0.39158146644E-01  0.92125467346E-01  0.51100000000E-03 0.  1.
         11    1    4    4    0    0 -0.30597370361E-01  0.45968319198E-02  0.28015382611E-01  0.41742696614E-01  0.51100000000E-03 0. -1.
</event>
<event>
 8    1  0.1086235E+005  0.1043930E+01  0.7957747E-01            NaN
         13   -1    0    0    0    0  0.00000000000E+00  0.00000000000E+00  0.74505805969E-08  0.10566000000E+00  0.10566000000E+00 0. -1.
     999900   -1    0    0    0    0 -0.00000000000E+00 -0.00000000000E+00 -0.74505805969E-08  0.93827000000E+00  0.93827000000E+00 0. -1.
     999902    2    1    2    0    0 -0.17383086265E-01 -0.16500996630E-01  0.20394329952E-02  0.10198756061E+01  0.10195918978E+01 0.  0.
     999903    2    3    3    0    0  0.81836728890E-01 -0.97482177288E-01 -0.18505885843E-01  0.13036752102E+00  0.21288439143E-01 0.  0.
         14    1    1    2    0    0  0.17383086265E-01  0.16500996630E-01 -0.20394329952E-02  0.24054393878E-01  0.00000000000E+00 0.  1.
     999901    1    3    3    0    0 -0.99219815155E-01  0.80981180658E-01  0.20545318838E-01  0.88950808510E+00  0.88000000000E+00 0.  1.
        -11    1    4    4    0    0  0.35659319921E-01 -0.52996917015E-01 -0.94915944602E-03  0.63886010479E-01  0.51100000000E-03 0. -1.
         11    1    4    4    0    0  0.46177408969E-01 -0.44485260273E-01 -0.17556726397E-01  0.66481510538E-01  0.51100000000E-03 0.  1.
</event>
<event>
 8    1  0.1086235E+005  0.1043930E+01  0.7957747E-01            NaN
         13   -1    0    0    0    0  0.00000000000E+00  0.00000000000E+00  0.74505805969E-08  0.10566000000E+00  0.10566000000E+00 0.  1.
     999900   -1    0    0    0    0 -0.00000000000E+00 -0.00000000000E+00 -0.74505805969E-08  0.93827000000E+00  0.93827000000E+00 0. -1.
     999902    2    1    2    0    0  0.21508014677E-01  0.68753900024E-02 -0.61097443504E-02  0.10205378077E+01  0.10202696812E+01 0.  0.
     999903    2    3    3    0    0 -0.43943184410E-01 -0.92845858925E-01  0.75711017443E-01  0.12872907039E+00  0.16960495995E-01 0.  0.
         14    1    1    2    0    0 -0.21508014677E-01 -0.68753900024E-02  0.61097443504E-02  0.23392192267E-01  0.00000000000E+00 0. -1.
     999901    1    3    3    0    0  0.65451199087E-01  0.99721248927E-01 -0.81820761793E-01  0.89180873735E+00  0.88000000000E+00 0.  1.
        -11    1    4    4    0    0 -0.99816101901E-02 -0.34772935598E-01  0.19748746602E-01  0.41219700453E-01  0.51100000000E-03 0. -1.
         11    1    4    4    0    0 -0.33961574220E-01 -0.58072923326E-01  0.55962270841E-01  0.87509369932E-01  0.51100000000E-03 0.  1.
</event>
<event>
 8    1  0.1086235E+005  0.1043930E+01  0.7957747E-01            NaN
         13   -1    0    0    0    0  0.00000000000E+00  0.00000000000E+00  0.74505805969E-08  0.10566000000E+00  0.10566000000E+00 0.  1.
     999900   -1    0    0    0    0 -0.00000000000E+00 -0.00000000000E+00 -0.74505805969E-08  0.93827000000E+00  0.93827000000E+00 0.  1.
     999902    2    1    2    0    0  0.12514539484E-01 -0.21031412023E-01  0.19038361627E-02  0.10193829313E+01  0.10190873378E+01 0.  0.
     999903    2    3    3    0    0  0.10916313193E+00 -0.61660270192E-01 -0.37273215179E-01  0.13229415564E+00  0.19846227638E-01 0.  0.
         14    1    1    2    0    0 -0.12514539484E-01  0.21031412023E-01 -0.19038361627E-02  0.24547068711E-01  0.00000000000E+00 0. -1.
     999901    1    3    3    0    0 -0.96648592451E-01  0.40628858170E-01  0.39177051341E-01  0.88708877565E+00  0.88000000000E+00 0. -1.
        -11    1    4    4    0    0  0.84691101597E-01 -0.50487168611E-01 -0.20876910605E-01  0.10078513482E+00  0.51100000000E-03 0.  1.
         11    1    4    4    0    0  0.24472030338E-01 -0.11173101581E-01 -0.16396304574E-01  0.31509020812E-01  0.51100000000E-03 0. -1.
</event>
<event>
 8    1  0.1086235E+005  0.1043930E+01  0.7957747E-01            NaN
         13   -1    0    0    0    0  0.00000000000E+00  0.00000000000E+00  0.74505805969E-08  0.10566000000E+00  0.10566000000E+00 0.  1.
     999900   -1    0    0    0    0 -0.00000000000E+00 -0.00000000000E+00 -0.74505805969E-08  0.93827000000E+00  0.93827000000E+00 0.  1.
     999902    2    1    2    0    0  0.74077125287E-02  0.23990009150E-01  0.26921452472E-02  0.10186784181E+01  0.10183653947E+01 0.  0.
     999903    2    3    3    0    0 -0.49482762493E-02  0.12118802601E+00  0.48357047089E-01  0.13206384104E+00  0.19784615793E-01 0.  0.
         14    1    1    2    0    0 -0.74077125287E-02 -0.23990009150E-01 -0.26921452472E-02  0.25251581930E-01  0.00000000000E+00 0.  1.
     999901    1    3    3    0    0  0.12355988778E-01 -0.97198016857E-01 -0.45664901842E-01  0.88661457703E+00  0.88000000000E+00 0. -1.
        -11    1    4    4    0    0  0.74685089566E-02  0.38712298943E-01  0.17388896140E-01  0.43093567333E-01  0.51100000000E-03 0. -1.
         11    1    4    4    0    0 -0.12416785206E-01  0.82475727064E-01  0.30968150949E-01  0.88970273709E-01  0.51100000000E-03 0.  1.
</event>
<event>
 8    1  0.1086235E+005  0.1043930E+01  0.7957747E-01            NaN
         13   -1    0    0    0    0  0.00000000000E+00  0.00000000000E+00  0.74505805969E-08  0.10566000000E+00  0.10566000000E+00 0. -1.
     999900   -1    0    0    0    0 -0.00000000000E+00 -0.00000000000E+00 -0.74505805969E-08  0.93827000000E+00  0.93827000000E+00 0. -1.
     999902    2    1    2    0    0  0.12691051898E-01  0.15843107967E-01 -0.61154357301E-02  0.10227294004E+01  0.10225096386E+01 0.  0.
     999903    2    3    3    0    0  0.82871854575E-01  0.63087069595E-01 -0.83942730214E-01  0.13525296426E+00  0.19981485295E-01 0.  0.
         14    1    1    2    0    0 -0.12691051898E-01 -0.15843107967E-01  0.61154357301E-02  0.21200599579E-01  0.00000000000E+00 0. -1.
     999901    1    3    3    0    0 -0.70180802678E-01 -0.47243961628E-01  0.77827294484E-01  0.88747643616E+00  0.88000000000E+00 0. -1.
        -11    1    4    4    0    0  0.22751233341E-01  0.15180578922E-01 -0.33744562997E-01  0.43439903865E-01  0.51100000000E-03 0. -1.
         11    1    4    4    0    0  0.60120621235E-01  0.47906490673E-01 -0.50198167217E-01  0.91813060395E-01  0.51100000000E-03 0.  1.
</event>
<event>
 8    1  0.1086235E+005  0.1043930E+01  0.7957747E-01            NaN
         13   -1    0    0    0    0  0.00000000000E+00  0.00000000000E+00  0.74505805969E-08  0.10566000000E+00  0.10566000000E+00 0. -1.
     999900   -1    0    0    0    0 -0.00000000000E+00 -0.00000000000E+00 -0.74505805969E-08  0.93827000000E+00  0.93827000000E+00 0. -1.
     999902    2    1    2    0    0 -0.17970968752E-01 -0.48911548958E-02  0.13865999039E-01  0.10207105029E+01  0.10204463659E+01 0.  0.
     999903    2    3    3    0    0 -0.11258029633E+00 -0.48030625900E-01  0.53307743865E-01  0.13371129773E+00  0.74653491820E-02 0.  0.
         14    1    1    2    0    0  0.17970968752E-01  0.48911548958E-02 -0.13865999039E-01  0.23219497055E-01  0.00000000000E+00 0.  1.
     999901    1    3    3    0    0  0.94609327575E-01  0.43139471005E-01 -0.39441744825E-01  0.88699920522E+00  0.88000000000E+00 0.  1.
        -11    1    4    4    0    0 -0.33048692052E-01 -0.17583694352E-01  0.15046582502E-01  0.40349264174E-01  0.51100000000E-03 0.  1.
         11    1    4    4    0    0 -0.79531604275E-01 -0.30446931548E-01  0.38261161363E-01  0.93362033553E-01  0.51100000000E-03 0. -1.
</event>
<event>
 8    1  0.1086235E+005  0.1043930E+01  0.7957747E-01            NaN
         13   -1    0    0    0    0  0.00000000000E+00  0.00000000000E+00  0.74505805969E-08  0.10566000000E+00  0.10566000000E+00 0.  1.
     999900   -1    0    0    0    0 -0.00000000000E+00 -0.00000000000E+00 -0.74505805969E-08  0.93827000000E+00  0.93827000000E+00 0. -1.
     999902    2    1    2    0    0 -0.41085189711E-02 -0.11165277203E-01 -0.20295624734E-01  0.10204043602E+01  0.10201331299E+01 0.  0.
     999903    2    3    3    0    0  0.63686467660E-01 -0.10853548004E+00 -0.35722678915E-01  0.13230801939E+00  0.19833951092E-01 0.  0.
         14    1    1    2    0    0  0.41085189711E-02  0.11165277203E-01  0.20295624734E-01  0.23525639768E-01  0.00000000000E+00 0.  1.
     999901    1    3    3    0    0 -0.67794986631E-01  0.97370202837E-01  0.15427054181E-01  0.88809634084E+00  0.88000000000E+00 0. -1.
        -11    1    4    4    0    0  0.23706308085E-01 -0.32734885962E-01 -0.20300211808E-01  0.45231864017E-01  0.51100000000E-03 0.  1.
         11    1    4    4    0    0  0.39980159574E-01 -0.75800594078E-01 -0.15422467108E-01  0.87076155375E-01  0.51100000000E-03 0. -1.
</event>
<event>
 8    1  0.1086235E+005  0.1043930E+01  0.7957747E-01            NaN
         13   -1    0    0    0    0  0.00000000000E+00  0.00000000000E+00  0.74505805969E-08  0.10566000000E+00  0.10566000000E+00 0. -1.
     999900   -1    0    0    0    0 -0.00000000000E+00 -0.00000000000E+00 -0.74505805969E-08  0.93827000000E+00  0.93827000000E+00 0. -1.
     999902    2    1    2    0    0 -0.14541543889E-01  0.19541177091E-01 -0.27370512409E-02  0.10194186649E+01  0.10191239418E+01 0.  0.
     999903    2    3    3    0    0  0.23952517007E-02  0.10088120135E+00 -0.82557995491E-01  0.13190841831E+00  0.20031330071E-01 0.  0.
         14    1    1    2    0    0  0.14541543889E-01 -0.19541177091E-01  0.27370512409E-02  0.24511335138E-01  0.00000000000E+00 0.  1.
     999901    1    3    3    0    0 -0.16936795590E-01 -0.81340024263E-01  0.79820944250E-01  0.88751024655E+00  0.88000000000E+00 0.  1.
        -11    1    4    4    0    0  0.94854468362E-02  0.46104044852E-01 -0.31112225845E-01  0.56425068644E-01  0.51100000000E-03 0. -1.
         11    1    4    4    0    0 -0.70901951355E-02  0.54777156502E-01 -0.51445769647E-01  0.75483349667E-01  0.51100000000E-03 0.  1.
</event>
<event>
 8    1  0.1086235E+005  0.1043930E+01  0.7957747E-01            NaN
         13   -1    0    0    0    0  0.00000000000E+00  0.00000000000E+00  0.74505805969E-08  0.10566000000E+00  0.10566000000E+00 0.  1.
     999900   -1    0    0    0    0 -0.00000000000E+00 -0.00000000000E+00 -0.74505805969E-08  0.93827000000E+00  0.93827000000E+00 0.  1.
     999902    2    1    2    0    0  0.18565581232E-01 -0.11038965749E-01 -0.43422069825E-02  0.10218983334E+01  0.10216608094E+01 0.  0.
     999903    2    3    3    0    0  0.12754228691E+00  0.36002419079E-01 -0.32521140166E-02  0.13392873789E+00  0.19055746020E-01 0.  0.
         14    1    1    2    0    0 -0.18565581232E-01  0.11038965749E-01  0.43422069825E-02  0.22031666591E-01  0.00000000000E+00 0.  1.
     999901    1    3    3    0    0 -0.10897670568E+00 -0.47041384828E-01 -0.10900929659E-02  0.88796959552E+00  0.88000000000E+00 0. -1.
        -11    1    4    4    0    0  0.51872395665E-01  0.54880656557E-02 -0.41739724762E-02  0.52331132836E-01  0.51100000000E-03 0. -1.
         11    1    4    4    0    0  0.75669891247E-01  0.30514353423E-01  0.92185845959E-03  0.81597605052E-01  0.51100000000E-03 0.  1.
</event>
<event>
 8    1  0.1086235E+005  0.1043930E+01  0.7957747E-01            NaN
         13   -1    0    0    0    0  0.00000000000E+00  0.00000000000E+00  0.74505805969E-08  0.10566000000E+00  0.10566000000E+00 0. -1.
     999900   -1    0    0    0    0 -0.00000000000E+00 -0.00000000000E+00 -0.74505805969E-08  0.93827000000E+00  0.93827000000E+00 0. -1.
     999902    2    1    2    0    0 -0.21584187025E-03  0.21827436935E-01  0.90256037002E-02  0.10203091382E+01  0.10200356819E+01 0.  0.
     999903    2    3    3    0    0  0.80083500632E-01 -0.70773223671E-01 -0.69442898541E-01  0.12835612788E+00  0.15190890137E-01 0.  0.
         14    1    1    2    0    0  0.21584187025E-03 -0.21827436935E-01 -0.90256037002E-02  0.23620861818E-01  0.00000000000E+00 0.  1.
     999901    1    3    3    0    0 -0.80299342502E-01  0.92600660606E-01  0.78468502241E-01  0.89195301031E+00  0.88000000000E+00 0. -1.
        -11    1    4    4    0    0  0.13010244036E-01 -0.80983626385E-02 -0.15870605861E-01  0.22067785995E-01  0.51100000000E-03 0. -1.
         11    1    4    4    0    0  0.67073256596E-01 -0.62674861032E-01 -0.53572292680E-01  0.10628834188E+00  0.51100000000E-03 0.  1.
</event>
<event>
 8    1  0.1086235E+005  0.1043930E+01  0.7957747E-01            NaN
         13   -1    0    0    0    0  0.00000000000E+00  0.00000000000E+00  0.74505805969E-08  0.10566000000E+00  0.10566000000E+00 0.  1.
     999900   -1    0    0    0    0 -0.00000000000E+00 -0.00000000000E+00 -0.74505805969E-08  0.93827000000E+00  0.93827000000E+00 0.  1.
     999902    2    1    2    0    0  0.12213263783E-02 -0.68111211408E-02  0.22802314676E-01  0.10201008463E+01  0.10198224885E+01 0.  0.
     999903    2    3    3    0    0 -0.75057444556E-02 -0.10366489855E-01  0.13129457781E+00  0.13338816821E+00  0.19756946750E-01 0.  0.
         14    1    1    2    0    0 -0.12213263783E-02  0.68111211408E-02 -0.22802314676E-01  0.23829153655E-01  0.00000000000E+00 0. -1.
     999901    1    3    3    0    0  0.87270708340E-02  0.35553687144E-02 -0.10849226313E+00  0.88671267814E+00  0.88000000000E+00 0.  1.
        -11    1    4    4    0    0  0.16240940839E-02 -0.59072890324E-02  0.10521609031E+00  0.10539554320E+00  0.51100000000E-03 0. -1.
         11    1    4    4    0    0 -0.91298385396E-02 -0.44592008228E-02  0.26078487491E-01  0.27992625003E-01  0.51100000000E-03 0.  1.
</event>
<event>
 8    1  0.1086235E+005  0.1043930E+01  0.7957747E-01            NaN
         13   -1    0    0    0    0  0.00000000000E+00  0.00000000000E+00  0.74505805969E-08  0.10566000000E+00  0.10566000000E+00 0. -1.
     999900   -1    0    0    0    0 -0.00000000000E+00 -0.00000000000E+00 -0.74505805969E-08  0.93827000000E+00  0.93827000000E+00 0. -1.
     999902    2    1    2    0    0  0.17789587040E-01 -0.63891095829E-02  0.12805017028E-01  0.10210989118E+01  0.10208436359E+01 0.  0.
     999903    2    3    3    0    0 -0.70199477492E-01 -0.42603244048E-01 -0.98017941186E-01  0.12905896476E+00  0.17484179889E-01 0.  0.
         14    1    1    2    0    0 -0.17789587040E-01  0.63891095829E-02 -0.12805017028E-01  0.22831088222E-01  0.00000000000E+00 0.  1.
     999901    1    3    3    0    0  0.87989064533E-01  0.36214134465E-01  0.11082295821E+00  0.89203994702E+00  0.88000000000E+00 0.  1.
        -11    1    4    4    0    0 -0.54224623402E-01 -0.24087976695E-01 -0.65700273505E-01  0.88528681590E-01  0.51100000000E-03 0. -1.
         11    1    4    4    0    0 -0.15974854090E-01 -0.18515267352E-01 -0.32317667681E-01  0.40530283168E-01  0.51100000000E-03 0.  1.
</event>
<event>
 8    1  0.1086235E+005  0.1043930E+01  0.7957747E-01            NaN
         13   -1    0    0    0    0  0.00000000000E+00  0.00000000000E+00  0.74505805969E-08  0.10566000000E+00  0.10566000000E+00 0. -1.
     999900   -1    0    0    0    0 -0.00000000000E+00 -0.00000000000E+00 -0.74505805969E-08  0.93827000000E+00  0.93827000000E+00 0.  1.
     999902    2    1    2    0    0 -0.11955345849E-01 -0.12811024091E-01 -0.16223498589E-01  0.10200499971E+01  0.10197704359E+01 0.  0.
     999903    2    3    3    0    0 -0.10379950455E+00  0.58314792032E-01 -0.52622423706E-01  0.13166994725E+00  0.19821791454E-01 0.  0.
         14    1    1    2    0    0  0.11955345849E-01  0.12811024091E-01  0.16223498589E-01  0.23880002912E-01  0.00000000000E+00 0. -1.
     999901    1    3    3    0    0  0.91844158702E-01 -0.71125816123E-01  0.36398925118E-01  0.88838004984E+00  0.88000000000E+00 0. -1.
        -11    1    4    4    0    0 -0.63757199181E-01  0.39040661184E-01 -0.22848893489E-01  0.78175998412E-01  0.51100000000E-03 0.  1.
         11    1    4    4    0    0 -0.40042305370E-01  0.19274130848E-01 -0.29773530217E-01  0.53493948834E-01  0.51100000000E-03 0. -1.
</event>
<event>
 8    1  0.1086235E+005  0.1043930E+01  0.7957747E-01            NaN
         13   -1    0    0    0    0  0.00000000000E+00  0.00000000000E+00  0.74505805969E-08  0.10566000000E+00  0.10566000000E+00 0.  1.
     999900   -1    0    0    0    0 -0.00000000000E+00 -0.00000000000E+00 -0.74505805969E-08  0.93827000000E+00  0.93827000000E+00 0.  1.
     999902    2    1    2    0    0 -0.11496754518E-01 -0.20558053028E-01  0.56130687717E-02  0.10197160484E+01  0.10194285183E+01 0.  0.
     999903    2    3    3    0    0  0.11143825910E+00  0.39102419631E-01  0.45023204154E-01  0.12829833023E+00  0.22042863150E-01 0.  0.
         14    1    1    2    0    0  0.11496754518E-01  0.20558053028E-01 -0.56130687717E-02  0.24213951553E-01  0.00000000000E+00 0. -1.
     999901    1    3    3    0    0 -0.12293501362E+00 -0.59660472659E-01 -0.39410135382E-01  0.89141771821E+00  0.88000000000E+00 0.  1.
        -11    1    4    4    0    0  0.69320285284E-01  0.28323175739E-01  0.17703819986E-01  0.76949272894E-01  0.51100000000E-03 0.  1.
         11    1    4    4    0    0  0.42117973819E-01  0.10779243892E-01  0.27319384167E-01  0.51349057341E-01  0.51100000000E-03 0. -1.
</event>
<event>
 8    1  0.1086235E+005  0.1043930E+01  0.7957747E-01            NaN
         13   -1    0    0    0    0  0.00000000000E+00  0.00000000000E+00  0.74505805969E-08  0.10566000000E+00  0.10566000000E+00 0. -1.
     999900   -1    0    0    0    0 -0.00000000000E+00 -0.00000000000E+00 -0.74505805969E-08  0.93827000000E+00  0.93827000000E+00 0. -1.
     999902    2    1    2    0    0 -0.42501900722E-02 -0.17501437378E-01 -0.15695134421E-01  0.10200406369E+01  0.10197608539E+01 0.  0.
     999903    2    3    3    0    0 -0.35008040717E-01 -0.98571673333E-01 -0.80276970812E-01  0.13342389774E+00  0.20386435335E-01 0.  0.
         14    1    1    2    0    0  0.42501900722E-02  0.17501437378E-01  0.15695134421E-01  0.23889363123E-01  0.00000000000E+00 0. -1.
     999901    1    3    3    0    0  0.30757850644E-01  0.81070235955E-01  0.64581836392E-01  0.88661673914E+00  0.88000000000E+00 0.  1.
        -11    1    4    4    0    0 -0.12470192325E-01 -0.52280683099E-01 -0.51497339549E-01  0.74437978368E-01  0.51100000000E-03 0.  1.
         11    1    4    4    0    0 -0.22537848392E-01 -0.46290990233E-01 -0.28779631264E-01  0.58985919367E-01  0.51100000000E-03 0. -1.
</event>
<event>
 8    1  0.1086235E+005  0.1043930E+01  0.7957747E-01            NaN
         13   -1    0    0    0    0  0.00000000000E+00  0.00000000000E+00  0.74505805969E-08  0.10566000000E+00  0.10566000000E+00 0.  1.
     999900   -1    0    0    0    0 -0.00000000000E+00 -0.00000000000E+00 -0.74505805969E-08  0.93827000000E+00  0.93827000000E+00 0. -1.
     999902    2    1    2    0    0  0.17917328293E-01 -0.25513152466E-01 -0.11550409322E-01  0.10106829918E+01  0.10101360038E+01 0.  0.
     999903    2    3    3    0    0 -0.19936147567E-01  0.11464103415E+00 -0.12412237590E-01  0.11878791698E+00  0.20408059389E-01 0.  0.
         14    1    1    2    0    0 -0.17917328293E-01  0.25513152466E-01  0.11550409322E-01  0.33247008247E-01  0.00000000000E+00 0.  1.
     999901    1    3    3    0    0  0.37853475860E-01 -0.14015418661E+00  0.86182826787E-03  0.89189507477E+00  0.88000000000E+00 0.  1.
        -11    1    4    4    0    0 -0.36404940871E-02  0.34673171812E-01 -0.12889286209E-01  0.37173604354E-01  0.51100000000E-03 0.  1.
         11    1    4    4    0    0 -0.16295653480E-01  0.79967862334E-01  0.47704861935E-03  0.81614312624E-01  0.51100000000E-03 0. -1.
</event>
<event>
 8    1  0.1086235E+005  0.1043930E+01  0.7957747E-01            NaN
         13   -1    0    0    0    0  0.00000000000E+00  0.00000000000E+00  0.74505805969E-08  0.10566000000E+00  0.10566000000E+00 0.  1.
     999900   -1    0    0    0    0 -0.00000000000E+00 -0.00000000000E+00 -0.74505805969E-08  0.93827000000E+00  0.93827000000E+00 0. -1.
     999902    2    1    2    0    0 -0.97957430725E-02  0.11986339010E-01  0.18098341416E-01  0.10201144826E+01  0.10198364471E+01 0.  0.
     999903    2    3    3    0    0 -0.11928567118E+00  0.27135666425E-01  0.47153722673E-01  0.13272406030E+00  0.20658820889E-01 0.  0.
         14    1    1    2    0    0  0.97957430725E-02 -0.11986339010E-01 -0.18098341416E-01  0.23815517362E-01  0.00000000000E+00 0. -1.
     999901    1    3    3    0    0  0.10948992810E+00 -0.15149327414E-01 -0.29055381257E-01  0.88739042234E+00  0.88000000000E+00 0. -1.
        -11    1    4    4    0    0 -0.77189627866E-01  0.91397642234E-02  0.23586200263E-01  0.81230190841E-01  0.51100000000E-03 0.  1.
         11    1    4    4    0    0 -0.42096043309E-01  0.17995902201E-01  0.23567522410E-01  0.51493869459E-01  0.51100000000E-03 0. -1.
</event>
<event>
 8    1  0.1086235E+005  0.1043930E+01  0.7957747E-01            NaN
         13   -1    0    0    0    0  0.00000000000E+00  0.00000000000E+00  0.74505805969E-08  0.10566000000E+00  0.10566000000E+00 0.  1.
     999900   -1    0    0    0    0 -0.00000000000E+00 -0.00000000000E+00 -0.74505805969E-08  0.93827000000E+00  0.93827000000E+00 0. -1.
     999902    2    1    2    0    0  0.14132845063E-01  0.57008289049E-02 -0.17894331740E-01  0.10204258755E+01  0.10201551468E+01 0.  0.
     999903    2    3    3    0    0 -0.10201415243E+00 -0.13526300489E-01 -0.77607502694E-01  0.13058011903E+00  0.20937882186E-01 0.  0.
         14    1    1    2    0    0 -0.14132845063E-01 -0.57008289049E-02  0.17894331740E-01  0.23504124493E-01  0.00000000000E+00 0.  1.
     999901    1    3    3    0    0  0.11614699750E+00  0.19227129394E-01  0.59713170954E-01  0.88984575648E+00  0.88000000000E+00 0.  1.
        -11    1    4    4    0    0 -0.74280482961E-01 -0.29573465387E-03 -0.55071043166E-01  0.92470311583E-01  0.51100000000E-03 0.  1.
         11    1    4    4    0    0 -0.27733669471E-01 -0.13230565836E-01 -0.22536459528E-01  0.38109807448E-01  0.51100000000E-03 0. -1.
</event>
<event>
 8    1  0.1086235E+005  0.1043930E+01  0.7957747E-01            NaN
         13   -1    0    0    0    0  0.00000000000E+00  0.00000000000E+00  0.74505805969E-08  0.10566000000E+00  0.10566000000E+00 0. -1.
     999900   -1    0    0    0    0 -0.00000000000E+00 -0.00000000000E+00 -0.74505805969E-08  0.93827000000E+00  0.93827000000E+00 0.  1.
     999902    2    1    2    0    0 -0.20902568823E-03  0.10274370508E-01  0.19435672045E-01  0.10219447384E+01  0.10217082248E+01 0.  0.
     999903    2    3    3    0    0  0.11881405311E+00  0.29686762833E-01 -0.43457865547E-01  0.13149601366E+00  0.20112991520E-01 0.  0.
         14    1    1    2    0    0  0.20902568823E-03 -0.10274370508E-01 -0.19435672045E-01  0.21985261630E-01  0.00000000000E+00 0.  1.
     999901    1    3    3    0    0 -0.11902307880E+00 -0.19412392324E-01  0.62893537592E-01  0.89044872471E+00  0.88000000000E+00 0. -1.
        -11    1    4    4    0    0  0.10493572708E+00  0.27601113351E-01 -0.44795031621E-01  0.11738902953E+00  0.51100000000E-03 0.  1.
         11    1    4    4    0    0  0.13878326029E-01  0.20856494814E-02  0.13371660737E-02  0.14106984129E-01  0.51100000000E-03 0. -1.
</event>
<event>
 8    1  0.1086235E+005  0.1043930E+01  0.7957747E-01            NaN
         13   -1    0    0    0    0  0.00000000000E+00  0.00000000000E+00  0.74505805969E-08  0.10566000000E+00  0.10566000000E+00 0.  1.
     999900   -1    0    0    0    0 -0.00000000000E+00 -0.00000000000E+00 -0.74505805969E-08  0.93827000000E+00  0.93827000000E+00 0. -1.
     999902    2    1    2    0    0 -0.19673025878E-01  0.13372591419E-01  0.12766709526E-02  0.10201080765E+01  0.10198298896E+01 0.  0.
     999903    2    3    3    0    0 -0.58865059406E-01 -0.81661399234E-01 -0.80379076855E-01  0.13036927441E+00  0.20041765649E-01 0.  0.
         14    1    1    2    0    0  0.19673025878E-01 -0.13372591419E-01 -0.12766709526E-02  0.23821923456E-01  0.00000000000E+00 0. -1.
     999901    1    3    3    0    0  0.39192033529E-01  0.95033990653E-01  0.81655747808E-01  0.88973880213E+00  0.88000000000E+00 0.  1.
        -11    1    4    4    0    0 -0.27562113331E-01 -0.31653344734E-01 -0.22090867562E-01  0.47432814325E-01  0.51100000000E-03 0. -1.
         11    1    4    4    0    0 -0.31302946075E-01 -0.50008054500E-01 -0.58288209293E-01  0.82936460085E-01  0.51100000000E-03 0.  1.
</event>
<event>
 8    1  0.1086235E+005  0.1043930E+01  0.7957747E-01            NaN
         13   -1    0    0    0    0  0.00000000000E+00  0.00000000000E+00  0.74505805969E-08  0.10566000000E+00  0.10566000000E+00 0. -1.
     999900   -1    0    0    0    0 -0.00000000000E+00 -0.00000000000E+00 -0.74505805969E-08  0.93827000000E+00  0.93827000000E+00 0. -1.
     999902    2    1    2    0    0  0.20980260898E-01 -0.74256179531E-02 -0.42824594714E-02  0.10212661387E+01  0.10210146304E+01 0.  0.
     999903    2    3    3    0    0 -0.61304980597E-01 -0.11015057232E+00  0.28815722481E-01  0.13086242867E+00  0.20079346265E-01 0.  0.
         14    1    1    2    0    0 -0.20980260898E-01  0.74256179531E-02  0.42824594714E-02  0.22663861287E-01  0.00000000000E+00 0. -1.
     999901    1    3    3    0    0  0.82285241495E-01  0.10272495436E+00 -0.33098181952E-01  0.89040371005E+00  0.88000000000E+00 0. -1.
        -11    1    4    4    0    0 -0.26699559309E-01 -0.48603865422E-01  0.25175015937E-02  0.55513972444E-01  0.51100000000E-03 0. -1.
         11    1    4    4    0    0 -0.34605421288E-01 -0.61546706895E-01  0.26298220887E-01  0.75348456222E-01  0.51100000000E-03 0.  1.
</event>
<event>
 8    1  0.1086235E+005  0.1043930E+01  0.7957747E-01            NaN
         13   -1    0    0    0    0  0.00000000000E+00  0.00000000000E+00  0.74505805969E-08  0.10566000000E+00  0.10566000000E+00 0. -1.
     999900   -1    0    0    0    0 -0.00000000000E+00 -0.00000000000E+00 -0.74505805969E-08  0.93827000000E+00  0.93827000000E+00 0. -1.
     999902    2    1    2    0    0 -0.11614528093E-01 -0.18866445877E-01 -0.83708669206E-02  0.10202464307E+01  0.10199715035E+01 0.  0.
     999903    2    3    3    0    0 -0.12752551619E+00 -0.29685467664E-01  0.27715989039E-02  0.13250966624E+00  0.20177849635E-01 0.  0.
         14    1    1    2    0    0  0.11614528093E-01  0.18866445877E-01  0.83708669206E-02  0.23683569323E-01  0.00000000000E+00 0.  1.
     999901    1    3    3    0    0  0.11591098810E+00  0.10819021787E-01 -0.11142465824E-01  0.88773676444E+00  0.88000000000E+00 0.  1.
        -11    1    4    4    0    0 -0.59021519878E-01 -0.22590891306E-01 -0.38714303398E-02  0.63317748480E-01  0.51100000000E-03 0.  1.
         11    1    4    4    0    0 -0.68503996312E-01 -0.70945763585E-02  0.66430292437E-02  0.69191917757E-01  0.51100000000E-03 0. -1.
</event>
<event>
 8    1  0.1086235E+005  0.1043930E+01  0.7957747E-01            NaN
         13   -1    0    0    0    0  0.00000000000E+00  0.00000000000E+00  0.74505805969E-08  0.10566000000E+00  0.10566000000E+00 0.  1.
     999900   -1    0    0    0    0 -0.00000000000E+00 -0.00000000000E+00 -0.74505805969E-08  0.93827000000E+00  0.93827000000E+00 0. -1.
     999902    2    1    2    0    0 -0.21504540542E-01  0.10301899990E-01 -0.57119935145E-02  0.10194105939E+01  0.10191156743E+01 0.  0.
     999903    2    3    3    0    0  0.58104810725E-01 -0.97972209300E-01  0.53230021385E-01  0.12725864903E+00  0.19662292642E-01 0.  0.
         14    1    1    2    0    0  0.21504540542E-01 -0.10301899990E-01  0.57119935145E-02  0.24519406135E-01  0.00000000000E+00 0.  1.
     999901    1    3    3    0    0 -0.79609351267E-01  0.10827410929E+00 -0.58942014899E-01  0.89215194483E+00  0.88000000000E+00 0. -1.
        -11    1    4    4    0    0  0.31591087464E-01 -0.34758352425E-01  0.23792324891E-01  0.52654303862E-01  0.51100000000E-03 0. -1.
         11    1    4    4    0    0  0.26513723261E-01 -0.63213856875E-01  0.29437696494E-01  0.74604345169E-01  0.51100000000E-03 0.  1.
</event>
<event>
 8    1  0.1086235E+005  0.1043930E+01  0.7957747E-01            NaN
         13   -1    0    0    0    0  0.00000000000E+00  0.00000000000E+00  0.74505805969E-08  0.10566000000E+00  0.10566000000E+00 0. -1.
     999900   -1    0    0    0    0 -0.00000000000E+00 -0.00000000000E+00 -0.74505805969E-08  0.93827000000E+00  0.93827000000E+00 0.  1.
     999902    2    1    2    0    0  0.24479909257E-01 -0.24610095404E-03 -0.57323589389E-02  0.10187866816E+01  0.10184763699E+01 0.  0.
     999903    2    3    3    0    0 -0.10722873002E+00 -0.46537315085E-01 -0.44911288048E-01  0.12692064305E+00  0.20690664613E-01 0.  0.
         14    1    1    2    0    0 -0.24479909257E-01  0.24610095404E-03  0.57323589389E-02  0.25143318434E-01  0.00000000000E+00 0.  1.
     999901    1    3    3    0    0  0.13170863928E+00  0.46291214131E-01  0.39178929109E-01  0.89186603851E+00  0.88000000000E+00 0. -1.
        -11    1    4    4    0    0 -0.80236998354E-01 -0.28296924982E-01 -0.24760845346E-01  0.88611807630E-01  0.51100000000E-03 0.  1.
         11    1    4    4    0    0 -0.26991731665E-01 -0.18240390103E-01 -0.20150442701E-01  0.38308835423E-01  0.51100000000E-03 0. -1.
</event>
<event>
 8    1  0.1086235E+005  0.1043930E+01  0.7957747E-01            NaN
         13   -1    0    0    0    0  0.00000000000E+00  0.00000000000E+00  0.74505805969E-08  0.10566000000E+00  0.10566000000E+00 0. -1.
     999900   -1    0    0    0    0 -0.00000000000E+00 -0.00000000000E+00 -0.74505805969E-08  0.93827000000E+00  0.93827000000E+00 0.  1.
     999902    2    1    2    0    0 -0.68192869600E-03 -0.22327883039E-01 -0.38420321180E-02  0.10212637123E+01  0.10210121495E+01 0.  0.
     999903    2    3    3    0    0 -0.90854372686E-01 -0.58315049011E-01  0.74249489200E-01  0.13248678219E+00  0.19611191504E-01 0.  0.
         14    1    1    2    0    0  0.68192869600E-03  0.22327883039E-01  0.38420321180E-02  0.22666287710E-01  0.00000000000E+00 0. -1.
     999901    1    3    3    0    0  0.90172443990E-01  0.35987165972E-01 -0.78091521318E-01  0.88877693010E+00  0.88000000000E+00 0. -1.
        -11    1    4    4    0    0 -0.45498615973E-01 -0.24508322438E-01  0.24687424945E-01  0.57275753994E-01  0.51100000000E-03 0. -1.
         11    1    4    4    0    0 -0.45355756714E-01 -0.33806726573E-01  0.49562064256E-01  0.75211028200E-01  0.51100000000E-03 0.  1.
</event>
<event>
 8    1  0.1086235E+005  0.1043930E+01  0.7957747E-01            NaN
         13   -1    0    0    0    0  0.00000000000E+00  0.00000000000E+00  0.74505805969E-08  0.10566000000E+00  0.10566000000E+00 0.  1.
     999900   -1    0    0    0    0 -0.00000000000E+00 -0.00000000000E+00 -0.74505805969E-08  0.93827000000E+00  0.93827000000E+00 0. -1.
     999902    2    1    2    0    0  0.17819240175E-02 -0.22059874056E-01 -0.42972182794E-02  0.10213849477E+01  0.10211360987E+01 0.  0.
     999903    2    3    3    0    0  0.11573897789E+00  0.28593310201E-01 -0.51156228416E-01  0.13135813801E+00  0.20613401563E-01 0.  0.
         14    1    1    2    0    0 -0.17819240175E-02  0.22059874056E-01  0.42972182794E-02  0.22545052262E-01  0.00000000000E+00 0.  1.
     999901    1    3    3    0    0 -0.11395705387E+00 -0.50653184257E-01  0.46859010137E-01  0.89002680973E+00  0.88000000000E+00 0.  1.
        -11    1    4    4    0    0  0.41384045496E-01  0.66090941777E-02 -0.28116586121E-01  0.50469028954E-01  0.51100000000E-03 0. -1.
         11    1    4    4    0    0  0.74354932396E-01  0.21984216023E-01 -0.23039642295E-01  0.80889109056E-01  0.51100000000E-03 0.  1.
</event>
<event>
 8    1  0.1086235E+005  0.1043930E+01  0.7957747E-01            NaN
         13   -1    0    0    0    0  0.00000000000E+00  0.00000000000E+00  0.74505805969E-08  0.10566000000E+00  0.10566000000E+00 0. -1.
     999900   -1    0    0    0    0 -0.00000000000E+00 -0.00000000000E+00 -0.74505805969E-08  0.93827000000E+00  0.93827000000E+00 0. -1.
     999902    2    1    2    0    0 -0.37119592932E-02  0.21214112586E-01 -0.10364743022E-01  0.10200292654E+01  0.10197492129E+01 0.  0.
     999903    2    3    3    0    0 -0.12514113834E+00 -0.25942322636E-01 -0.17301575909E-01  0.13041311532E+00  0.19363044963E-01 0.  0.
         14    1    1    2    0    0  0.37119592932E-02 -0.21214112586E-01  0.10364743022E-01  0.23900734560E-01  0.00000000000E+00 0. -1.
     999901    1    3    3    0    0  0.12142917904E+00  0.47156435222E-01  0.69368328863E-02  0.88961615012E+00  0.88000000000E+00 0.  1.
        -11    1    4    4    0    0 -0.10362404651E+00 -0.21318866943E-01 -0.21613260222E-01  0.10798069846E+00  0.51100000000E-03 0.  1.
         11    1    4    4    0    0 -0.21517091828E-01 -0.46234556936E-02  0.43116843132E-02  0.22432416854E-01  0.51100000000E-03 0. -1.
</event>
<event>
 8    1  0.1086235E+005  0.1043930E+01  0.7957747E-01            NaN
         13   -1    0    0    0    0  0.00000000000E+00  0.00000000000E+00  0.74505805969E-08  0.10566000000E+00  0.10566000000E+00 0.  1.
     999900   -1    0    0    0    0 -0.00000000000E+00 -0.00000000000E+00 -0.74505805969E-08  0.93827000000E+00  0.93827000000E+00 0.  1.
     999902    2    1    2    0    0 -0.58212362178E-02  0.35709760561E-02 -0.21931671720E-01  0.10209596520E+01  0.10207012169E+01 0.  0.
     999903    2    3    3    0    0 -0.12328075747E-01  0.11064310674E+00 -0.70277277222E-01  0.13312854327E+00  0.19759423546E-01 0.  0.
         14    1    1    2    0    0  0.58212362178E-02 -0.35709760561E-02  0.21931671720E-01  0.22970347963E-01  0.00000000000E+00 0.  1.
     999901    1    3    3    0    0  0.65068395297E-02 -0.10707213068E+00  0.48345605502E-01  0.88783110877E+00  0.88000000000E+00 0. -1.
        -11    1    4    4    0    0 -0.21113380327E-02  0.49274229513E-01 -0.20343570267E-01  0.53352876348E-01  0.51100000000E-03 0.  1.
         11    1    4    4    0    0 -0.10216737715E-01  0.61368877223E-01 -0.49933706955E-01  0.79775666919E-01  0.51100000000E-03 0. -1.
</event>
<event>
 8    1  0.1086235E+005  0.1043930E+01  0.7957747E-01            NaN
         13   -1    0    0    0    0  0.00000000000E+00  0.00000000000E+00  0.74505805969E-08  0.10566000000E+00  0.10566000000E+00 0.  1.
     999900   -1    0    0    0    0 -0.00000000000E+00 -0.00000000000E+00 -0.74505805969E-08  0.93827000000E+00  0.93827000000E+00 0. -1.
     999902    2    1    2    0    0  0.14423730536E-01  0.13700049527E-01 -0.11741619368E-01  0.10208301951E+01  0.10205688053E+01 0.  0.
     999903    2    3    3    0    0  0.54523775924E-01  0.12006692964E+00  0.50505944636E-02  0.13335968561E+00  0.19245454207E-01 0.  0.
         14    1    1    2    0    0 -0.14423730536E-01 -0.13700049527E-01  0.11741619368E-01  0.23099804870E-01  0.00000000000E+00 0.  1.
     999901    1    3    3    0    0 -0.40100045387E-01 -0.10636688011E+00 -0.16792213832E-01  0.88747050952E+00  0.88000000000E+00 0.  1.
        -11    1    4    4    0    0  0.13240141055E-01  0.28722625976E-01  0.94761238091E-02  0.33020427338E-01  0.51100000000E-03 0. -1.
         11    1    4    4    0    0  0.41283634868E-01  0.91344303662E-01 -0.44255293455E-02  0.10033925827E+00  0.51100000000E-03 0.  1.
</event>
<event>
 8    1  0.1086235E+005  0.1043930E+01  0.7957747E-01            NaN
         13   -1    0    0    0    0  0.00000000000E+00  0.00000000000E+00  0.74505805969E-08  0.10566000000E+00  0.10566000000E+00 0. -1.
     999900   -1    0    0    0    0 -0.00000000000E+00 -0.00000000000E+00 -0.74505805969E-08  0.93827000000E+00  0.93827000000E+00 0. -1.
     999902    2    1    2    0    0 -0.20222503433E-01 -0.62176925189E-02  0.10774985271E-01  0.10201874295E+01  0.10199111146E+01 0.  0.
     999903    2    3    3    0    0  0.80907560009E-01  0.60510752707E-01 -0.74735245335E-01  0.12777946526E+00  0.23122508249E-01 0.  0.
         14    1    1    2    0    0  0.20222503433E-01  0.62176925189E-02 -0.10774985271E-01  0.23742570479E-01  0.00000000000E+00 0.  1.
     999901    1    3    3    0    0 -0.10113006344E+00 -0.66728445226E-01  0.85510230606E-01  0.89240796426E+00  0.88000000000E+00 0.  1.
        -11    1    4    4    0    0  0.65076108766E-01  0.37929865308E-01 -0.47705439391E-01  0.89160779959E-01  0.51100000000E-03 0.  1.
         11    1    4    4    0    0  0.15831451242E-01  0.22580887399E-01 -0.27029805944E-01  0.38618685303E-01  0.51100000000E-03 0. -1.
</event>
<event>
 7    1  0.1086235E+005  0.1043930E+01  0.7957747E-01            NaN
         13   -1    0    0    0    0  0.00000000000E+00  0.00000000000E+00  0.74505805969E-08  0.10566000000E+00  0.10566000000E+00 0. -1.
     999900   -1    0    0    0    0 -0.00000000000E+00 -0.00000000000E+00 -0.74505805969E-08  0.93827000000E+00  0.93827000000E+00 0. -1.
     999902    2    1    2    0    0 -0.23837960730E-01 -0.11654780940E-02  0.43348841003E-02  0.10196730849E+01  0.10193845212E+01 0.  0.
         14    1    1    2    0    0  0.23837960730E-01  0.11654780940E-02 -0.43348841003E-02  0.24256915119E-01  0.00000000000E+00 0.  1.
     999901    1    3    3    0    0  0.31199648261E-01 -0.81547548155E-01 -0.72822519350E-01  0.88731422844E+00  0.88000000000E+00 0. -1.
        -11    1    3    3    0    0 -0.39250343547E-01  0.43463376519E-01  0.70504143528E-01  0.91655605080E-01  0.51100000000E-03 0. -1.
         11    1    3    3    0    0 -0.15787265443E-01  0.36918693541E-01  0.66532599216E-02  0.40703251364E-01  0.51100000000E-03 0.  1.
</event>
<event>
 8    1  0.1086235E+005  0.1043930E+01  0.7957747E-01            NaN
         13   -1    0    0    0    0  0.00000000000E+00  0.00000000000E+00  0.74505805969E-08  0.10566000000E+00  0.10566000000E+00 0. -1.
     999900   -1    0    0    0    0 -0.00000000000E+00 -0.00000000000E+00 -0.74505805969E-08  0.93827000000E+00  0.93827000000E+00 0. -1.
     999902    2    1    2    0    0 -0.60869695267E-02 -0.11156216449E-01 -0.19441547156E-01  0.10207031595E+01  0.10204388535E+01 0.  0.
     999903    2    3    3    0    0 -0.21055997151E-02 -0.12857938391E+00  0.21588397435E-01  0.13194700177E+00  0.20170792142E-01 0.  0.
         14    1    1    2    0    0  0.60869695267E-02  0.11156216449E-01  0.19441547156E-01  0.23226840493E-01  0.00000000000E+00 0. -1.
     999901    1    3    3    0    0 -0.39813698117E-02  0.11742316746E+00 -0.41029944591E-01  0.88875615774E+00  0.88000000000E+00 0.  1.
        -11    1    4    4    0    0 -0.38893233252E-03 -0.10771141871E+00  0.25377180779E-01  0.11066238482E+00  0.51100000000E-03 0.  1.
         11    1    4    4    0    0 -0.17166673825E-02 -0.20867965203E-01 -0.37887833437E-02  0.21284616953E-01  0.51100000000E-03 0. -1.
</event>
<event>
 8    1  0.1086235E+005  0.1043930E+01  0.7957747E-01            NaN
         13   -1    0    0    0    0  0.00000000000E+00  0.00000000000E+00  0.74505805969E-08  0.10566000000E+00  0.10566000000E+00 0. -1.
     999900   -1    0    0    0    0 -0.00000000000E+00 -0.00000000000E+00 -0.74505805969E-08  0.93827000000E+00  0.93827000000E+00 0. -1.
     999902    2    1    2    0    0  0.19611764465E-01  0.43200312231E-02 -0.12826501315E-01  0.10201013804E+01  0.10198230352E+01 0.  0.
     999903    2    3    3    0    0  0.46188541157E-01 -0.57729682948E-02 -0.12262677564E+00  0.13282222821E+00  0.20921513019E-01 0.  0.
         14    1    1    2    0    0 -0.19611764465E-01 -0.43200312231E-02  0.12826501315E-01  0.23828619582E-01  0.00000000000E+00 0.  1.
     999901    1    3    3    0    0 -0.26576776692E-01  0.10092999518E-01  0.10980027432E+00  0.88727915221E+00  0.88000000000E+00 0.  1.
        -11    1    4    4    0    0  0.35306591213E-01 -0.52031321091E-02 -0.11216837470E+00  0.11770995443E+00  0.51100000000E-03 0. -1.
         11    1    4    4    0    0  0.10881949944E-01 -0.56983618569E-03 -0.10458400935E-01  0.15112273786E-01  0.51100000000E-03 0.  1.
</event>
<event>
 8    1  0.1086235E+005  0.1043930E+01  0.7957747E-01            NaN
         13   -1    0    0    0    0  0.00000000000E+00  0.00000000000E+00  0.74505805969E-08  0.10566000000E+00  0.10566000000E+00 0. -1.
     999900   -1    0    0    0    0 -0.00000000000E+00 -0.00000000000E+00 -0.74505805969E-08  0.93827000000E+00  0.93827000000E+00 0. -1.
     999902    2    1    2    0    0 -0.27766071311E-01 -0.23769822700E-01  0.55585591779E-02  0.10069589739E+01  0.10062800398E+01 0.  0.
     999903    2    3    3    0    0 -0.42289539180E-01 -0.11036123810E+00  0.24654853617E-01  0.12238355444E+00  0.20046560573E-01 0.  0.
         14    1    1    2    0    0  0.27766071311E-01  0.23769822700E-01 -0.55585591779E-02  0.36971026053E-01  0.00000000000E+00 0. -1.
     999901    1    3    3    0    0  0.14523467869E-01  0.86591415399E-01 -0.19096294439E-01  0.88457541951E+00  0.88000000000E+00 0.  1.
        -11    1    4    4    0    0 -0.39431390814E-02 -0.35864804501E-01  0.77366904763E-02  0.36904607412E-01  0.51100000000E-03 0.  1.
         11    1    4    4    0    0 -0.38346400099E-01 -0.74496433599E-01  0.16918163140E-01  0.85478947025E-01  0.51100000000E-03 0. -1.
</event>
<event>
 8    1  0.1086235E+005  0.1043930E+01  0.7957747E-01            NaN
         13   -1    0    0    0    0  0.00000000000E+00  0.00000000000E+00  0.74505805969E-08  0.10566000000E+00  0.10566000000E+00 0. -1.
     999900   -1    0    0    0    0 -0.00000000000E+00 -0.00000000000E+00 -0.74505805969E-08  0.93827000000E+00  0.93827000000E+00 0. -1.
     999902    2    1    2    0    0  0.17772646674E-01  0.14515495335E-01  0.11004817007E-01  0.10184805880E+01  0.10181625781E+01 0.  0.
     999903    2    3    3    0    0 -0.48564642409E-01 -0.22979757547E-01 -0.11310478756E+00  0.12651101235E+00  0.18048532592E-01 0.  0.
         14    1    1    2    0    0 -0.17772646674E-01 -0.14515495335E-01 -0.11004817007E-01  0.25449412016E-01  0.00000000000E+00 0.  1.
     999901    1    3    3    0    0  0.66337289082E-01  0.37495252882E-01  0.12410960456E+00  0.89196957563E+00  0.88000000000E+00 0.  1.
        -11    1    4    4    0    0 -0.24567870620E-01 -0.21236004089E-01 -0.60623458790E-01  0.68775090062E-01  0.51100000000E-03 0. -1.
         11    1    4    4    0    0 -0.23996771789E-01 -0.17437534577E-02 -0.52481328766E-01  0.57735922288E-01  0.51100000000E-03 0.  1.
</event>
<event>
 8    1  0.1086235E+005  0.1043930E+01  0.7957747E-01            NaN
         13   -1    0    0    0    0  0.00000000000E+00  0.00000000000E+00  0.74505805969E-08  0.10566000000E+00  0.10566000000E+00 0.  1.
     999900   -1    0    0    0    0 -0.00000000000E+00 -0.00000000000E+00 -0.74505805969E-08  0.93827000000E+00  0.93827000000E+00 0.  1.
     999902    2    1    2    0    0  0.15185832302E-01  0.10969846767E-01 -0.13722494773E-01  0.10207081589E+01  0.10204439680E+01 0.  0.
     999903    2    3    3    0    0  0.57732473469E-01  0.11340081429E+00  0.31518896561E-01  0.13259268034E+00  0.19864412015E-01 0.  0.
         14    1    1    2    0    0 -0.15185832302E-01 -0.10969846767E-01  0.13722494773E-01  0.23221841090E-01  0.00000000000E+00 0.  1.
     999901    1    3    3    0    0 -0.42546641167E-01 -0.10243096753E+00 -0.45241391335E-01  0.88811547857E+00  0.88000000000E+00 0.  1.
        -11    1    4    4    0    0  0.19666729701E-01  0.24873635615E-01  0.13917298838E-01  0.34632792752E-01  0.51100000000E-03 0. -1.
         11    1    4    4    0    0  0.38065743768E-01  0.88527178678E-01  0.17601597724E-01  0.97959887590E-01  0.51100000000E-03 0.  1.
</event>
<event>
 8    1  0.1086235E+005  0.1043930E+01  0.7957747E-01            NaN
         13   -1    0    0    0    0  0.00000000000E+00  0.00000000000E+00  0.74505805969E-08  0.10566000000E+00  0.10566000000E+00 0.  1.
     999900   -1    0    0    0    0 -0.00000000000E+00 -0.00000000000E+00 -0.74505805969E-08  0.93827000000E+00  0.93827000000E+00 0. -1.
     999902    2    1    2    0    0  0.24250235471E-01 -0.27359329002E-02 -0.24269767018E-02  0.10194055333E+01  0.10191104905E+01 0.  0.
     999903    2    3    3    0    0 -0.24505952549E-01 -0.15604180797E-01  0.12406037910E+00  0.12893273260E+00  0.19713946978E-01 0.  0.
         14    1    1    2    0    0 -0.24250235471E-01  0.27359329002E-02  0.24269767018E-02  0.24524466664E-01  0.00000000000E+00 0.  1.
     999901    1    3    3    0    0  0.48756188020E-01  0.12868247896E-01 -0.12648735580E+00  0.89047280074E+00  0.88000000000E+00 0. -1.
        -11    1    4    4    0    0 -0.27541265288E-01 -0.11557513648E-01  0.10137980517E+00  0.10568927775E+00  0.51100000000E-03 0.  1.
         11    1    4    4    0    0  0.30353127382E-02 -0.40466671484E-02  0.22680573929E-01  0.23243454846E-01  0.51100000000E-03 0. -1.
</event>
<event>
 8    1  0.1086235E+005  0.1043930E+01  0.7957747E-01            NaN
         13   -1    0    0    0    0  0.00000000000E+00  0.00000000000E+00  0.74505805969E-08  0.10566000000E+00  0.10566000000E+00 0.  1.
     999900   -1    0    0    0    0 -0.00000000000E+00 -0.00000000000E+00 -0.74505805969E-08  0.93827000000E+00  0.93827000000E+00 0.  1.
     999902    2    1    2    0    0  0.22096210555E-01 -0.79548247355E-02 -0.59641336033E-02  0.10197000052E+01  0.10194120894E+01 0.  0.
     999903    2    3    3    0    0 -0.77683748723E-01  0.43247669405E-01  0.89027409598E-01  0.12751105160E+00  0.20689680897E-01 0.  0.
         14    1    1    2    0    0 -0.22096210555E-01  0.79548247355E-02  0.59641336033E-02  0.24229994782E-01  0.00000000000E+00 0. -1.
     999901    1    3    3    0    0  0.99779959278E-01 -0.51202494141E-01 -0.94991543201E-01  0.89218895362E+00  0.88000000000E+00 0.  1.
        -11    1    4    4    0    0 -0.71482386828E-01  0.45369296316E-01  0.81526818020E-01  0.11753717647E+00  0.51100000000E-03 0.  1.
         11    1    4    4    0    0 -0.62013618952E-02 -0.21216269106E-02  0.75005915777E-02  0.99738751305E-02  0.51100000000E-03 0. -1.
</event>
<event>
 8    1  0.1086235E+005  0.1043930E+01  0.7957747E-01            NaN
         13   -1    0    0    0    0  0.00000000000E+00  0.00000000000E+00  0.74505805969E-08  0.10566000000E+00  0.10566000000E+00 0. -1.
     999900   -1    0    0    0    0 -0.00000000000E+00 -0.00000000000E+00 -0.74505805969E-08  0.93827000000E+00  0.93827000000E+00 0.  1.
     999902    2    1    2    0    0  0.22971999928E-01  0.71854973617E-02  0.39195514989E-02  0.10195433841E+01  0.10192516887E+01 0.  0.
     999903    2    3    3    0    0 -0.11224010763E+00  0.85003909116E-02  0.56689308849E-01  0.12765286933E+00  0.20284942816E-01 0.  0.
         14    1    1    2    0    0 -0.22971999928E-01 -0.71854973617E-02 -0.39195514989E-02  0.24386615939E-01  0.00000000000E+00 0.  1.
     999901    1    3    3    0    0  0.13521210755E+00 -0.13148935499E-02 -0.52769757350E-01  0.89189051473E+00  0.88000000000E+00 0. -1.
        -11    1    4    4    0    0 -0.30777604680E-01  0.10243100765E-01  0.11125661184E-01  0.34296115245E-01  0.51100000000E-03 0.  1.
         11    1    4    4    0    0 -0.81462502947E-01 -0.17427098534E-02  0.45563647665E-01  0.93356754086E-01  0.51100000000E-03 0. -1.
</event>
<event>
 8    1  0.1086235E+005  0.1043930E+01  0.7957747E-01            NaN
         13   -1    0    0    0    0  0.00000000000E+00  0.00000000000E+00  0.74505805969E-08  0.10566000000E+00  0.10566000000E+00 0.  1.
     999900   -1    0    0    0    0 -0.00000000000E+00 -0.00000000000E+00 -0.74505805969E-08  0.93827000000E+00  0.93827000000E+00 0.  1.
     999902    2    1    2    0    0  0.22121326237E-01 -0.95170200757E-02  0.79115541440E-02  0.10185820329E+01  0.10182665851E+01 0.  0.
     999903    2    3    3    0    0  0.12437086388E+00  0.31043048405E-01 -0.72948355632E-02  0.13160327254E+00  0.28886399578E-01 0.  0.
         14    1    1    2    0    0 -0.22121326237E-01  0.95170200757E-02 -0.79115541440E-02  0.25347967070E-01  0.00000000000E+00 0. -1.
     999901    1    3    3    0    0 -0.10224953764E+00 -0.40560068480E-01  0.15206389707E-01  0.88697876039E+00  0.88000000000E+00 0. -1.
        -11    1    4    4    0    0  0.82644911424E-01  0.76764779534E-02  0.12939859868E-02  0.83012319681E-01  0.51100000000E-03 0. -1.
         11    1    4    4    0    0  0.41725952452E-01  0.23366570451E-01 -0.85888215500E-02  0.48590952855E-01  0.51100000000E-03 0.  1.
</event>
<event>
 8    1  0.1086235E+005  0.1043930E+01  0.7957747E-01            NaN
         13   -1    0    0    0    0  0.00000000000E+00  0.00000000000E+00  0.74505805969E-08  0.10566000000E+00  0.10566000000E+00 0.  1.
     999900   -1    0    0    0    0 -0.00000000000E+00 -0.00000000000E+00 -0.74505805969E-08  0.93827000000E+00  0.93827000000E+00 0.  1.
     999902    2    1    2    0    0  0.11490601457E-01 -0.16933859010E-01  0.11581983838E-01  0.10204154970E+01  0.10201445263E+01 0.  0.
     999903    2    3    3    0    0 -0.11299068713E+00  0.29022671155E-01 -0.49511443873E-01  0.12837289666E+00  0.20469653243E-01 0.  0.
         14    1    1    2    0    0 -0.11490601457E-01  0.16933859010E-01 -0.11581983838E-01  0.23514503023E-01  0.00000000000E+00 0.  1.
     999901    1    3    3    0    0  0.12448128858E+00 -0.45956530165E-01  0.61093427711E-01  0.89204260032E+00  0.88000000000E+00 0. -1.
        -11    1    4    4    0    0 -0.26763597660E-01  0.57968044280E-02 -0.21377870483E-01  0.34744317070E-01  0.51100000000E-03 0. -1.
         11    1    4    4    0    0 -0.86227089468E-01  0.23225866727E-01 -0.28133573390E-01  0.93628579590E-01  0.51100000000E-03 0.  1.
</event>
<event>
 8    1  0.1086235E+005  0.1043930E+01  0.7957747E-01            NaN
         13   -1    0    0    0    0  0.00000000000E+00  0.00000000000E+00  0.74505805969E-08  0.10566000000E+00  0.10566000000E+00 0. -1.
     999900   -1    0    0    0    0 -0.00000000000E+00 -0.00000000000E+00 -0.74505805969E-08  0.93827000000E+00  0.93827000000E+00 0. -1.
     999902    2    1    2    0    0  0.17759476846E-02  0.70838794290E-02  0.22111427491E-01  0.10206437259E+01  0.10203780498E+01 0.  0.
     999903    2    3    3    0    0  0.97106001185E-01  0.16465103088E-01  0.87766778646E-01  0.13301404429E+00  0.17001572236E-01 0.  0.
         14    1    1    2    0    0 -0.17759476846E-02 -0.70838794290E-02 -0.22111427491E-01  0.23286274147E-01  0.00000000000E+00 0.  1.
     999901    1    3    3    0    0 -0.95330053501E-01 -0.93812236589E-02 -0.65655351155E-01  0.88762968156E+00  0.88000000000E+00 0. -1.
        -11    1    4    4    0    0  0.39576803609E-01  0.14919755361E-01  0.34287729501E-01  0.54450270884E-01  0.51100000000E-03 0.  1.
         11    1    4    4    0    0  0.57529197576E-01  0.15453477265E-02  0.53479049145E-01  0.78563773406E-01  0.51100000000E-03 0. -1.
</event>
<event>
 8    1  0.1086235E+005  0.1043930E+01  0.7957747E-01            NaN
         13   -1    0    0    0    0  0.00000000000E+00  0.00000000000E+00  0.74505805969E-08  0.10566000000E+00  0.10566000000E+00 0.  1.
     999900   -1    0    0    0    0 -0.00000000000E+00 -0.00000000000E+00 -0.74505805969E-08  0.93827000000E+00  0.93827000000E+00 0.  1.
     999902    2    1    2    0    0 -0.60118461507E-02  0.10555685801E-01  0.20055269809E-01  0.10204826410E+01  0.10202132336E+01 0.  0.
     999903    2    3    3    0    0 -0.64728964641E-01  0.13002562296E-01 -0.10910367182E+00  0.12911530964E+00  0.20205110495E-01 0.  0.
         14    1    1    2    0    0  0.60118461507E-02 -0.10555685801E-01 -0.20055269809E-01  0.23447358998E-01  0.00000000000E+00 0. -1.
     999901    1    3    3    0    0  0.58717118491E-01 -0.24468764950E-02  0.12915894163E+00  0.89136733136E+00  0.88000000000E+00 0. -1.
        -11    1    4    4    0    0 -0.21285208158E-01  0.21278440088E-02 -0.19536146163E-01  0.28974297823E-01  0.51100000000E-03 0. -1.
         11    1    4    4    0    0 -0.43443756484E-01  0.10874718287E-01 -0.89567525657E-01  0.10014101182E+00  0.51100000000E-03 0.  1.
</event>
<event>
 8    1  0.1086235E+005  0.1043930E+01  0.7957747E-01            NaN
         13   -1    0    0    0    0  0.00000000000E+00  0.00000000000E+00  0.74505805969E-08  0.10566000000E+00  0.10566000000E+00 0.  1.
     999900   -1    0    0    0    0 -0.00000000000E+00 -0.00000000000E+00 -0.74505805969E-08  0.93827000000E+00  0.93827000000E+00 0. -1.
     999902    2    1    2    0    0  0.11499806695E-01 -0.34531167600E-02  0.20863844190E-01  0.10198578259E+01  0.10195736931E+01 0.  0.
     999903    2    3    3    0    0 -0.40721727049E-01 -0.10461999096E+00  0.66993875981E-01  0.13132543776E+00  0.12433407478E-01 0.  0.
         14    1    1    2    0    0 -0.11499806695E-01  0.34531167600E-02 -0.20863844190E-01  0.24072174055E-01  0.00000000000E+00 0. -1.
     999901    1    3    3    0    0  0.52221533743E-01  0.10116687420E+00 -0.46130031792E-01  0.88853238819E+00  0.88000000000E+00 0.  1.
        -11    1    4    4    0    0 -0.16751981249E-01 -0.56235169504E-01  0.30318178903E-01  0.66049044338E-01  0.51100000000E-03 0.  1.
         11    1    4    4    0    0 -0.23969745799E-01 -0.48384821455E-01  0.36675697079E-01  0.65276393422E-01  0.51100000000E-03 0. -1.
</event>
<event>
 8    1  0.1086235E+005  0.1043930E+01  0.7957747E-01            NaN
         13   -1    0    0    0    0  0.00000000000E+00  0.00000000000E+00  0.74505805969E-08  0.10566000000E+00  0.10566000000E+00 0.  1.
     999900   -1    0    0    0    0 -0.00000000000E+00 -0.00000000000E+00 -0.74505805969E-08  0.93827000000E+00  0.93827000000E+00 0.  1.
     999902    2    1    2    0    0  0.41563901210E-03  0.10701213512E-01  0.21686134924E-01  0.10197436986E+01  0.10194568327E+01 0.  0.
     999903    2    3    3    0    0 -0.56108618177E-01  0.82353131546E-02 -0.11268334052E+00  0.12774805500E+00  0.20150258275E-01 0.  0.
         14    1    1    2    0    0 -0.41563901210E-03 -0.10701213512E-01 -0.21686134924E-01  0.24186301378E-01  0.00000000000E+00 0. -1.
     999901    1    3    3    0    0  0.56524257189E-01  0.24659003570E-02  0.13436947544E+00  0.89199564363E+00  0.88000000000E+00 0. -1.
        -11    1    4    4    0    0 -0.32975640724E-01  0.10546933975E-01 -0.83770238691E-01  0.90644055011E-01  0.51100000000E-03 0. -1.
         11    1    4    4    0    0 -0.23132977453E-01 -0.23116208208E-02 -0.28913101827E-01  0.37103999986E-01  0.51100000000E-03 0.  1.
</event>
<event>
 8    1  0.1086235E+005  0.1043930E+01  0.7957747E-01            NaN
         13   -1    0    0    0    0  0.00000000000E+00  0.00000000000E+00  0.74505805969E-08  0.10566000000E+00  0.10566000000E+00 0. -1.
     999900   -1    0    0    0    0 -0.00000000000E+00 -0.00000000000E+00 -0.74505805969E-08  0.93827000000E+00  0.93827000000E+00 0.  1.
     999902    2    1    2    0    0  0.22051930383E-01 -0.75679214012E-02  0.34730367321E-02  0.10203583422E+01  0.10200860373E+01 0.  0.
     999903    2    3    3    0    0 -0.99118509540E-01 -0.76727841402E-01  0.24485131787E-01  0.12911938535E+00  0.18990877142E-01 0.  0.
         14    1    1    2    0    0 -0.22051930383E-01  0.75679214012E-02 -0.34730367321E-02  0.23571657813E-01  0.00000000000E+00 0. -1.
     999901    1    3    3    0    0  0.12117043992E+00  0.69159920001E-01 -0.21012095055E-01  0.89123895684E+00  0.88000000000E+00 0.  1.
        -11    1    4    4    0    0 -0.23127570360E-01 -0.15993423346E-01 -0.23028720997E-02  0.28217697319E-01  0.51100000000E-03 0. -1.
         11    1    4    4    0    0 -0.75990939180E-01 -0.60734418057E-01  0.26788003887E-01  0.10090168803E+00  0.51100000000E-03 0.  1.
</event>
<event>
 8    1  0.1086235E+005  0.1043930E+01  0.7957747E-01            NaN
         13   -1    0    0    0    0  0.00000000000E+00  0.00000000000E+00  0.74505805969E-08  0.10566000000E+00  0.10566000000E+00 0. -1.
     999900   -1    0    0    0    0 -0.00000000000E+00 -0.00000000000E+00 -0.74505805969E-08  0.93827000000E+00  0.93827000000E+00 0. -1.
     999902    2    1    2    0    0  0.17054895240E-01  0.16831276157E-01 -0.41884817168E-02  0.10196050193E+01  0.10193148143E+01 0.  0.
     999903    2    3    3    0    0 -0.85072270290E-01 -0.66591645485E-01 -0.65494763016E-01  0.12767015509E+00  0.18394730187E-01 0.  0.
         14    1    1    2    0    0 -0.17054895240E-01 -0.16831276157E-01  0.41884817168E-02  0.24324980736E-01  0.00000000000E+00 0. -1.
     999901    1    3    3    0    0  0.10212716553E+00  0.83422921642E-01  0.61306281299E-01  0.89193486417E+00  0.88000000000E+00 0. -1.
        -11    1    4    4    0    0 -0.52509797237E-01 -0.33116314614E-01 -0.44956470855E-01  0.76650600077E-01  0.51100000000E-03 0. -1.
         11    1    4    4    0    0 -0.32562473053E-01 -0.33475330871E-01 -0.20538292161E-01  0.51019555017E-01  0.51100000000E-03 0.  1.
</event>
<event>
 8    1  0.1086235E+005  0.1043930E+01  0.7957747E-01            NaN
         13   -1    0    0    0    0  0.00000000000E+00  0.00000000000E+00  0.74505805969E-08  0.10566000000E+00  0.10566000000E+00 0. -1.
     999900   -1    0    0    0    0 -0.00000000000E+00 -0.00000000000E+00 -0.74505805969E-08  0.93827000000E+00  0.93827000000E+00 0. -1.
     999902    2    1    2    0    0 -0.13817808579E-01  0.14936668011E-01 -0.15396873621E-01  0.10184133466E+01  0.10180936327E+01 0.  0.
     999903    2    3    3    0    0 -0.80871720190E-01 -0.97638207668E-01 -0.77040131873E-02  0.12867826813E+00  0.20622564020E-01 0.  0.
         14    1    1    2    0    0  0.13817808579E-01 -0.14936668011E-01  0.15396873621E-01  0.25516653435E-01  0.00000000000E+00 0. -1.
     999901    1    3    3    0    0  0.67053911611E-01  0.11257487568E+00 -0.76928604336E-02  0.88973507844E+00  0.88000000000E+00 0. -1.
        -11    1    4    4    0    0 -0.34990648216E-01 -0.28582153167E-01 -0.72862548411E-02  0.45767188824E-01  0.51100000000E-03 0. -1.
         11    1    4    4    0    0 -0.45881071974E-01 -0.69056054501E-01 -0.41775834624E-03  0.82911079306E-01  0.51100000000E-03 0.  1.
</event>
<event>
 8    1  0.1086235E+005  0.1043930E+01  0.7957747E-01            NaN
         13   -1    0    0    0    0  0.00000000000E+00  0.00000000000E+00  0.74505805969E-08  0.10566000000E+00  0.10566000000E+00 0.  1.
     999900   -1    0    0    0    0 -0.00000000000E+00 -0.00000000000E+00 -0.74505805969E-08  0.93827000000E+00  0.93827000000E+00 0. -1.
     999902    2    1    2    0    0  0.59775766557E-02 -0.15280866400E-01 -0.69308510725E-02  0.10261178413E+01  0.10259632309E+01 0.  0.
     999903    2    3    3    0    0 -0.77223044264E-01 -0.97951050548E-01 -0.53449676734E-01  0.13711800790E+00  0.19664009706E-01 0.  0.
         14    1    1    2    0    0 -0.59775766557E-02  0.15280866400E-01  0.69308510725E-02  0.17812158690E-01  0.00000000000E+00 0. -1.
     999901    1    3    3    0    0  0.83200620920E-01  0.82670184148E-01  0.46518825661E-01  0.88899983341E+00  0.88000000000E+00 0.  1.
        -11    1    4    4    0    0 -0.14732230487E-01 -0.27731171545E-01 -0.20523880362E-01  0.37517293033E-01  0.51100000000E-03 0. -1.
         11    1    4    4    0    0 -0.62490813777E-01 -0.70219879003E-01 -0.32925796372E-01  0.99600714864E-01  0.51100000000E-03 0.  1.
</event>
<event>
 8    1  0.1086235E+005  0.1043930E+01  0.7957747E-01            NaN
         13   -1    0    0    0    0  0.00000000000E+00  0.00000000000E+00  0.74505805969E-08  0.10566000000E+00  0.10566000000E+00 0.  1.
     999900   -1    0    0    0    0 -0.00000000000E+00 -0.00000000000E+00 -0.74505805969E-08  0.93827000000E+00  0.93827000000E+00 0. -1.
     999902    2    1    2    0    0 -0.18288455652E-01  0.13117193321E-01  0.72047233061E-02  0.10202987409E+01  0.10200250410E+01 0.  0.
     999903    2    3    3    0    0  0.32584570048E-01  0.91587755476E-02  0.12489129880E+00  0.13099909289E+00  0.20427639336E-01 0.  0.
         14    1    1    2    0    0  0.18288455652E-01 -0.13117193321E-01 -0.72047233061E-02  0.23631259143E-01  0.00000000000E+00 0.  1.
     999901    1    3    3    0    0 -0.50873025700E-01  0.39584177730E-02 -0.11768657549E+00  0.88929964796E+00  0.88000000000E+00 0. -1.
        -11    1    4    4    0    0  0.33527314109E-01  0.45313520562E-02  0.97631251836E-01  0.10332829428E+00  0.51100000000E-03 0.  1.
         11    1    4    4    0    0 -0.94274406166E-03  0.46274234914E-02  0.27260046963E-01  0.27670798614E-01  0.51100000000E-03 0. -1.
</event>
<event>
 8    1  0.1086235E+005  0.1043930E+01  0.7957747E-01            NaN
         13   -1    0    0    0    0  0.00000000000E+00  0.00000000000E+00  0.74505805969E-08  0.10566000000E+00  0.10566000000E+00 0.  1.
     999900   -1    0    0    0    0 -0.00000000000E+00 -0.00000000000E+00 -0.74505805969E-08  0.93827000000E+00  0.93827000000E+00 0. -1.
     999902    2    1    2    0    0 -0.34491441093E-02 -0.17944032808E-01 -0.13988929960E-01  0.10209175019E+01  0.10206581066E+01 0.  0.
     999903    2    3    3    0    0 -0.46847862777E-02  0.10853006938E+00  0.65347773782E-01  0.12834171356E+00  0.20013513400E-01 0.  0.
         14    1    1    2    0    0  0.34491441093E-02  0.17944032808E-01  0.13988929960E-01  0.23012498125E-01  0.00000000000E+00 0.  1.
     999901    1    3    3    0    0  0.12356421684E-02 -0.12647410218E+00 -0.79336703742E-01  0.89257578832E+00  0.88000000000E+00 0. -1.
        -11    1    4    4    0    0 -0.10481790770E-01  0.31884835181E-01  0.21151619650E-01  0.39675720373E-01  0.51100000000E-03 0.  1.
         11    1    4    4    0    0  0.57970044918E-02  0.76645234195E-01  0.44196154132E-01  0.88665993182E-01  0.51100000000E-03 0. -1.
</event>
<event>
 8    1  0.1086235E+005  0.1043930E+01  0.7957747E-01            NaN
         13   -1    0    0    0    0  0.00000000000E+00  0.00000000000E+00  0.74505805969E-08  0.10566000000E+00  0.10566000000E+00 0. -1.
     999900   -1    0    0    0    0 -0.00000000000E+00 -0.00000000000E+00 -0.74505805969E-08  0.93827000000E+00  0.93827000000E+00 0. -1.
     999902    2    1    2    0    0  0.96892014772E-04  0.23124914508E-01  0.31142619414E-02  0.10205961258E+01  0.10203293499E+01 0.  0.
     999903    2    3    3    0    0 -0.47595317909E-01  0.83632896695E-01  0.89657757702E-01  0.13300075656E+00  0.19771495433E-01 0.  0.
         14    1    1    2    0    0 -0.96892014772E-04 -0.23124914508E-01 -0.31142619414E-02  0.23333874229E-01  0.00000000000E+00 0.  1.
     999901    1    3    3    0    0  0.47692209923E-01 -0.60507982186E-01 -0.86543495761E-01  0.88759536922E+00  0.88000000000E+00 0.  1.
        -11    1    4    4    0    0 -0.40383438370E-01  0.54614475022E-01  0.67683938957E-01  0.95890248150E-01  0.51100000000E-03 0.  1.
         11    1    4    4    0    0 -0.72118795389E-02  0.29018421673E-01  0.21973818746E-01  0.37110508406E-01  0.51100000000E-03 0. -1.
</event>
<event>
 7    1  0.1086235E+005  0.1043930E+01  0.7957747E-01            NaN
         13   -1    0    0    0    0  0.00000000000E+00  0.00000000000E+00  0.74505805969E-08  0.10566000000E+00  0.10566000000E+00 0.  1.
     999900   -1    0    0    0    0 -0.00000000000E+00 -0.00000000000E+00 -0.74505805969E-08  0.93827000000E+00  0.93827000000E+00 0. -1.
     999903    2    1    2    0    0  0.14982011561E-01 -0.63371979603E-01  0.85413871082E-01  0.10930174985E+00  0.20270043849E-01 0.  0.
         14    1    1    2    0    0 -0.93048936685E-02 -0.43223588241E-01 -0.19465961273E-02  0.44256625075E-01  0.00000000000E+00 0.  1.
     999901    1    1    2    0    0 -0.56771178927E-02  0.10659556784E+00 -0.83467274955E-01  0.89037162508E+00  0.88000000000E+00 0. -1.
        -11    1    3    3    0    0  0.19594720399E-02 -0.13980407695E-01  0.71243742070E-02  0.15821161741E-01  0.51100000000E-03 0.  1.
         11    1    3    3    0    0  0.13022539521E-01 -0.49391571908E-01  0.78289496875E-01  0.93480588109E-01  0.51100000000E-03 0. -1.
</event>
<event>
 8    1  0.1086235E+005  0.1043930E+01  0.7957747E-01            NaN
         13   -1    0    0    0    0  0.00000000000E+00  0.00000000000E+00  0.74505805969E-08  0.10566000000E+00  0.10566000000E+00 0.  1.
     999900   -1    0    0    0    0 -0.00000000000E+00 -0.00000000000E+00 -0.74505805969E-08  0.93827000000E+00  0.93827000000E+00 0. -1.
     999902    2    1    2    0    0  0.12243802857E-01 -0.21393474124E-01  0.21558431456E-02  0.10191865341E+01  0.10188861331E+01 0.  0.
     999903    2    3    3    0    0  0.83998458323E-01 -0.70374410345E-01  0.70531102457E-01  0.13226881598E+00  0.22629728979E-01 0.  0.
         14    1    1    2    0    0 -0.12243802857E-01  0.21393474124E-01 -0.21558431456E-02  0.24743465868E-01  0.00000000000E+00 0. -1.
     999901    1    3    3    0    0 -0.71754655466E-01  0.48980936220E-01 -0.68375259311E-01  0.88691771816E+00  0.88000000000E+00 0. -1.
        -11    1    4    4    0    0  0.39932726842E-01 -0.25154405579E-01  0.19435306560E-01  0.51042717944E-01  0.51100000000E-03 0. -1.
         11    1    4    4    0    0  0.44065731481E-01 -0.45220004766E-01  0.51095795897E-01  0.81226098031E-01  0.51100000000E-03 0.  1.
</event>
<event>
 8    1  0.1086235E+005  0.1043930E+01  0.7957747E-01            NaN
         13   -1    0    0    0    0  0.00000000000E+00  0.00000000000E+00  0.74505805969E-08  0.10566000000E+00  0.10566000000E+00 0. -1.
     999900   -1    0    0    0    0 -0.00000000000E+00 -0.00000000000E+00 -0.74505805969E-08  0.93827000000E+00  0.93827000000E+00 0.  1.
     999902    2    1    2    0    0 -0.64418516628E-02 -0.17333128450E-01  0.12230632572E-01  0.10217596782E+01  0.10215191221E+01 0.  0.
     999903    2    3    3    0    0 -0.86597668235E-01  0.22219664223E-01  0.96974621433E-01  0.13318164451E+00  0.18450030116E-01 0.  0.
         14    1    1    2    0    0  0.64418516628E-02  0.17333128450E-01 -0.12230632572E-01  0.22170321780E-01  0.00000000000E+00 0.  1.
     999901    1    3    3    0    0  0.80155816572E-01 -0.39552792673E-01 -0.84743988860E-01  0.88857803371E+00  0.88000000000E+00 0.  1.
        -11    1    4    4    0    0 -0.62172988878E-01  0.78344305470E-02  0.71397363600E-01  0.94998439450E-01  0.51100000000E-03 0.  1.
         11    1    4    4    0    0 -0.24424679357E-01  0.14385233676E-01  0.25577257832E-01  0.38183205063E-01  0.51100000000E-03 0. -1.
</event>
<event>
 8    1  0.1086235E+005  0.1043930E+01  0.7957747E-01            NaN
         13   -1    0    0    0    0  0.00000000000E+00  0.00000000000E+00  0.74505805969E-08  0.10566000000E+00  0.10566000000E+00 0. -1.
     999900   -1    0    0    0    0 -0.00000000000E+00 -0.00000000000E+00 -0.74505805969E-08  0.93827000000E+00  0.93827000000E+00 0.  1.
     999902    2    1    2    0    0  0.75558265507E-02 -0.21371220336E-01  0.72110064444E-02  0.10201430669E+01  0.10198657062E+01 0.  0.
     999903    2    3    3    0    0 -0.12094815739E-01 -0.74522632366E-01 -0.10523365129E+00  0.13118017598E+00  0.20837703891E-01 0.  0.
         14    1    1    2    0    0 -0.75558265507E-02  0.21371220336E-01 -0.72110064444E-02  0.23786933124E-01  0.00000000000E+00 0.  1.
     999901    1    3    3    0    0  0.19650642290E-01  0.53151412030E-01  0.11244465773E+00  0.88896289090E+00  0.88000000000E+00 0. -1.
        -11    1    4    4    0    0  0.27183736199E-02 -0.45058388978E-01 -0.56195947923E-01  0.72082547516E-01  0.51100000000E-03 0. -1.
         11    1    4    4    0    0 -0.14813189359E-01 -0.29464243388E-01 -0.49037703365E-01  0.59097628461E-01  0.51100000000E-03 0.  1.
</event>
<event>
 8    1  0.1086235E+005  0.1043930E+01  0.7957747E-01            NaN
         13   -1    0    0    0    0  0.00000000000E+00  0.00000000000E+00  0.74505805969E-08  0.10566000000E+00  0.10566000000E+00 0. -1.
     999900   -1    0    0    0    0 -0.00000000000E+00 -0.00000000000E+00 -0.74505805969E-08  0.93827000000E+00  0.93827000000E+00 0. -1.
     999902    2    1    2    0    0  0.17883153430E-01  0.15165672927E-01 -0.28700176463E-02  0.10203070913E+01  0.10200335871E+01 0.  0.
     999903    2    3    3    0    0 -0.17631859298E-01 -0.99622822030E-01 -0.77627335096E-01  0.12900109944E+00  0.19485670895E-01 0.  0.
         14    1    1    2    0    0 -0.17883153430E-01 -0.15165672927E-01  0.28700176463E-02  0.23622908653E-01  0.00000000000E+00 0.  1.
     999901    1    3    3    0    0  0.35515012728E-01  0.11478849496E+00  0.74757317449E-01  0.89130599191E+00  0.88000000000E+00 0.  1.
        -11    1    4    4    0    0 -0.16868197757E-01 -0.75015826004E-01 -0.67713154197E-01  0.10245605213E+00  0.51100000000E-03 0. -1.
         11    1    4    4    0    0 -0.76366154014E-03 -0.24606996026E-01 -0.99141808989E-02  0.26545047302E-01  0.51100000000E-03 0.  1.
</event>
<event>
 8    1  0.1086235E+005  0.1043930E+01  0.7957747E-01            NaN
         13   -1    0    0    0    0  0.00000000000E+00  0.00000000000E+00  0.74505805969E-08  0.10566000000E+00  0.10566000000E+00 0.  1.
     999900   -1    0    0    0    0 -0.00000000000E+00 -0.00000000000E+00 -0.74505805969E-08  0.93827000000E+00  0.93827000000E+00 0. -1.
     999902    2    1    2    0    0 -0.50065505821E-02 -0.10008756677E-01  0.20906351690E-01  0.10202167906E+01  0.10199411667E+01 0.  0.
     999903    2    3    3    0    0  0.45327508533E-01  0.10180399548E+00 -0.59854067217E-01  0.12805208926E+00  0.19904564238E-01 0.  0.
         14    1    1    2    0    0  0.50065505821E-02  0.10008756677E-01 -0.20906351690E-01  0.23713209397E-01  0.00000000000E+00 0. -1.
     999901    1    3    3    0    0 -0.50334059115E-01 -0.11181275216E+00  0.80760418907E-01  0.89216470134E+00  0.88000000000E+00 0.  1.
        -11    1    4    4    0    0  0.31990479268E-01  0.88464724025E-01 -0.53004451946E-01  0.10797745694E+00  0.51100000000E-03 0. -1.
         11    1    4    4    0    0  0.13337029265E-01  0.13339271453E-01 -0.68496152713E-02  0.20074632322E-01  0.51100000000E-03 0.  1.
</event>
<event>
 8    1  0.1086235E+005  0.1043930E+01  0.7957747E-01            NaN
         13   -1    0    0    0    0  0.00000000000E+00  0.00000000000E+00  0.74505805969E-08  0.10566000000E+00  0.10566000000E+00 0.  1.
     999900   -1    0    0    0    0 -0.00000000000E+00 -0.00000000000E+00 -0.74505805969E-08  0.93827000000E+00  0.93827000000E+00 0. -1.
     999902    2    1    2    0    0  0.22905461100E-01 -0.14702833800E-02 -0.66670652321E-03  0.10209677183E+01  0.10207094668E+01 0.  0.
     999903    2    3    3    0    0  0.50973989503E-01  0.52532338274E-01 -0.10833092920E+00  0.13231946944E+00  0.20368053437E-01 0.  0.
         14    1    1    2    0    0 -0.22905461100E-01  0.14702833800E-02  0.66670652321E-03  0.22962281660E-01  0.00000000000E+00 0. -1.
     999901    1    3    3    0    0 -0.28068528403E-01 -0.54002621654E-01  0.10766422268E+00  0.88864824890E+00  0.88000000000E+00 0.  1.
        -11    1    4    4    0    0  0.85882798970E-02  0.22307754802E-01 -0.35049080870E-01  0.42427510730E-01  0.51100000000E-03 0.  1.
         11    1    4    4    0    0  0.42385709606E-01  0.30224583472E-01 -0.73281848329E-01  0.89891958709E-01  0.51100000000E-03 0. -1.
</event>
<event>
 8    1  0.1086235E+005  0.1043930E+01  0.7957747E-01            NaN
         13   -1    0    0    0    0  0.00000000000E+00  0.00000000000E+00  0.74505805969E-08  0.10566000000E+00  0.10566000000E+00 0.  1.
     999900   -1    0    0    0    0 -0.00000000000E+00 -0.00000000000E+00 -0.74505805969E-08  0.93827000000E+00  0.93827000000E+00 0. -1.
     999902    2    1    2    0    0  0.21951062017E-02 -0.23122224332E-01 -0.20188647780E-02  0.10206162366E+01  0.10203499257E+01 0.  0.
     999903    2    3    3    0    0 -0.44500789864E-01 -0.62490539086E-01 -0.10551634092E+00  0.13244840421E+00  0.22879986948E-01 0.  0.
         14    1    1    2    0    0 -0.21951062017E-02  0.23122224332E-01  0.20188647780E-02  0.23313763409E-01  0.00000000000E+00 0.  1.
     999901    1    3    3    0    0  0.46695896066E-01  0.39368314754E-01  0.10349747614E+00  0.88816783238E+00  0.88000000000E+00 0.  1.
        -11    1    4    4    0    0 -0.21277335703E-01 -0.48331026697E-01 -0.71638000072E-01  0.88999310849E-01  0.51100000000E-03 0. -1.
         11    1    4    4    0    0 -0.23223454161E-01 -0.14159512389E-01 -0.33878340844E-01  0.43449093358E-01  0.51100000000E-03 0.  1.
</event>
<event>
 8    1  0.1086235E+005  0.1043930E+01  0.7957747E-01            NaN
         13   -1    0    0    0    0  0.00000000000E+00  0.00000000000E+00  0.74505805969E-08  0.10566000000E+00  0.10566000000E+00 0. -1.
     999900   -1    0    0    0    0 -0.00000000000E+00 -0.00000000000E+00 -0.74505805969E-08  0.93827000000E+00  0.93827000000E+00 0.  1.
     999902    2    1    2    0    0  0.19777944651E-01  0.12200414441E-01  0.30613565544E-03  0.10206897133E+01  0.10204250976E+01 0.  0.
     999903    2    3    3    0    0  0.14045607009E-01 -0.52024552275E-01 -0.11717584978E+00  0.13054381349E+00  0.20190947302E-01 0.  0.
         14    1    1    2    0    0 -0.19777944651E-01 -0.12200414441E-01 -0.30613565544E-03  0.23240286706E-01  0.00000000000E+00 0.  1.
     999901    1    3    3    0    0  0.57323376424E-02  0.64224966716E-01  0.11748198543E+00  0.89014589981E+00  0.88000000000E+00 0. -1.
        -11    1    4    4    0    0 -0.22028511424E-02 -0.14191300411E-01 -0.17157352437E-01  0.22380380340E-01  0.51100000000E-03 0. -1.
         11    1    4    4    0    0  0.16248458151E-01 -0.37833251864E-01 -0.10001849734E+00  0.10816343314E+00  0.51100000000E-03 0.  1.
</event>
<event>
 8    1  0.1086235E+005  0.1043930E+01  0.7957747E-01            NaN
         13   -1    0    0    0    0  0.00000000000E+00  0.00000000000E+00  0.74505805969E-08  0.10566000000E+00  0.10566000000E+00 0.  1.
     999900   -1    0    0    0    0 -0.00000000000E+00 -0.00000000000E+00 -0.74505805969E-08  0.93827000000E+00  0.93827000000E+00 0. -1.
     999902    2    1    2    0    0  0.10589158267E-01  0.21724911619E-01 -0.90185282480E-03  0.10197449758E+01  0.10194581405E+01 0.  0.
     999903    2    3    3    0    0 -0.91204017291E-01  0.45198965544E-01  0.78448922933E-01  0.13002062105E+00  0.19748648885E-01 0.  0.
         14    1    1    2    0    0 -0.10589158267E-01 -0.21724911619E-01  0.90185282480E-03  0.24185024212E-01  0.00000000000E+00 0. -1.
     999901    1    3    3    0    0  0.10179317556E+00 -0.23474053926E-01 -0.79350775758E-01  0.88972435474E+00  0.88000000000E+00 0. -1.
        -11    1    4    4    0    0 -0.38697880689E-01  0.26794848615E-01  0.44879001572E-01  0.65037495226E-01  0.51100000000E-03 0.  1.
         11    1    4    4    0    0 -0.52506136602E-01  0.18404116929E-01  0.33569921361E-01  0.64983125825E-01  0.51100000000E-03 0. -1.
</event>
<event>
 8    1  0.1086235E+005  0.1043930E+01  0.7957747E-01            NaN
         13   -1    0    0    0    0  0.00000000000E+00  0.00000000000E+00  0.74505805969E-08  0.10566000000E+00  0.10566000000E+00 0. -1.
     999900   -1    0    0    0    0 -0.00000000000E+00 -0.00000000000E+00 -0.74505805969E-08  0.93827000000E+00  0.93827000000E+00 0.  1.
     999902    2    1    2    0    0  0.18812501453E-01  0.14188362976E-01  0.79258941668E-02  0.10190695967E+01  0.10187663143E+01 0.  0.
     999903    2    3    3    0    0 -0.80455658415E-01 -0.54905229365E-01  0.80430591856E-01  0.12784290091E+00  0.19673078666E-01 0.  0.
         14    1    1    2    0    0 -0.18812501453E-01 -0.14188362976E-01 -0.79258941668E-02  0.24860403320E-01  0.00000000000E+00 0.  1.
     999901    1    3    3    0    0  0.99268159868E-01  0.69093592341E-01 -0.72504697690E-01  0.89122669577E+00  0.88000000000E+00 0.  1.
        -11    1    4    4    0    0 -0.60315591923E-01 -0.37581946439E-01  0.68538390422E-01  0.98732696762E-01  0.51100000000E-03 0.  1.
         11    1    4    4    0    0 -0.20140066491E-01 -0.17323282926E-01  0.11892201434E-01  0.29110204148E-01  0.51100000000E-03 0. -1.
</event>
<event>
 8    1  0.1086235E+005  0.1043930E+01  0.7957747E-01            NaN
         13   -1    0    0    0    0  0.00000000000E+00  0.00000000000E+00  0.74505805969E-08  0.10566000000E+00  0.10566000000E+00 0. -1.
     999900   -1    0    0    0    0 -0.00000000000E+00 -0.00000000000E+00 -0.74505805969E-08  0.93827000000E+00  0.93827000000E+00 0. -1.
     999902    2    1    2    0    0  0.18394919588E-02  0.12255545350E-01  0.21422938639E-01  0.10191807693E+01  0.10188802265E+01 0.  0.
     999903    2    3    3    0    0 -0.68335112762E-01  0.10817316191E+00 -0.14826945091E-01  0.13045206015E+00  0.20658681047E-01 0.  0.
         14    1    1    2    0    0 -0.18394919588E-02 -0.12255545350E-01 -0.21422938639E-01  0.24749230744E-01  0.00000000000E+00 0.  1.
     999901    1    3    3    0    0  0.70174604721E-01 -0.95917616563E-01  0.36249883730E-01  0.88872870910E+00  0.88000000000E+00 0.  1.
        -11    1    4    4    0    0 -0.48364550852E-01  0.82106710081E-01 -0.23564436460E-02  0.95322901587E-01  0.51100000000E-03 0. -1.
         11    1    4    4    0    0 -0.19970561911E-01  0.26066451832E-01 -0.12470501445E-01  0.35129158564E-01  0.51100000000E-03 0.  1.
</event>
<event>
 8    1  0.1086235E+005  0.1043930E+01  0.7957747E-01            NaN
         13   -1    0    0    0    0  0.00000000000E+00  0.00000000000E+00  0.74505805969E-08  0.10566000000E+00  0.10566000000E+00 0.  1.
     999900   -1    0    0    0    0 -0.00000000000E+00 -0.00000000000E+00 -0.74505805969E-08  0.93827000000E+00  0.93827000000E+00 0. -1.
     999902    2    1    2    0    0 -0.23120926866E-01  0.30319016139E-02 -0.34418789810E-02  0.10203584872E+01  0.10200861856E+01 0.  0.
     999903    2    3    3    0    0 -0.72058085176E-01  0.10405437708E+00 -0.34269780202E-01  0.13269258971E+00  0.20327924095E-01 0.  0.
         14    1    1    2    0    0  0.23120926866E-01 -0.30319016139E-02  0.34418789810E-02  0.23571512838E-01  0.00000000000E+00 0. -1.
     999901    1    3    3    0    0  0.48937158310E-01 -0.10102247547E+00  0.30827901221E-01  0.88766589746E+00  0.88000000000E+00 0.  1.
        -11    1    4    4    0    0 -0.49520656731E-01  0.62781595270E-01 -0.12743936872E-01  0.80972175441E-01  0.51100000000E-03 0.  1.
         11    1    4    4    0    0 -0.22537428446E-01  0.41272781814E-01 -0.21525843330E-01  0.51720414265E-01  0.51100000000E-03 0. -1.
</event>
<event>
 8    1  0.1086235E+005  0.1043930E+01  0.7957747E-01            NaN
         13   -1    0    0    0    0  0.00000000000E+00  0.00000000000E+00  0.74505805969E-08  0.10566000000E+00  0.10566000000E+00 0.  1.
     999900   -1    0    0    0    0 -0.00000000000E+00 -0.00000000000E+00 -0.74505805969E-08  0.93827000000E+00  0.93827000000E+00 0. -1.
     999902    2    1    2    0    0 -0.11870949251E-02  0.23426512444E-01  0.31809966499E-02  0.10202587216E+01  0.10199840830E+01 0.  0.
     999903    2    3    3    0    0 -0.11520331041E+00  0.79446126589E-02 -0.57381550056E-01  0.13070422152E+00  0.21354897242E-01 0.  0.
         14    1    1    2    0    0  0.11870949251E-02 -0.23426512444E-01 -0.31809966499E-02  0.23671278363E-01  0.00000000000E+00 0.  1.
     999901    1    3    3    0    0  0.11401621549E+00  0.15481899785E-01  0.60562546706E-01  0.88955450012E+00  0.88000000000E+00 0. -1.
        -11    1    4    4    0    0 -0.54218934382E-01  0.96393805746E-02 -0.37136780943E-01  0.66422978879E-01  0.51100000000E-03 0. -1.
         11    1    4    4    0    0 -0.60984376030E-01 -0.16947679158E-02 -0.20244769114E-01  0.64281242641E-01  0.51100000000E-03 0.  1.
</event>
<event>
 7    1  0.1637763E+005  0.1043930E+01  0.7957747E-01            NaN
         13   -1    0    0    0    0  0.00000000000E+00  0.00000000000E+00  0.74505805969E-08  0.10566000000E+00  0.10566000000E+00 0.  1.
     999900   -1    0    0    0    0 -0.00000000000E+00 -0.00000000000E+00 -0.74505805969E-08  0.93827000000E+00  0.93827000000E+00 0. -1.
     999903    2    1    2    0    0  0.18809665407E-01  0.42286275435E-01 -0.10511005254E+00  0.11651471564E+00  0.19637291363E-01 0.  0.
         14    1    1    2    0    0  0.26802690663E-01 -0.25186965092E-01 -0.11150477146E-01  0.38433066205E-01  0.00000000000E+00 0. -1.
     999901    1    1    2    0    0 -0.45612356070E-01 -0.17099310343E-01  0.11626052969E+00  0.88898221816E+00  0.88000000000E+00 0.  1.
        -11    1    3    3    0    0  0.66575422467E-04  0.24143447432E-01 -0.52701998158E-01  0.57971305118E-01  0.51100000000E-03 0.  1.
         11    1    3    3    0    0  0.18743089985E-01  0.18142828003E-01 -0.52408054381E-01  0.58543410518E-01  0.51100000000E-03 0. -1.
</event>
<event>
 8    1  0.1086235E+005  0.1043930E+01  0.7957747E-01            NaN
         13   -1    0    0    0    0  0.00000000000E+00  0.00000000000E+00  0.74505805969E-08  0.10566000000E+00  0.10566000000E+00 0.  1.
     999900   -1    0    0    0    0 -0.00000000000E+00 -0.00000000000E+00 -0.74505805969E-08  0.93827000000E+00  0.93827000000E+00 0. -1.
     999902    2    1    2    0    0  0.16396772924E-01 -0.21430956544E-01  0.10796278409E-02  0.10169243403E+01  0.10165656930E+01 0.  0.
     999903    2    3    3    0    0  0.69950907059E-01  0.28216475413E-01 -0.10164530711E+00  0.12794440516E+00  0.18673603606E-01 0.  0.
         14    1    1    2    0    0 -0.16396772924E-01  0.21430956544E-01 -0.10796278409E-02  0.27005659722E-01  0.00000000000E+00 0. -1.
     999901    1    3    3    0    0 -0.53554134135E-01 -0.49647431957E-01  0.10272493495E+00  0.88897993512E+00  0.88000000000E+00 0.  1.
        -11    1    4    4    0    0  0.14198582161E-01 -0.33788744340E-03 -0.26880186795E-01  0.30405911703E-01  0.51100000000E-03 0. -1.
         11    1    4    4    0    0  0.55752324898E-01  0.28554362856E-01 -0.74765120313E-01  0.97538493458E-01  0.51100000000E-03 0.  1.
</event>
<event>
 8    1  0.1086235E+005  0.1043930E+01  0.7957747E-01            NaN
         13   -1    0    0    0    0  0.00000000000E+00  0.00000000000E+00  0.74505805969E-08  0.10566000000E+00  0.10566000000E+00 0. -1.
     999900   -1    0    0    0    0 -0.00000000000E+00 -0.00000000000E+00 -0.74505805969E-08  0.93827000000E+00  0.93827000000E+00 0.  1.
     999902    2    1    2    0    0 -0.70266541768E-02 -0.10371452670E-01  0.19734528380E-01  0.10205549597E+01  0.10202872307E+01 0.  0.
     999903    2    3    3    0    0  0.15540416331E-01 -0.12300459117E+00 -0.37959408034E-01  0.13121583041E+00  0.20125692619E-01 0.  0.
         14    1    1    2    0    0  0.70266541768E-02  0.10371452670E-01 -0.19734528380E-01  0.23375040317E-01  0.00000000000E+00 0.  1.
     999901    1    3    3    0    0 -0.22567070508E-01  0.11263313850E+00  0.57693936414E-01  0.88933912927E+00  0.88000000000E+00 0. -1.
        -11    1    4    4    0    0 -0.36823927961E-02 -0.35436842075E-01 -0.66143571002E-02  0.36240041858E-01  0.51100000000E-03 0.  1.
         11    1    4    4    0    0  0.19222809127E-01 -0.87567749093E-01 -0.31345050934E-01  0.94975788552E-01  0.51100000000E-03 0. -1.
</event>
<event>
 8    1  0.1086235E+005  0.1043930E+01  0.7957747E-01            NaN
         13   -1    0    0    0    0  0.00000000000E+00  0.00000000000E+00  0.74505805969E-08  0.10566000000E+00  0.10566000000E+00 0.  1.
     999900   -1    0    0    0    0 -0.00000000000E+00 -0.00000000000E+00 -0.74505805969E-08  0.93827000000E+00  0.93827000000E+00 0. -1.
     999902    2    1    2    0    0 -0.11767459545E-01 -0.51293237897E-02 -0.16331201937E-01  0.10231576332E+01  0.10229467489E+01 0.  0.
     999903    2    3    3    0    0  0.32311674633E-03 -0.12721089444E+00 -0.38341233200E-01  0.13437502005E+00  0.20096760448E-01 0.  0.
         14    1    1    2    0    0  0.11767459545E-01  0.51293237897E-02  0.16331201937E-01  0.20772366822E-01  0.00000000000E+00 0.  1.
     999901    1    3    3    0    0 -0.12090576291E-01  0.12208157065E+00  0.22010031263E-01  0.88878261313E+00  0.88000000000E+00 0.  1.
        -11    1    4    4    0    0 -0.20801460590E-02 -0.11182360982E+00 -0.39823549266E-01  0.11872246172E+00  0.51100000000E-03 0.  1.
         11    1    4    4    0    0  0.24032628053E-02 -0.15387284622E-01  0.14823160665E-02  0.15652558323E-01  0.51100000000E-03 0. -1.
</event>
<event>
 8    1  0.1086235E+005  0.1043930E+01  0.7957747E-01            NaN
         13   -1    0    0    0    0  0.00000000000E+00  0.00000000000E+00  0.74505805969E-08  0.10566000000E+00  0.10566000000E+00 0.  1.
     999900   -1    0    0    0    0 -0.00000000000E+00 -0.00000000000E+00 -0.74505805969E-08  0.93827000000E+00  0.93827000000E+00 0.  1.
     999902    2    1    2    0    0  0.17989679538E-01 -0.49896898581E-02  0.16900005669E-01  0.10187479475E+01  0.10184366671E+01 0.  0.
     999903    2    3    3    0    0 -0.80547393145E-01  0.93142293445E-01  0.27435316647E-01  0.12776510055E+00  0.20195419008E-01 0.  0.
         14    1    1    2    0    0 -0.17989679538E-01  0.49896898581E-02 -0.16900005669E-01  0.25182052465E-01  0.00000000000E+00 0. -1.
     999901    1    3    3    0    0  0.98537072683E-01 -0.98131983303E-01 -0.10535310978E-01  0.89098284698E+00  0.88000000000E+00 0.  1.
        -11    1    4    4    0    0 -0.79247871735E-01  0.83834094275E-01  0.25775363100E-01  0.11820749131E+00  0.51100000000E-03 0.  1.
         11    1    4    4    0    0 -0.12995214105E-02  0.93081991702E-02  0.16599535461E-02  0.95576092441E-02  0.51100000000E-03 0. -1.
</event>
<event>
 8    1  0.1086235E+005  0.1043930E+01  0.7957747E-01            NaN
         13   -1    0    0    0    0  0.00000000000E+00  0.00000000000E+00  0.74505805969E-08  0.10566000000E+00  0.10566000000E+00 0.  1.
     999900   -1    0    0    0    0 -0.00000000000E+00 -0.00000000000E+00 -0.74505805969E-08  0.93827000000E+00  0.93827000000E+00 0. -1.
     999902    2    1    2    0    0 -0.87590897846E-02 -0.65454773694E-02  0.21097445220E-01  0.10201672745E+01  0.10198904847E+01 0.  0.
     999903    2    3    3    0    0  0.23827529797E-01 -0.49035311996E-01  0.11966254159E+00  0.13304701657E+00  0.20252697624E-01 0.  0.
         14    1    1    2    0    0  0.87590897846E-02  0.65454773694E-02 -0.21097445220E-01  0.23762725489E-01  0.00000000000E+00 0. -1.
     999901    1    3    3    0    0 -0.32586619581E-01  0.42489834627E-01 -0.98565096367E-01  0.88712025794E+00  0.88000000000E+00 0. -1.
        -11    1    4    4    0    0  0.13462100108E-01 -0.30784181338E-01  0.49635478393E-01  0.59940268570E-01  0.51100000000E-03 0. -1.
         11    1    4    4    0    0  0.10365429689E-01 -0.18251130659E-01  0.70027063194E-01  0.73106748002E-01  0.51100000000E-03 0.  1.
</event>
<event>
 8    1  0.1086235E+005  0.1043930E+01  0.7957747E-01            NaN
         13   -1    0    0    0    0  0.00000000000E+00  0.00000000000E+00  0.74505805969E-08  0.10566000000E+00  0.10566000000E+00 0.  1.
     999900   -1    0    0    0    0 -0.00000000000E+00 -0.00000000000E+00 -0.74505805969E-08  0.93827000000E+00  0.93827000000E+00 0. -1.
     999902    2    1    2    0    0 -0.78319557930E-02  0.40750960246E-02  0.20262357408E-01  0.10218277588E+01  0.10215886939E+01 0.  0.
     999903    2    3    3    0    0  0.11948936541E+00 -0.49100301817E-01  0.55595321790E-02  0.13095486390E+00  0.20729686319E-01 0.  0.
         14    1    1    2    0    0  0.78319557930E-02 -0.40750960246E-02 -0.20262357408E-01  0.22102241218E-01  0.00000000000E+00 0. -1.
     999901    1    3    3    0    0 -0.12732132121E+00  0.53175397841E-01  0.14702825229E-01  0.89087289488E+00  0.88000000000E+00 0. -1.
        -11    1    4    4    0    0  0.78917882350E-01 -0.41708753365E-01  0.81282172464E-02  0.89632479038E-01  0.51100000000E-03 0. -1.
         11    1    4    4    0    0  0.40571483064E-01 -0.73915484520E-02 -0.25686850673E-02  0.41322384860E-01  0.51100000000E-03 0.  1.
</event>
<event>
 8    1  0.1086235E+005  0.1043930E+01  0.7957747E-01            NaN
         13   -1    0    0    0    0  0.00000000000E+00  0.00000000000E+00  0.74505805969E-08  0.10566000000E+00  0.10566000000E+00 0. -1.
     999900   -1    0    0    0    0 -0.00000000000E+00 -0.00000000000E+00 -0.74505805969E-08  0.93827000000E+00  0.93827000000E+00 0. -1.
     999902    2    1    2    0    0 -0.83833360878E-04  0.20729045647E-01  0.10092095889E-01  0.10208746154E+01  0.10206142413E+01 0.  0.
     999903    2    3    3    0    0 -0.12468552268E+00 -0.26147491412E-01  0.22111204403E-01  0.13078054748E+00  0.19608043417E-01 0.  0.
         14    1    1    2    0    0  0.83833360878E-04 -0.20729045647E-01 -0.10092095889E-01  0.23055384640E-01  0.00000000000E+00 0. -1.
     999901    1    3    3    0    0  0.12460168932E+00  0.46876537059E-01 -0.12019108514E-01  0.89009406788E+00  0.88000000000E+00 0.  1.
        -11    1    4    4    0    0 -0.45057412707E-01 -0.60394940011E-03  0.42179733981E-02  0.45261325823E-01  0.51100000000E-03 0. -1.
         11    1    4    4    0    0 -0.79628109970E-01 -0.25543542012E-01  0.17893231005E-01  0.85519221656E-01  0.51100000000E-03 0.  1.
</event>
<event>
 8    1  0.1086235E+005  0.1043930E+01  0.7957747E-01            NaN
         13   -1    0    0    0    0  0.00000000000E+00  0.00000000000E+00  0.74505805969E-08  0.10566000000E+00  0.10566000000E+00 0.  1.
     999900   -1    0    0    0    0 -0.00000000000E+00 -0.00000000000E+00 -0.74505805969E-08  0.93827000000E+00  0.93827000000E+00 0.  1.
     999902    2    1    2    0    0 -0.21070882231E-01 -0.11040558963E-01  0.18982194536E-02  0.10200662355E+01  0.10197870589E+01 0.  0.
     999903    2    3    3    0    0  0.22913707607E-01 -0.95527358546E-01 -0.84301949512E-01  0.13073888709E+00  0.18311845352E-01 0.  0.
         14    1    1    2    0    0  0.21070882231E-01  0.11040558963E-01 -0.18982194536E-02  0.23863764525E-01  0.00000000000E+00 0. -1.
     999901    1    3    3    0    0 -0.43984589837E-01  0.84486799583E-01  0.86200168965E-01  0.88932734838E+00  0.88000000000E+00 0. -1.
        -11    1    4    4    0    0  0.66631320083E-02 -0.65144692649E-02 -0.61603167448E-02  0.11182408567E-01  0.51100000000E-03 0.  1.
         11    1    4    4    0    0  0.16250575598E-01 -0.89012889281E-01 -0.78141632767E-01  0.11955647853E+00  0.51100000000E-03 0. -1.
</event>
<event>
 8    1  0.1086235E+005  0.1043930E+01  0.7957747E-01            NaN
         13   -1    0    0    0    0  0.00000000000E+00  0.00000000000E+00  0.74505805969E-08  0.10566000000E+00  0.10566000000E+00 0.  1.
     999900   -1    0    0    0    0 -0.00000000000E+00 -0.00000000000E+00 -0.74505805969E-08  0.93827000000E+00  0.93827000000E+00 0. -1.
     999902    2    1    2    0    0  0.70866457380E-02  0.10995979583E-01 -0.16596737683E-01  0.10227974702E+01  0.10225791320E+01 0.  0.
     999903    2    3    3    0    0  0.91894199675E-01 -0.81579905700E-01  0.43486380086E-01  0.13185830459E+00  0.19892769761E-01 0.  0.
         14    1    1    2    0    0 -0.70866457380E-02 -0.10995979583E-01  0.16596737683E-01  0.21132529819E-01  0.00000000000E+00 0. -1.
     999901    1    3    3    0    0 -0.84807553937E-01  0.92575885284E-01 -0.60083117770E-01  0.89093916559E+00  0.88000000000E+00 0. -1.
        -11    1    4    4    0    0  0.18568709204E-01 -0.10301686446E-01  0.13965203949E-01  0.25420655921E-01  0.51100000000E-03 0.  1.
         11    1    4    4    0    0  0.73325490471E-01 -0.71278219255E-01  0.29521176137E-01  0.10643764867E+00  0.51100000000E-03 0. -1.
</event>
<event>
 8    1  0.1086235E+005  0.1043930E+01  0.7957747E-01            NaN
         13   -1    0    0    0    0  0.00000000000E+00  0.00000000000E+00  0.74505805969E-08  0.10566000000E+00  0.10566000000E+00 0.  1.
     999900   -1    0    0    0    0 -0.00000000000E+00 -0.00000000000E+00 -0.74505805969E-08  0.93827000000E+00  0.93827000000E+00 0. -1.
     999902    2    1    2    0    0  0.12356817836E-01 -0.13171983715E-01  0.15903065340E-01  0.10198655119E+01  0.10195815626E+01 0.  0.
     999903    2    3    3    0    0 -0.11068761223E+00 -0.24086495035E-01  0.60802087122E-01  0.13010431891E+00  0.19958287892E-01 0.  0.
         14    1    1    2    0    0 -0.12356817836E-01  0.13171983715E-01 -0.15903065340E-01  0.24064488136E-01  0.00000000000E+00 0. -1.
     999901    1    3    3    0    0  0.12304443007E+00  0.10914511320E-01 -0.44899021782E-01  0.88976119295E+00  0.88000000000E+00 0. -1.
        -11    1    4    4    0    0 -0.81753661018E-01 -0.20669207889E-01  0.35434907044E-01  0.91470055225E-01  0.51100000000E-03 0. -1.
         11    1    4    4    0    0 -0.28933951216E-01 -0.34172871461E-02  0.25367180078E-01  0.38634263686E-01  0.51100000000E-03 0.  1.
</event>
<event>
 8    1  0.1086235E+005  0.1043930E+01  0.7957747E-01            NaN
         13   -1    0    0    0    0  0.00000000000E+00  0.00000000000E+00  0.74505805969E-08  0.10566000000E+00  0.10566000000E+00 0.  1.
     999900   -1    0    0    0    0 -0.00000000000E+00 -0.00000000000E+00 -0.74505805969E-08  0.93827000000E+00  0.93827000000E+00 0.  1.
     999902    2    1    2    0    0  0.10500441611E-01  0.11072711851E-01  0.19332955619E-01  0.10193001930E+01  0.10190025790E+01 0.  0.
     999903    2    3    3    0    0 -0.35141516582E-01  0.74220838070E-01  0.10145048485E+00  0.13204929113E+00  0.20028864666E-01 0.  0.
         14    1    1    2    0    0 -0.10500441611E-01 -0.11072711851E-01 -0.19332955619E-01  0.24629807038E-01  0.00000000000E+00 0. -1.
     999901    1    3    3    0    0  0.45641958194E-01 -0.63148126219E-01 -0.82117529233E-01  0.88725090183E+00  0.88000000000E+00 0.  1.
        -11    1    4    4    0    0 -0.37184152710E-01  0.64772750461E-01  0.92245473000E-01  0.11869144377E+00  0.51100000000E-03 0. -1.
         11    1    4    4    0    0  0.20426361275E-02  0.94480876087E-02  0.92050118525E-02  0.13357847357E-01  0.51100000000E-03 0.  1.
</event>
<event>
 8    1  0.1086235E+005  0.1043930E+01  0.7957747E-01            NaN
         13   -1    0    0    0    0  0.00000000000E+00  0.00000000000E+00  0.74505805969E-08  0.10566000000E+00  0.10566000000E+00 0.  1.
     999900   -1    0    0    0    0 -0.00000000000E+00 -0.00000000000E+00 -0.74505805969E-08  0.93827000000E+00  0.93827000000E+00 0.  1.
     999902    2    1    2    0    0 -0.18578168385E-01 -0.63083709712E-02  0.13879322465E-01  0.10198971168E+01  0.10196139217E+01 0.  0.
     999903    2    3    3    0    0  0.11240491149E+00 -0.51019300422E-01 -0.27896854028E-01  0.12810068071E+00  0.19842298000E-01 0.  0.
         14    1    1    2    0    0  0.18578168385E-01  0.63083709712E-02 -0.13879322465E-01  0.24032883242E-01  0.00000000000E+00 0. -1.
     999901    1    3    3    0    0 -0.13098307988E+00  0.44710929451E-01  0.41776176493E-01  0.89179643605E+00  0.88000000000E+00 0. -1.
        -11    1    4    4    0    0  0.48623089111E-01 -0.25497796034E-01 -0.21995771316E-01  0.59147421534E-01  0.51100000000E-03 0. -1.
         11    1    4    4    0    0  0.63781822383E-01 -0.25521504388E-01 -0.59010827121E-02  0.68953259175E-01  0.51100000000E-03 0.  1.
</event>
<event>
 8    1  0.1086235E+005  0.1043930E+01  0.7957747E-01            NaN
         13   -1    0    0    0    0  0.00000000000E+00  0.00000000000E+00  0.74505805969E-08  0.10566000000E+00  0.10566000000E+00 0. -1.
     999900   -1    0    0    0    0 -0.00000000000E+00 -0.00000000000E+00 -0.74505805969E-08  0.93827000000E+00  0.93827000000E+00 0.  1.
     999902    2    1    2    0    0  0.67821635022E-02 -0.15058589712E-01  0.17420516436E-01  0.10199251409E+01  0.10196426138E+01 0.  0.
     999903    2    3    3    0    0  0.51765694302E-01 -0.63591891406E-01  0.10311880724E+00  0.13328925374E+00  0.20221795057E-01 0.  0.
         14    1    1    2    0    0 -0.67821635022E-02  0.15058589712E-01 -0.17420516436E-01  0.24004859066E-01  0.00000000000E+00 0.  1.
     999901    1    3    3    0    0 -0.44983530800E-01  0.48533301694E-01 -0.85698290807E-01  0.88663588720E+00  0.88000000000E+00 0.  1.
        -11    1    4    4    0    0  0.31860050340E-01 -0.47198161826E-01  0.82611976112E-01  0.10033807356E+00  0.51100000000E-03 0.  1.
         11    1    4    4    0    0  0.19905643962E-01 -0.16393729580E-01  0.20506831132E-01  0.32951180178E-01  0.51100000000E-03 0. -1.
</event>
<event>
 8    1  0.1086235E+005  0.1043930E+01  0.7957747E-01            NaN
         13   -1    0    0    0    0  0.00000000000E+00  0.00000000000E+00  0.74505805969E-08  0.10566000000E+00  0.10566000000E+00 0.  1.
     999900   -1    0    0    0    0 -0.00000000000E+00 -0.00000000000E+00 -0.74505805969E-08  0.93827000000E+00  0.93827000000E+00 0.  1.
     999902    2    1    2    0    0  0.95972964673E-02 -0.18954860411E-01  0.14269646332E-01  0.10183366876E+01  0.10180150253E+01 0.  0.
     999903    2    3    3    0    0  0.37221967525E-01  0.97588930754E-01  0.72326746887E-01  0.12832758393E+00  0.18103486113E-01 0.  0.
         14    1    1    2    0    0 -0.95972964673E-02  0.18954860411E-01 -0.14269646332E-01  0.25593312391E-01  0.00000000000E+00 0. -1.
     999901    1    3    3    0    0 -0.27624671058E-01 -0.11654379116E+00 -0.58057100555E-01  0.89000910368E+00  0.88000000000E+00 0. -1.
        -11    1    4    4    0    0  0.87927988942E-02  0.46516008712E-01  0.28395388316E-01  0.55205177090E-01  0.51100000000E-03 0.  1.
         11    1    4    4    0    0  0.28429168631E-01  0.51072922042E-01  0.43931358572E-01  0.73122406839E-01  0.51100000000E-03 0. -1.
</event>
<event>
 8    1  0.1086235E+005  0.1043930E+01  0.7957747E-01            NaN
         13   -1    0    0    0    0  0.00000000000E+00  0.00000000000E+00  0.74505805969E-08  0.10566000000E+00  0.10566000000E+00 0. -1.
     999900   -1    0    0    0    0 -0.00000000000E+00 -0.00000000000E+00 -0.74505805969E-08  0.93827000000E+00  0.93827000000E+00 0.  1.
     999902    2    1    2    0    0  0.11781949533E-01  0.26644425007E-02 -0.21580262040E-01  0.10191990215E+01  0.10188989273E+01 0.  0.
     999903    2    3    3    0    0  0.11605500756E+00 -0.57407350569E-01  0.14030717058E-02  0.13071169767E+00  0.17866466289E-01 0.  0.
         14    1    1    2    0    0 -0.11781949533E-01 -0.26644425007E-02  0.21580262040E-01  0.24730978516E-01  0.00000000000E+00 0. -1.
     999901    1    3    3    0    0 -0.10427305803E+00  0.60071793070E-01 -0.22983333746E-01  0.88848732382E+00  0.88000000000E+00 0. -1.
        -11    1    4    4    0    0  0.63876019980E-01 -0.36843048472E-01  0.82770101694E-02  0.74204623626E-01  0.51100000000E-03 0. -1.
         11    1    4    4    0    0  0.52178987581E-01 -0.20564302097E-01 -0.68739384636E-02  0.56507074041E-01  0.51100000000E-03 0.  1.
</event>
<event>
 8    1  0.1086235E+005  0.1043930E+01  0.7957747E-01            NaN
         13   -1    0    0    0    0  0.00000000000E+00  0.00000000000E+00  0.74505805969E-08  0.10566000000E+00  0.10566000000E+00 0. -1.
     999900   -1    0    0    0    0 -0.00000000000E+00 -0.00000000000E+00 -0.74505805969E-08  0.93827000000E+00  0.93827000000E+00 0. -1.
     999902    2    1    2    0    0 -0.13383824741E-01  0.34339742209E-03  0.17925916269E-01  0.10215562842E+01  0.10213112447E+01 0.  0.
     999903    2    3    3    0    0  0.40541376437E-01  0.66022268336E-01 -0.10172406243E+00  0.12940284511E+00  0.19868777627E-01 0.  0.
         14    1    1    2    0    0  0.13383824741E-01 -0.34339742209E-03 -0.17925916269E-01  0.22373715841E-01  0.00000000000E+00 0.  1.
     999901    1    3    3    0    0 -0.53925201178E-01 -0.65678870914E-01  0.11964997870E+00  0.89215343905E+00  0.88000000000E+00 0.  1.
        -11    1    4    4    0    0  0.17036864517E-01  0.19481188713E-01 -0.48006991179E-01  0.54540845146E-01  0.51100000000E-03 0.  1.
         11    1    4    4    0    0  0.23504511920E-01  0.46541079623E-01 -0.53717071255E-01  0.74861999962E-01  0.51100000000E-03 0. -1.
</event>
<event>
 8    1  0.1086235E+005  0.1043930E+01  0.7957747E-01            NaN
         13   -1    0    0    0    0  0.00000000000E+00  0.00000000000E+00  0.74505805969E-08  0.10566000000E+00  0.10566000000E+00 0. -1.
     999900   -1    0    0    0    0 -0.00000000000E+00 -0.00000000000E+00 -0.74505805969E-08  0.93827000000E+00  0.93827000000E+00 0. -1.
     999902    2    1    2    0    0 -0.12757856822E-01  0.11960378247E-01 -0.32033943883E-02  0.10261514935E+01  0.10259974719E+01 0.  0.
     999903    2    3    3    0    0 -0.88261407096E-01 -0.32491567027E-01 -0.97375686763E-01  0.13680050417E+00  0.19661527330E-01 0.  0.
         14    1    1    2    0    0  0.12757856822E-01 -0.11960378247E-01  0.32033943883E-02  0.17778506520E-01  0.00000000000E+00 0. -1.
     999901    1    3    3    0    0  0.75503550275E-01  0.44451945274E-01  0.94172292374E-01  0.88935098931E+00  0.88000000000E+00 0.  1.
        -11    1    4    4    0    0 -0.84661527280E-01 -0.25868289132E-01 -0.89988016814E-01  0.12623330335E+00  0.51100000000E-03 0.  1.
         11    1    4    4    0    0 -0.35998798165E-02 -0.66232778952E-02 -0.73876699484E-02  0.10567200814E-01  0.51100000000E-03 0. -1.
</event>
<event>
 8    1  0.1086235E+005  0.1043930E+01  0.7957747E-01            NaN
         13   -1    0    0    0    0  0.00000000000E+00  0.00000000000E+00  0.74505805969E-08  0.10566000000E+00  0.10566000000E+00 0. -1.
     999900   -1    0    0    0    0 -0.00000000000E+00 -0.00000000000E+00 -0.74505805969E-08  0.93827000000E+00  0.93827000000E+00 0.  1.
     999902    2    1    2    0    0 -0.91493579984E-03  0.21233935248E-01 -0.92321564783E-02  0.10207578221E+01  0.10204947730E+01 0.  0.
     999903    2    3    3    0    0  0.91211201733E-01  0.13974189988E-01 -0.92431284920E-01  0.13201600131E+00  0.19233326855E-01 0.  0.
         14    1    1    2    0    0  0.91493579984E-03 -0.21233935248E-01  0.92321564783E-02  0.23172177862E-01  0.00000000000E+00 0. -1.
     999901    1    3    3    0    0 -0.92126137533E-01  0.72597452601E-02  0.83199128442E-01  0.88874182083E+00  0.88000000000E+00 0. -1.
        -11    1    4    4    0    0  0.15715100415E-01 -0.27800779404E-02 -0.93117302508E-02  0.18484119013E-01  0.51100000000E-03 0.  1.
         11    1    4    4    0    0  0.75496101318E-01  0.16754267928E-01 -0.83119554670E-01  0.11353188230E+00  0.51100000000E-03 0. -1.
</event>
<event>
 8    1  0.1086235E+005  0.1043930E+01  0.7957747E-01            NaN
         13   -1    0    0    0    0  0.00000000000E+00  0.00000000000E+00  0.74505805969E-08  0.10566000000E+00  0.10566000000E+00 0.  1.
     999900   -1    0    0    0    0 -0.00000000000E+00 -0.00000000000E+00 -0.74505805969E-08  0.93827000000E+00  0.93827000000E+00 0.  1.
     999902    2    1    2    0    0 -0.83247077802E-02 -0.19817535587E-01  0.89714790084E-02  0.10206378788E+01  0.10203720677E+01 0.  0.
     999903    2    3    3    0    0 -0.10706864362E+00 -0.66695997833E-01 -0.36360269542E-01  0.13271731783E+00  0.19487603176E-01 0.  0.
         14    1    1    2    0    0  0.83247077802E-02  0.19817535587E-01 -0.89714790084E-02  0.23292121242E-01  0.00000000000E+00 0.  1.
     999901    1    3    3    0    0  0.98743935841E-01  0.46878462247E-01  0.45331748550E-01  0.88792056093E+00  0.88000000000E+00 0.  1.
        -11    1    4    4    0    0 -0.97457189910E-01 -0.54380228585E-01 -0.35288981641E-01  0.11704993154E+00  0.51100000000E-03 0. -1.
         11    1    4    4    0    0 -0.96114537111E-02 -0.12315769248E-01 -0.10712879009E-02  0.15667386297E-01  0.51100000000E-03 0.  1.
</event>
<event>
 8    1  0.1086235E+005  0.1043930E+01  0.7957747E-01            NaN
         13   -1    0    0    0    0  0.00000000000E+00  0.00000000000E+00  0.74505805969E-08  0.10566000000E+00  0.10566000000E+00 0.  1.
     999900   -1    0    0    0    0 -0.00000000000E+00 -0.00000000000E+00 -0.74505805969E-08  0.93827000000E+00  0.93827000000E+00 0. -1.
     999902    2    1    2    0    0 -0.16442787194E-01 -0.16931879806E-01 -0.39083570409E-03  0.10203247769E+01  0.10200516868E+01 0.  0.
     999903    2    3    3    0    0 -0.25935880431E-01  0.99278117676E-01 -0.76321304738E-01  0.12939250201E+00  0.19714549875E-01 0.  0.
         14    1    1    2    0    0  0.16442787194E-01  0.16931879806E-01  0.39083570409E-03  0.23605223088E-01  0.00000000000E+00 0. -1.
     999901    1    3    3    0    0  0.94930932370E-02 -0.11620999748E+00  0.75930469033E-01  0.89093227490E+00  0.88000000000E+00 0. -1.
        -11    1    4    4    0    0 -0.16707185402E-01  0.58450594194E-01 -0.33090455116E-01  0.69215903855E-01  0.51100000000E-03 0. -1.
         11    1    4    4    0    0 -0.92286950297E-02  0.40827523482E-01 -0.43230849621E-01  0.60176598156E-01  0.51100000000E-03 0.  1.
</event>
<event>
 8    1  0.1086235E+005  0.1043930E+01  0.7957747E-01            NaN
         13   -1    0    0    0    0  0.00000000000E+00  0.00000000000E+00  0.74505805969E-08  0.10566000000E+00  0.10566000000E+00 0. -1.
     999900   -1    0    0    0    0 -0.00000000000E+00 -0.00000000000E+00 -0.74505805969E-08  0.93827000000E+00  0.93827000000E+00 0.  1.
     999902    2    1    2    0    0  0.23062517921E-01 -0.33004794902E-02 -0.37461529172E-02  0.10203332511E+01  0.10200603593E+01 0.  0.
     999903    2    3    3    0    0  0.43738162847E-01  0.11324030563E+00  0.45324371185E-01  0.13105424356E+00  0.19609243297E-01 0.  0.
         14    1    1    2    0    0 -0.23062517921E-01  0.33004794902E-02  0.37461529172E-02  0.23596748916E-01  0.00000000000E+00 0. -1.
     999901    1    3    3    0    0 -0.20675644926E-01 -0.11654078512E+00 -0.49070524102E-01  0.88927900753E+00  0.88000000000E+00 0. -1.
        -11    1    4    4    0    0  0.41265347872E-01  0.86535890685E-01  0.31761525552E-01  0.10099675707E+00  0.51100000000E-03 0.  1.
         11    1    4    4    0    0  0.24728149746E-02  0.26704414946E-01  0.13562845633E-01  0.30057486491E-01  0.51100000000E-03 0. -1.
</event>
<event>
 8    1  0.1086235E+005  0.1043930E+01  0.7957747E-01            NaN
         13   -1    0    0    0    0  0.00000000000E+00  0.00000000000E+00  0.74505805969E-08  0.10566000000E+00  0.10566000000E+00 0.  1.
     999900   -1    0    0    0    0 -0.00000000000E+00 -0.00000000000E+00 -0.74505805969E-08  0.93827000000E+00  0.93827000000E+00 0.  1.
     999902    2    1    2    0    0  0.22744446785E-01 -0.48193813597E-02 -0.35723521937E-02  0.10204077128E+01  0.10201365606E+01 0.  0.
     999903    2    3    3    0    0  0.86212865254E-01  0.75160565734E-01 -0.63654751777E-01  0.13246912997E+00  0.20356183230E-01 0.  0.
         14    1    1    2    0    0 -0.22744446785E-01  0.48193813597E-02  0.35723521937E-02  0.23522287228E-01  0.00000000000E+00 0.  1.
     999901    1    3    3    0    0 -0.63468418469E-01 -0.79979947094E-01  0.60082399583E-01  0.88793858280E+00  0.88000000000E+00 0. -1.
        -11    1    4    4    0    0  0.31860873762E-01  0.19298696406E-01 -0.28805123351E-01  0.47090882473E-01  0.51100000000E-03 0.  1.
         11    1    4    4    0    0  0.54351991492E-01  0.55861869328E-01 -0.34849628426E-01  0.85378247501E-01  0.51100000000E-03 0. -1.
</event>
<event>
 8    1  0.1086235E+005  0.1043930E+01  0.7957747E-01            NaN
         13   -1    0    0    0    0  0.00000000000E+00  0.00000000000E+00  0.74505805969E-08  0.10566000000E+00  0.10566000000E+00 0.  1.
     999900   -1    0    0    0    0 -0.00000000000E+00 -0.00000000000E+00 -0.74505805969E-08  0.93827000000E+00  0.93827000000E+00 0. -1.
     999902    2    1    2    0    0  0.32180401365E-02  0.10520521789E-01 -0.20421402668E-01  0.10207336458E+01  0.10204700411E+01 0.  0.
     999903    2    3    3    0    0 -0.52414676543E-01 -0.53632236530E-01  0.10201652315E+00  0.12820822810E+00  0.20155982840E-01 0.  0.
         14    1    1    2    0    0 -0.32180401365E-02 -0.10520521789E-01  0.20421402668E-01  0.23196354196E-01  0.00000000000E+00 0.  1.
     999901    1    3    3    0    0  0.55632716679E-01  0.64152758319E-01 -0.12243792582E+00  0.89252541770E+00  0.88000000000E+00 0. -1.
        -11    1    4    4    0    0 -0.29569952937E-01 -0.21665252480E-01  0.62640283205E-01  0.72579828346E-01  0.51100000000E-03 0. -1.
         11    1    4    4    0    0 -0.22844723605E-01 -0.31966984050E-01  0.39376239949E-01  0.55628399756E-01  0.51100000000E-03 0.  1.
</event>
<event>
 8    1  0.1086235E+005  0.1043930E+01  0.7957747E-01            NaN
         13   -1    0    0    0    0  0.00000000000E+00  0.00000000000E+00  0.74505805969E-08  0.10566000000E+00  0.10566000000E+00 0. -1.
     999900   -1    0    0    0    0 -0.00000000000E+00 -0.00000000000E+00 -0.74505805969E-08  0.93827000000E+00  0.93827000000E+00 0. -1.
     999902    2    1    2    0    0  0.87244817577E-02 -0.22757824153E-01 -0.68285695682E-02  0.10186186487E+01  0.10183041230E+01 0.  0.
     999903    2    3    3    0    0  0.10567029836E-01 -0.10164118448E+00  0.79984074048E-01  0.13083353134E+00  0.16654378380E-01 0.  0.
         14    1    1    2    0    0 -0.87244817577E-02  0.22757824153E-01  0.68285695682E-02  0.25311351297E-01  0.00000000000E+00 0. -1.
     999901    1    3    3    0    0 -0.18425480788E-02  0.78883360328E-01 -0.86812643617E-01  0.88778511736E+00  0.88000000000E+00 0.  1.
        -11    1    4    4    0    0 -0.86663129934E-03 -0.67133185022E-01  0.53615513497E-01  0.85921475718E-01  0.51100000000E-03 0.  1.
         11    1    4    4    0    0  0.11433661136E-01 -0.34507999459E-01  0.26368560551E-01  0.44912055622E-01  0.51100000000E-03 0. -1.
</event>
<event>
 8    1  0.1086235E+005  0.1043930E+01  0.7957747E-01            NaN
         13   -1    0    0    0    0  0.00000000000E+00  0.00000000000E+00  0.74505805969E-08  0.10566000000E+00  0.10566000000E+00 0.  1.
     999900   -1    0    0    0    0 -0.00000000000E+00 -0.00000000000E+00 -0.74505805969E-08  0.93827000000E+00  0.93827000000E+00 0. -1.
     999902    2    1    2    0    0 -0.21657802566E-01 -0.91488337327E-02 -0.32140505023E-02  0.10202004469E+01  0.10199244384E+01 0.  0.
     999903    2    3    3    0    0  0.11051833477E+00  0.58023323646E-01 -0.10797556031E-01  0.12776549711E+00  0.25028516336E-01 0.  0.
         14    1    1    2    0    0  0.21657802566E-01  0.91488337327E-02  0.32140505023E-02  0.23729553120E-01  0.00000000000E+00 0.  1.
     999901    1    3    3    0    0 -0.13217613733E+00 -0.67172157379E-01  0.75835055285E-02  0.89243494977E+00  0.88000000000E+00 0.  1.
        -11    1    4    4    0    0  0.36235422339E-01  0.30323825435E-01  0.27625910698E-02  0.47333215098E-01  0.51100000000E-03 0.  1.
         11    1    4    4    0    0  0.74282912428E-01  0.27699498211E-01 -0.13560147101E-01  0.80432282016E-01  0.51100000000E-03 0. -1.
</event>
<event>
 8    1  0.1086235E+005  0.1043930E+01  0.7957747E-01            NaN
         13   -1    0    0    0    0  0.00000000000E+00  0.00000000000E+00  0.74505805969E-08  0.10566000000E+00  0.10566000000E+00 0.  1.
     999900   -1    0    0    0    0 -0.00000000000E+00 -0.00000000000E+00 -0.74505805969E-08  0.93827000000E+00  0.93827000000E+00 0. -1.
     999902    2    1    2    0    0 -0.19732672058E-01 -0.62226048652E-02  0.12044776991E-01  0.10199889096E+01  0.10197078993E+01 0.  0.
     999903    2    3    3    0    0 -0.65215127615E-01  0.10697680455E+00  0.34026216605E-01  0.13130114453E+00  0.19625431373E-01 0.  0.
         14    1    1    2    0    0  0.19732672058E-01  0.62226048652E-02 -0.12044776991E-01  0.23941090423E-01  0.00000000000E+00 0.  1.
     999901    1    3    3    0    0  0.45482455557E-01 -0.11319940942E+00 -0.21981439614E-01  0.88868776505E+00  0.88000000000E+00 0. -1.
        -11    1    4    4    0    0 -0.42307428971E-01  0.55916585325E-01  0.11912757270E-01  0.71124946168E-01  0.51100000000E-03 0. -1.
         11    1    4    4    0    0 -0.22907698644E-01  0.51060219227E-01  0.22113459335E-01  0.60176198363E-01  0.51100000000E-03 0.  1.
</event>
<event>
 8    1  0.1086235E+005  0.1043930E+01  0.7957747E-01            NaN
         13   -1    0    0    0    0  0.00000000000E+00  0.00000000000E+00  0.74505805969E-08  0.10566000000E+00  0.10566000000E+00 0.  1.
     999900   -1    0    0    0    0 -0.00000000000E+00 -0.00000000000E+00 -0.74505805969E-08  0.93827000000E+00  0.93827000000E+00 0. -1.
     999902    2    1    2    0    0  0.18742506622E-01 -0.79481123240E-02  0.11217117023E-01  0.10206861243E+01  0.10204214260E+01 0.  0.
     999903    2    3    3    0    0  0.68985745067E-01 -0.10741137566E+00 -0.29974176877E-01  0.13270299018E+00  0.20381258029E-01 0.  0.
         14    1    1    2    0    0 -0.18742506622E-01  0.79481123240E-02 -0.11217117023E-01  0.23243875716E-01  0.00000000000E+00 0. -1.
     999901    1    3    3    0    0 -0.50243238444E-01  0.99463263337E-01  0.41191293900E-01  0.88798313411E+00  0.88000000000E+00 0. -1.
        -11    1    4    4    0    0  0.65081365992E-01 -0.10175388842E+00 -0.23116794761E-01  0.12298002004E+00  0.51100000000E-03 0.  1.
         11    1    4    4    0    0  0.39043790752E-02 -0.56574872449E-02 -0.68573821156E-02  0.97229701413E-02  0.51100000000E-03 0. -1.
</event>
<event>
 8    1  0.1086235E+005  0.1043930E+01  0.7957747E-01            NaN
         13   -1    0    0    0    0  0.00000000000E+00  0.00000000000E+00  0.74505805969E-08  0.10566000000E+00  0.10566000000E+00 0. -1.
     999900   -1    0    0    0    0 -0.00000000000E+00 -0.00000000000E+00 -0.74505805969E-08  0.93827000000E+00  0.93827000000E+00 0.  1.
     999902    2    1    2    0    0 -0.21474749460E-01  0.42221192369E-02  0.86887629258E-02  0.10203824788E+01  0.10201107377E+01 0.  0.
     999903    2    3    3    0    0 -0.36501927986E-01  0.11528271031E+00 -0.47942101289E-01  0.13146891392E+00  0.19056133102E-01 0.  0.
         14    1    1    2    0    0  0.21474749460E-01 -0.42221192369E-02 -0.86887629258E-02  0.23547521237E-01  0.00000000000E+00 0.  1.
     999901    1    3    3    0    0  0.15027178526E-01 -0.11106059107E+00  0.56630864215E-01  0.88891356484E+00  0.88000000000E+00 0. -1.
        -11    1    4    4    0    0 -0.52182339322E-02  0.39339709577E-01 -0.21758345466E-01  0.45260683086E-01  0.51100000000E-03 0.  1.
         11    1    4    4    0    0 -0.31283694054E-01  0.75943000729E-01 -0.26183755823E-01  0.86208230833E-01  0.51100000000E-03 0. -1.
</event>
<event>
 8    1  0.1086235E+005  0.1043930E+01  0.7957747E-01            NaN
         13   -1    0    0    0    0  0.00000000000E+00  0.00000000000E+00  0.74505805969E-08  0.10566000000E+00  0.10566000000E+00 0.  1.
     999900   -1    0    0    0    0 -0.00000000000E+00 -0.00000000000E+00 -0.74505805969E-08  0.93827000000E+00  0.93827000000E+00 0.  1.
     999902    2    1    2    0    0 -0.92709278710E-02  0.16585463344E-01 -0.13170024181E-01  0.10208112363E+01  0.10205494123E+01 0.  0.
     999903    2    3    3    0    0  0.10734740379E+00 -0.68532884677E-01  0.23619533917E-03  0.12894538587E+00  0.20165201878E-01 0.  0.
         14    1    1    2    0    0  0.92709278710E-02 -0.16585463344E-01  0.13170024181E-01  0.23118763696E-01  0.00000000000E+00 0.  1.
     999901    1    3    3    0    0 -0.11661833166E+00  0.85118348021E-01 -0.13406219520E-01  0.89186585043E+00  0.88000000000E+00 0.  1.
        -11    1    4    4    0    0  0.40816147331E-01 -0.34881625025E-01  0.66858164099E-02  0.54107734284E-01  0.51100000000E-03 0.  1.
         11    1    4    4    0    0  0.66531256457E-01 -0.33651259652E-01 -0.64496210707E-02  0.74837651585E-01  0.51100000000E-03 0. -1.
</event>
<event>
 8    1  0.1086235E+005  0.1043930E+01  0.7957747E-01            NaN
         13   -1    0    0    0    0  0.00000000000E+00  0.00000000000E+00  0.74505805969E-08  0.10566000000E+00  0.10566000000E+00 0.  1.
     999900   -1    0    0    0    0 -0.00000000000E+00 -0.00000000000E+00 -0.74505805969E-08  0.93827000000E+00  0.93827000000E+00 0. -1.
     999902    2    1    2    0    0  0.20275287658E-01  0.14198485219E-02 -0.11989779274E-01  0.10203321597E+01  0.10200592424E+01 0.  0.
     999903    2    3    3    0    0 -0.47884858808E-01 -0.10535214219E+00 -0.56255583477E-01  0.13016053300E+00  0.19622439023E-01 0.  0.
         14    1    1    2    0    0 -0.20275287658E-01 -0.14198485219E-02  0.11989779274E-01  0.23597840292E-01  0.00000000000E+00 0.  1.
     999901    1    3    3    0    0  0.68160146465E-01  0.10677199071E+00  0.44265804203E-01  0.89017162670E+00  0.88000000000E+00 0. -1.
        -11    1    4    4    0    0 -0.67010636288E-02 -0.36221755650E-01 -0.19705918923E-01  0.41779231656E-01  0.51100000000E-03 0. -1.
         11    1    4    4    0    0 -0.41183795179E-01 -0.69130386537E-01 -0.36549664554E-01  0.88381301349E-01  0.51100000000E-03 0.  1.
</event>
<event>
 8    1  0.1086235E+005  0.1043930E+01  0.7957747E-01            NaN
         13   -1    0    0    0    0  0.00000000000E+00  0.00000000000E+00  0.74505805969E-08  0.10566000000E+00  0.10566000000E+00 0.  1.
     999900   -1    0    0    0    0 -0.00000000000E+00 -0.00000000000E+00 -0.74505805969E-08  0.93827000000E+00  0.93827000000E+00 0. -1.
     999902    2    1    2    0    0  0.20007208822E-01  0.12170015483E-01  0.21559379948E-02  0.10204130752E+01  0.10201420481E+01 0.  0.
     999903    2    3    3    0    0 -0.63027441002E-01  0.57327981431E-01 -0.96097739201E-01  0.12991446207E+00  0.19596841640E-01 0.  0.
         14    1    1    2    0    0 -0.20007208822E-01 -0.12170015483E-01 -0.21559379948E-02  0.23516924764E-01  0.00000000000E+00 0. -1.
     999901    1    3    3    0    0  0.83034649824E-01 -0.45157965948E-01  0.98253677196E-01  0.89049861316E+00  0.88000000000E+00 0.  1.
        -11    1    4    4    0    0 -0.14005482818E-01  0.25123306143E-01 -0.31653945613E-01  0.42773443331E-01  0.51100000000E-03 0. -1.
         11    1    4    4    0    0 -0.49021958184E-01  0.32204675289E-01 -0.64443793588E-01  0.87141018744E-01  0.51100000000E-03 0.  1.
</event>
<event>
 8    1  0.1086235E+005  0.1043930E+01  0.7957747E-01            NaN
         13   -1    0    0    0    0  0.00000000000E+00  0.00000000000E+00  0.74505805969E-08  0.10566000000E+00  0.10566000000E+00 0. -1.
     999900   -1    0    0    0    0 -0.00000000000E+00 -0.00000000000E+00 -0.74505805969E-08  0.93827000000E+00  0.93827000000E+00 0.  1.
     999902    2    1    2    0    0 -0.43623777194E-02  0.23101660461E-01 -0.70363073040E-02  0.10193896928E+01  0.10190942641E+01 0.  0.
     999903    2    3    3    0    0 -0.10476177984E+00  0.40373628910E-01 -0.61927795515E-01  0.13181353479E+00  0.30572792967E-01 0.  0.
         14    1    1    2    0    0  0.43623777194E-02 -0.23101660461E-01  0.70363073040E-02  0.24540307168E-01  0.00000000000E+00 0.  1.
     999901    1    3    3    0    0  0.10039940212E+00 -0.17271968449E-01  0.54891488211E-01  0.88757615804E+00  0.88000000000E+00 0. -1.
        -11    1    4    4    0    0 -0.33721064035E-01  0.21614929625E-01 -0.84583013572E-02  0.40940436309E-01  0.51100000000E-03 0. -1.
         11    1    4    4    0    0 -0.71040715810E-01  0.18758699285E-01 -0.53469494158E-01  0.90873098484E-01  0.51100000000E-03 0.  1.
</event>
<event>
 8    1  0.1086235E+005  0.1043930E+01  0.7957747E-01            NaN
         13   -1    0    0    0    0  0.00000000000E+00  0.00000000000E+00  0.74505805969E-08  0.10566000000E+00  0.10566000000E+00 0.  1.
     999900   -1    0    0    0    0 -0.00000000000E+00 -0.00000000000E+00 -0.74505805969E-08  0.93827000000E+00  0.93827000000E+00 0.  1.
     999902    2    1    2    0    0 -0.94610166142E-02  0.20801258601E-01 -0.59409366446E-02  0.10203186061E+01  0.10200453715E+01 0.  0.
     999903    2    3    3    0    0 -0.98604998616E-01 -0.72941279844E-01  0.36626001096E-01  0.12984330758E+00  0.21781747180E-01 0.  0.
         14    1    1    2    0    0  0.94610166142E-02 -0.20801258601E-01  0.59409366446E-02  0.23611393923E-01  0.00000000000E+00 0.  1.
     999901    1    3    3    0    0  0.89143982002E-01  0.93742538445E-01 -0.42566937741E-01  0.89047529850E+00  0.88000000000E+00 0.  1.
        -11    1    4    4    0    0 -0.21416189529E-01 -0.23669401282E-01  0.17075739347E-01  0.36204084386E-01  0.51100000000E-03 0. -1.
         11    1    4    4    0    0 -0.77188809087E-01 -0.49271878562E-01  0.19550261750E-01  0.93639223196E-01  0.51100000000E-03 0.  1.
</event>
<event>
 8    1  0.1086235E+005  0.1043930E+01  0.7957747E-01            NaN
         13   -1    0    0    0    0  0.00000000000E+00  0.00000000000E+00  0.74505805969E-08  0.10566000000E+00  0.10566000000E+00 0. -1.
     999900   -1    0    0    0    0 -0.00000000000E+00 -0.00000000000E+00 -0.74505805969E-08  0.93827000000E+00  0.93827000000E+00 0.  1.
     999902    2    1    2    0    0 -0.17084008868E-01  0.11071306197E-01 -0.12067754619E-01  0.10202642467E+01  0.10199897378E+01 0.  0.
     999903    2    3    3    0    0  0.11017378719E+00 -0.51786141855E-01  0.33369461887E-01  0.12773405328E+00  0.19555037971E-01 0.  0.
         14    1    1    2    0    0  0.17084008868E-01 -0.11071306197E-01  0.12067754619E-01  0.23665753347E-01  0.00000000000E+00 0. -1.
     999901    1    3    3    0    0 -0.12725779606E+00  0.62857448052E-01 -0.45437216506E-01  0.89253019337E+00  0.88000000000E+00 0. -1.
        -11    1    4    4    0    0  0.57261274572E-01 -0.18104181237E-01  0.22158837990E-01  0.64014765218E-01  0.51100000000E-03 0. -1.
         11    1    4    4    0    0  0.52912512616E-01 -0.33681960618E-01  0.11210623897E-01  0.63719288065E-01  0.51100000000E-03 0.  1.
</event>
<event>
 8    1  0.1086235E+005  0.1043930E+01  0.7957747E-01            NaN
         13   -1    0    0    0    0  0.00000000000E+00  0.00000000000E+00  0.74505805969E-08  0.10566000000E+00  0.10566000000E+00 0. -1.
     999900   -1    0    0    0    0 -0.00000000000E+00 -0.00000000000E+00 -0.74505805969E-08  0.93827000000E+00  0.93827000000E+00 0. -1.
     999902    2    1    2    0    0 -0.13358280877E-01 -0.50303738077E-02 -0.19245637972E-01  0.10199687206E+01  0.10196872305E+01 0.  0.
     999903    2    3    3    0    0  0.11382363744E+00 -0.33354106713E-01 -0.49111595695E-01  0.12987352929E+00  0.19668957893E-01 0.  0.
         14    1    1    2    0    0  0.13358280877E-01  0.50303738077E-02  0.19245637972E-01  0.23961279381E-01  0.00000000000E+00 0. -1.
     999901    1    3    3    0    0 -0.12718191832E+00  0.28323732905E-01  0.29865957723E-01  0.89009519133E+00  0.88000000000E+00 0. -1.
        -11    1    4    4    0    0  0.30495366879E-01 -0.18131709258E-01 -0.16007827128E-01  0.38926057238E-01  0.51100000000E-03 0. -1.
         11    1    4    4    0    0  0.83328270560E-01 -0.15222397455E-01 -0.33103768567E-01  0.90947472054E-01  0.51100000000E-03 0.  1.
</event>
<event>
 8    1  0.1086235E+005  0.1043930E+01  0.7957747E-01            NaN
         13   -1    0    0    0    0  0.00000000000E+00  0.00000000000E+00  0.74505805969E-08  0.10566000000E+00  0.10566000000E+00 0. -1.
     999900   -1    0    0    0    0 -0.00000000000E+00 -0.00000000000E+00 -0.74505805969E-08  0.93827000000E+00  0.93827000000E+00 0.  1.
     999902    2    1    2    0    0  0.13941026911E-01  0.18750742510E-01 -0.99109103627E-02  0.10185495209E+01  0.10182332531E+01 0.  0.
     999903    2    3    3    0    0  0.11295036064E+00 -0.37175369927E-01 -0.49871076797E-01  0.13033367261E+00  0.18972343501E-01 0.  0.
         14    1    1    2    0    0 -0.13941026911E-01 -0.18750742510E-01  0.99109103627E-02  0.25380479117E-01  0.00000000000E+00 0. -1.
     999901    1    3    3    0    0 -0.99009333729E-01  0.55926112437E-01  0.39960166434E-01  0.88821584827E+00  0.88000000000E+00 0.  1.
        -11    1    4    4    0    0  0.76724217719E-01 -0.29720888847E-01 -0.42532418194E-01  0.92623995470E-01  0.51100000000E-03 0. -1.
         11    1    4    4    0    0  0.36226142921E-01 -0.74544810809E-02 -0.73386586028E-02  0.37709677142E-01  0.51100000000E-03 0.  1.
</event>
<event>
 8    1  0.1086235E+005  0.1043930E+01  0.7957747E-01            NaN
         13   -1    0    0    0    0  0.00000000000E+00  0.00000000000E+00  0.74505805969E-08  0.10566000000E+00  0.10566000000E+00 0. -1.
     999900   -1    0    0    0    0 -0.00000000000E+00 -0.00000000000E+00 -0.74505805969E-08  0.93827000000E+00  0.93827000000E+00 0. -1.
     999902    2    1    2    0    0  0.20613989072E-01 -0.28905444345E-02  0.12437815637E-01  0.10196814732E+01  0.10193931115E+01 0.  0.
     999903    2    3    3    0    0  0.37756865456E-01  0.12328533374E+00  0.46998475956E-02  0.13048289778E+00  0.19463906080E-01 0.  0.
         14    1    1    2    0    0 -0.20613989072E-01  0.28905444345E-02 -0.12437815637E-01  0.24248526767E-01  0.00000000000E+00 0.  1.
     999901    1    3    3    0    0 -0.17142876384E-01 -0.12617587818E+00  0.77379680410E-02  0.88919857546E+00  0.88000000000E+00 0. -1.
        -11    1    4    4    0    0  0.19377862070E-01  0.34183776198E-01  0.40094923891E-02  0.39501509386E-01  0.51100000000E-03 0. -1.
         11    1    4    4    0    0  0.18379003386E-01  0.89101557543E-01  0.69035520650E-03  0.90981388390E-01  0.51100000000E-03 0.  1.
</event>
<event>
 8    1  0.1086235E+005  0.1043930E+01  0.7957747E-01            NaN
         13   -1    0    0    0    0  0.00000000000E+00  0.00000000000E+00  0.74505805969E-08  0.10566000000E+00  0.10566000000E+00 0.  1.
     999900   -1    0    0    0    0 -0.00000000000E+00 -0.00000000000E+00 -0.74505805969E-08  0.93827000000E+00  0.93827000000E+00 0. -1.
     999902    2    1    2    0    0 -0.20050583260E-01  0.39873698253E-02  0.96754902487E-02  0.10213127473E+01  0.10210622840E+01 0.  0.
     999903    2    3    3    0    0 -0.61774382822E-01 -0.10129200875E+00  0.56473698207E-01  0.13282262623E+00  0.19401701994E-01 0.  0.
         14    1    1    2    0    0  0.20050583260E-01 -0.39873698253E-02 -0.96754902487E-02  0.22617252679E-01  0.00000000000E+00 0. -1.
     999901    1    3    3    0    0  0.41723799561E-01  0.10527937858E+00 -0.46798207958E-01  0.88849012109E+00  0.88000000000E+00 0. -1.
        -11    1    4    4    0    0 -0.17189232222E-01 -0.25088856573E-01  0.56098244302E-02  0.30929786286E-01  0.51100000000E-03 0. -1.
         11    1    4    4    0    0 -0.44585150600E-01 -0.76203152178E-01  0.50863873777E-01  0.10189283995E+00  0.51100000000E-03 0.  1.
</event>
<event>
 8    1  0.1086235E+005  0.1043930E+01  0.7957747E-01            NaN
         13   -1    0    0    0    0  0.00000000000E+00  0.00000000000E+00  0.74505805969E-08  0.10566000000E+00  0.10566000000E+00 0.  1.
     999900   -1    0    0    0    0 -0.00000000000E+00 -0.00000000000E+00 -0.74505805969E-08  0.93827000000E+00  0.93827000000E+00 0.  1.
     999902    2    1    2    0    0 -0.15993030698E-01 -0.16608648894E-01 -0.69080946835E-02  0.10198603922E+01  0.10195763206E+01 0.  0.
     999903    2    3    3    0    0  0.10152371641E+00 -0.77423460348E-01  0.11801655930E-01  0.12977124949E+00  0.19996022255E-01 0.  0.
         14    1    1    2    0    0  0.15993030698E-01  0.16608648894E-01  0.69080946835E-02  0.24069607831E-01  0.00000000000E+00 0. -1.
     999901    1    3    3    0    0 -0.11751674711E+00  0.60814811453E-01 -0.18709750614E-01  0.89008914268E+00  0.88000000000E+00 0.  1.
        -11    1    4    4    0    0  0.48687774662E-01 -0.27052746477E-01 -0.71259210585E-03  0.55705649641E-01  0.51100000000E-03 0. -1.
         11    1    4    4    0    0  0.52835941749E-01 -0.50370713871E-01  0.12514248036E-01  0.74065599851E-01  0.51100000000E-03 0.  1.
</event>
<event>
 8    1  0.1086235E+005  0.1043930E+01  0.7957747E-01            NaN
         13   -1    0    0    0    0  0.00000000000E+00  0.00000000000E+00  0.74505805969E-08  0.10566000000E+00  0.10566000000E+00 0. -1.
     999900   -1    0    0    0    0 -0.00000000000E+00 -0.00000000000E+00 -0.74505805969E-08  0.93827000000E+00  0.93827000000E+00 0.  1.
     999902    2    1    2    0    0  0.52925553912E-02  0.19145292994E-01  0.13606026362E-01  0.10198535106E+01  0.10195692747E+01 0.  0.
     999903    2    3    3    0    0 -0.51138709748E-02 -0.12318914713E+00  0.28590185310E-01  0.12823032141E+00  0.20588807334E-01 0.  0.
         14    1    1    2    0    0 -0.52925553912E-02 -0.19145292994E-01 -0.13606026362E-01  0.24076489357E-01  0.00000000000E+00 0. -1.
     999901    1    3    3    0    0  0.10406426366E-01  0.14233444012E+00 -0.14984158947E-01  0.89162318923E+00  0.88000000000E+00 0.  1.
        -11    1    4    4    0    0 -0.97752649213E-02 -0.99326249281E-01  0.16828643837E-01  0.10121622387E+00  0.51100000000E-03 0. -1.
         11    1    4    4    0    0  0.46613939466E-02 -0.23862897845E-01  0.11761541473E-01  0.27014097540E-01  0.51100000000E-03 0.  1.
</event>
<event>
 8    1  0.1086235E+005  0.1043930E+01  0.7957747E-01            NaN
         13   -1    0    0    0    0  0.00000000000E+00  0.00000000000E+00  0.74505805969E-08  0.10566000000E+00  0.10566000000E+00 0.  1.
     999900   -1    0    0    0    0 -0.00000000000E+00 -0.00000000000E+00 -0.74505805969E-08  0.93827000000E+00  0.93827000000E+00 0. -1.
     999902    2    1    2    0    0 -0.60275483592E-02  0.19421700791E-01 -0.12994112540E-01  0.10197974336E+01  0.10195118561E+01 0.  0.
     999903    2    3    3    0    0  0.31204113130E-01  0.29760926343E-01  0.12003984034E+00  0.12896011465E+00  0.19019423979E-01 0.  0.
         14    1    1    2    0    0  0.60275483592E-02 -0.19421700791E-01  0.12994112540E-01  0.24132566410E-01  0.00000000000E+00 0. -1.
     999901    1    3    3    0    0 -0.37231661489E-01 -0.10339225553E-01 -0.13303395288E+00  0.89083731894E+00  0.88000000000E+00 0. -1.
        -11    1    4    4    0    0  0.25362323213E-02  0.14342395939E-01  0.37126907779E-01  0.39884899372E-01  0.51100000000E-03 0. -1.
         11    1    4    4    0    0  0.28667880809E-01  0.15418530404E-01  0.82912932559E-01  0.89075215276E-01  0.51100000000E-03 0.  1.
</event>
<event>
 8    1  0.1086235E+005  0.1043930E+01  0.7957747E-01            NaN
         13   -1    0    0    0    0  0.00000000000E+00  0.00000000000E+00  0.74505805969E-08  0.10566000000E+00  0.10566000000E+00 0. -1.
     999900   -1    0    0    0    0 -0.00000000000E+00 -0.00000000000E+00 -0.74505805969E-08  0.93827000000E+00  0.93827000000E+00 0.  1.
     999902    2    1    2    0    0  0.10846434534E-01  0.21401483147E-01  0.54378392062E-03  0.10199307433E+01  0.10196483495E+01 0.  0.
     999903    2    3    3    0    0  0.11961248467E+00 -0.15104185354E-02  0.51044115380E-01  0.13150219105E+00  0.19439564913E-01 0.  0.
         14    1    1    2    0    0 -0.10846434534E-01 -0.21401483147E-01 -0.54378392062E-03  0.23999256737E-01  0.00000000000E+00 0.  1.
     999901    1    3    3    0    0 -0.10876605014E+00  0.22911901682E-01 -0.50500331460E-01  0.88842855221E+00  0.88000000000E+00 0. -1.
        -11    1    4    4    0    0  0.56939094011E-01  0.27232278002E-02  0.14477249943E-01  0.58816054640E-01  0.51100000000E-03 0.  1.
         11    1    4    4    0    0  0.62673390660E-01 -0.42336463357E-02  0.36566865437E-01  0.72686136415E-01  0.51100000000E-03 0. -1.
</event>
<event>
 8    1  0.1086235E+005  0.1043930E+01  0.7957747E-01            NaN
         13   -1    0    0    0    0  0.00000000000E+00  0.00000000000E+00  0.74505805969E-08  0.10566000000E+00  0.10566000000E+00 0. -1.
     999900   -1    0    0    0    0 -0.00000000000E+00 -0.00000000000E+00 -0.74505805969E-08  0.93827000000E+00  0.93827000000E+00 0. -1.
     999902    2    1    2    0    0  0.90529719077E-02  0.21812114737E-01  0.67622150144E-03  0.10203041259E+01  0.10200305522E+01 0.  0.
     999903    2    3    3    0    0  0.10207123721E+00  0.21554739095E-02  0.80460042463E-01  0.13159481503E+00  0.20498618875E-01 0.  0.
         14    1    1    2    0    0 -0.90529719077E-02 -0.21812114737E-01 -0.67622150144E-03  0.23625874062E-01  0.00000000000E+00 0. -1.
     999901    1    3    3    0    0 -0.93018265304E-01  0.19656640828E-01 -0.79783820961E-01  0.88870931091E+00  0.88000000000E+00 0. -1.
        -11    1    4    4    0    0  0.46040391544E-01 -0.80541631327E-02  0.30332261986E-01  0.55721579621E-01  0.51100000000E-03 0. -1.
         11    1    4    4    0    0  0.56030845667E-01  0.10209637042E-01  0.50127780477E-01  0.75873235408E-01  0.51100000000E-03 0.  1.
</event>
<event>
 8    1  0.1086235E+005  0.1043930E+01  0.7957747E-01            NaN
         13   -1    0    0    0    0  0.00000000000E+00  0.00000000000E+00  0.74505805969E-08  0.10566000000E+00  0.10566000000E+00 0. -1.
     999900   -1    0    0    0    0 -0.00000000000E+00 -0.00000000000E+00 -0.74505805969E-08  0.93827000000E+00  0.93827000000E+00 0.  1.
     999902    2    1    2    0    0  0.85563569621E-02  0.19028005258E-01  0.11326450944E-01  0.10201904819E+01  0.10199142389E+01 0.  0.
     999903    2    3    3    0    0  0.87725717501E-02  0.12322618184E+00 -0.43238626455E-01  0.13236468006E+00  0.19727640542E-01 0.  0.
         14    1    1    2    0    0 -0.85563569621E-02 -0.19028005258E-01 -0.11326450944E-01  0.23739518098E-01  0.00000000000E+00 0.  1.
     999901    1    3    3    0    0 -0.21621478801E-03 -0.10419817659E+00  0.54565077399E-01  0.88782580185E+00  0.88000000000E+00 0. -1.
        -11    1    4    4    0    0 -0.36711420534E-02  0.15027325305E-01 -0.10254183648E-01  0.18566291851E-01  0.51100000000E-03 0.  1.
         11    1    4    4    0    0  0.12443713804E-01  0.10819885654E+00 -0.32984442807E-01  0.11379838820E+00  0.51100000000E-03 0. -1.
</event>
<event>
 8    1  0.1086235E+005  0.1043930E+01  0.7957747E-01            NaN
         13   -1    0    0    0    0  0.00000000000E+00  0.00000000000E+00  0.74505805969E-08  0.10566000000E+00  0.10566000000E+00 0.  1.
     999900   -1    0    0    0    0 -0.00000000000E+00 -0.00000000000E+00 -0.74505805969E-08  0.93827000000E+00  0.93827000000E+00 0. -1.
     999902    2    1    2    0    0 -0.20375845798E-01 -0.19626876576E-02 -0.13738605655E-01  0.10192768761E+01  0.10189786914E+01 0.  0.
     999903    2    3    3    0    0 -0.82451772175E-01  0.82369070744E-01 -0.58621877092E-01  0.13193265076E+00  0.19665739575E-01 0.  0.
         14    1    1    2    0    0  0.20375845798E-01  0.19626876576E-02  0.13738605655E-01  0.24653123943E-01  0.00000000000E+00 0.  1.
     999901    1    3    3    0    0  0.62075926377E-01 -0.84331758402E-01  0.44883271437E-01  0.88734422530E+00  0.88000000000E+00 0.  1.
        -11    1    4    4    0    0 -0.54124499371E-01  0.65324074864E-01 -0.37933204558E-01  0.92929464208E-01  0.51100000000E-03 0.  1.
         11    1    4    4    0    0 -0.28327272804E-01  0.17044995880E-01 -0.20688672534E-01  0.39003186553E-01  0.51100000000E-03 0. -1.
</event>
<event>
 8    1  0.1086235E+005  0.1043930E+01  0.7957747E-01            NaN
         13   -1    0    0    0    0  0.00000000000E+00  0.00000000000E+00  0.74505805969E-08  0.10566000000E+00  0.10566000000E+00 0. -1.
     999900   -1    0    0    0    0 -0.00000000000E+00 -0.00000000000E+00 -0.74505805969E-08  0.93827000000E+00  0.93827000000E+00 0. -1.
     999902    2    1    2    0    0  0.19278876577E-01  0.16028807884E-01 -0.35650797908E-03  0.10188556134E+01  0.10185470221E+01 0.  0.
     999903    2    3    3    0    0 -0.29776723655E-01 -0.68169165809E-01  0.10258422428E+00  0.12751250045E+00  0.14220628037E-01 0.  0.
         14    1    1    2    0    0 -0.19278876577E-01 -0.16028807884E-01  0.35650797908E-03  0.25074386576E-01  0.00000000000E+00 0.  1.
     999901    1    3    3    0    0  0.49055600231E-01  0.84197973694E-01 -0.10294073226E+00  0.89134311297E+00  0.88000000000E+00 0. -1.
        -11    1    4    4    0    0  0.31718219278E-03 -0.66801366921E-02  0.14297418667E-01  0.15792470748E-01  0.51100000000E-03 0.  1.
         11    1    4    4    0    0 -0.30093905848E-01 -0.61489029117E-01  0.88286805610E-01  0.11172002970E+00  0.51100000000E-03 0. -1.
</event>
<event>
 8    1  0.1086235E+005  0.1043930E+01  0.7957747E-01            NaN
         13   -1    0    0    0    0  0.00000000000E+00  0.00000000000E+00  0.74505805969E-08  0.10566000000E+00  0.10566000000E+00 0.  1.
     999900   -1    0    0    0    0 -0.00000000000E+00 -0.00000000000E+00 -0.74505805969E-08  0.93827000000E+00  0.93827000000E+00 0.  1.
     999902    2    1    2    0    0 -0.13025609666E-01  0.15401577528E-01  0.12475552272E-01  0.10202126118E+01  0.10199368896E+01 0.  0.
     999903    2    3    3    0    0  0.54276342302E-01 -0.91738237375E-01  0.70066178441E-01  0.12930006118E+00  0.21152090403E-01 0.  0.
         14    1    1    2    0    0  0.13025609666E-01 -0.15401577528E-01 -0.12475552272E-01  0.23717388179E-01  0.00000000000E+00 0. -1.
     999901    1    3    3    0    0 -0.67301951968E-01  0.10713981490E+00 -0.57590626168E-01  0.89091255065E+00  0.88000000000E+00 0.  1.
        -11    1    4    4    0    0  0.13801954026E-01 -0.16816028350E-01  0.24315923560E-01  0.32631242758E-01  0.51100000000E-03 0. -1.
         11    1    4    4    0    0  0.40474388277E-01 -0.74922209025E-01  0.45750254881E-01  0.96668818417E-01  0.51100000000E-03 0.  1.
</event>
<event>
 8    1  0.1086235E+005  0.1043930E+01  0.7957747E-01            NaN
         13   -1    0    0    0    0  0.00000000000E+00  0.00000000000E+00  0.74505805969E-08  0.10566000000E+00  0.10566000000E+00 0.  1.
     999900   -1    0    0    0    0 -0.00000000000E+00 -0.00000000000E+00 -0.74505805969E-08  0.93827000000E+00  0.93827000000E+00 0.  1.
     999902    2    1    2    0    0  0.75625324350E-02  0.21872639941E-02  0.22104624054E-01  0.10204653367E+01  0.10201955268E+01 0.  0.
     999903    2    3    3    0    0  0.42232678984E-01 -0.98447374194E-01  0.75270916572E-01  0.13245857762E+00  0.20101722385E-01 0.  0.
         14    1    1    2    0    0 -0.75625324350E-02 -0.21872639941E-02 -0.22104624054E-01  0.23464663330E-01  0.00000000000E+00 0. -1.
     999901    1    3    3    0    0 -0.34670146549E-01  0.10063463819E+00 -0.53166292518E-01  0.88800675905E+00  0.88000000000E+00 0.  1.
        -11    1    4    4    0    0  0.31453018654E-01 -0.54226567672E-01  0.51355141485E-01  0.81039648950E-01  0.51100000000E-03 0.  1.
         11    1    4    4    0    0  0.10779660330E-01 -0.44220806521E-01  0.23915775087E-01  0.51418928667E-01  0.51100000000E-03 0. -1.
</event>
<event>
 8    1  0.1086235E+005  0.1043930E+01  0.7957747E-01            NaN
         13   -1    0    0    0    0  0.00000000000E+00  0.00000000000E+00  0.74505805969E-08  0.10566000000E+00  0.10566000000E+00 0.  1.
     999900   -1    0    0    0    0 -0.00000000000E+00 -0.00000000000E+00 -0.74505805969E-08  0.93827000000E+00  0.93827000000E+00 0.  1.
     999902    2    1    2    0    0 -0.98715106414E-02  0.16031979251E-01 -0.90282580241E-02  0.10230498534E+01  0.10228367523E+01 0.  0.
     999903    2    3    3    0    0  0.98775551740E-01 -0.43061293124E-01 -0.74761582590E-01  0.13197349918E+00  0.14725001459E-01 0.  0.
         14    1    1    2    0    0  0.98715106414E-02 -0.16031979251E-01  0.90282580241E-02  0.20880146647E-01  0.00000000000E+00 0. -1.
     999901    1    3    3    0    0 -0.10864706238E+00  0.59093272375E-01  0.65733324566E-01  0.89107635417E+00  0.88000000000E+00 0.  1.
        -11    1    4    4    0    0  0.48244099437E-01 -0.20189835986E-01 -0.27442208747E-01  0.59063174225E-01  0.51100000000E-03 0. -1.
         11    1    4    4    0    0  0.50531452303E-01 -0.22871457139E-01 -0.47319373843E-01  0.72910324958E-01  0.51100000000E-03 0.  1.
</event>
<event>
 8    1  0.1086235E+005  0.1043930E+01  0.7957747E-01            NaN
         13   -1    0    0    0    0  0.00000000000E+00  0.00000000000E+00  0.74505805969E-08  0.10566000000E+00  0.10566000000E+00 0. -1.
     999900   -1    0    0    0    0 -0.00000000000E+00 -0.00000000000E+00 -0.74505805969E-08  0.93827000000E+00  0.93827000000E+00 0.  1.
     999902    2    1    2    0    0 -0.43900902243E-02 -0.88163947823E-02  0.20416943098E-01  0.10212616680E+01  0.10210100594E+01 0.  0.
     999903    2    3    3    0    0 -0.79150039331E-01  0.59058687416E-01  0.86866774205E-01  0.13299838677E+00  0.19750370540E-01 0.  0.
         14    1    1    2    0    0  0.43900902243E-02  0.88163947823E-02 -0.20416943098E-01  0.22668331977E-01  0.00000000000E+00 0.  1.
     999901    1    3    3    0    0  0.74759949107E-01 -0.67875082198E-01 -0.66449831107E-01  0.88826328126E+00  0.88000000000E+00 0.  1.
        -11    1    4    4    0    0 -0.33243975619E-01  0.20548066510E-01  0.46515044056E-01  0.60756031773E-01  0.51100000000E-03 0.  1.
         11    1    4    4    0    0 -0.45906063712E-01  0.38510620906E-01  0.40351730149E-01  0.72242354994E-01  0.51100000000E-03 0. -1.
</event>
<event>
 8    1  0.1086235E+005  0.1043930E+01  0.7957747E-01            NaN
         13   -1    0    0    0    0  0.00000000000E+00  0.00000000000E+00  0.74505805969E-08  0.10566000000E+00  0.10566000000E+00 0. -1.
     999900   -1    0    0    0    0 -0.00000000000E+00 -0.00000000000E+00 -0.74505805969E-08  0.93827000000E+00  0.93827000000E+00 0. -1.
     999902    2    1    2    0    0  0.14699814279E-01  0.16380034762E-02  0.18080368485E-01  0.10205704769E+01  0.10203031074E+01 0.  0.
     999903    2    3    3    0    0 -0.53691657145E-01 -0.11629518694E-02  0.11919167971E+00  0.13213998666E+00  0.19239881972E-01 0.  0.
         14    1    1    2    0    0 -0.14699814279E-01 -0.16380034762E-02 -0.18080368485E-01  0.23359523107E-01  0.00000000000E+00 0.  1.
     999901    1    3    3    0    0  0.68391471425E-01  0.28009553456E-02 -0.10111131123E+00  0.88843049023E+00  0.88000000000E+00 0. -1.
        -11    1    4    4    0    0 -0.85686382421E-02 -0.72918158787E-02  0.19065050067E-01  0.22143382650E-01  0.51100000000E-03 0. -1.
         11    1    4    4    0    0 -0.45123018903E-01  0.61288640093E-02  0.10012662965E+00  0.10999660401E+00  0.51100000000E-03 0.  1.
</event>
<event>
 8    1  0.1086235E+005  0.1043930E+01  0.7957747E-01            NaN
         13   -1    0    0    0    0  0.00000000000E+00  0.00000000000E+00  0.74505805969E-08  0.10566000000E+00  0.10566000000E+00 0. -1.
     999900   -1    0    0    0    0 -0.00000000000E+00 -0.00000000000E+00 -0.74505805969E-08  0.93827000000E+00  0.93827000000E+00 0. -1.
     999902    2    1    2    0    0 -0.10181196231E-01 -0.39752956491E-02 -0.22543271717E-01  0.10188768798E+01  0.10185688182E+01 0.  0.
     999903    2    3    3    0    0  0.94643222050E-01 -0.59615547923E-01 -0.62792011008E-01  0.12999895941E+00  0.21107812933E-01 0.  0.
         14    1    1    2    0    0  0.10181196231E-01  0.39752956491E-02  0.22543271717E-01  0.25053120202E-01  0.00000000000E+00 0. -1.
     999901    1    3    3    0    0 -0.10482441828E+00  0.55640252274E-01  0.40248739291E-01  0.88887792039E+00  0.88000000000E+00 0.  1.
        -11    1    4    4    0    0  0.37966278026E-01 -0.20429448099E-01 -0.35625677710E-01  0.55930766579E-01  0.51100000000E-03 0.  1.
         11    1    4    4    0    0  0.56676944023E-01 -0.39186099823E-01 -0.27166333298E-01  0.74068192829E-01  0.51100000000E-03 0. -1.
</event>
<event>
 8    1  0.1086235E+005  0.1043930E+01  0.7957747E-01            NaN
         13   -1    0    0    0    0  0.00000000000E+00  0.00000000000E+00  0.74505805969E-08  0.10566000000E+00  0.10566000000E+00 0. -1.
     999900   -1    0    0    0    0 -0.00000000000E+00 -0.00000000000E+00 -0.74505805969E-08  0.93827000000E+00  0.93827000000E+00 0. -1.
     999902    2    1    2    0    0 -0.62713875129E-02 -0.12620230168E-01 -0.18469095449E-01  0.10206983837E+01  0.10204339677E+01 0.  0.
     999903    2    3    3    0    0 -0.18372460366E-01  0.86142864835E-01  0.91052295904E-01  0.12834446281E+00  0.20582518874E-01 0.  0.
         14    1    1    2    0    0  0.62713875129E-02  0.12620230168E-01  0.18469095449E-01  0.23231616335E-01  0.00000000000E+00 0. -1.
     999901    1    3    3    0    0  0.12101072853E-01 -0.98763095002E-01 -0.10952139135E+00  0.89235392085E+00  0.88000000000E+00 0. -1.
        -11    1    4    4    0    0 -0.35726948804E-02  0.53867581318E-01  0.45626477642E-01  0.70686045644E-01  0.51100000000E-03 0. -1.
         11    1    4    4    0    0 -0.14799765485E-01  0.32275283516E-01  0.45425818263E-01  0.57658417168E-01  0.51100000000E-03 0.  1.
</event>
<event>
 8    1  0.1086235E+005  0.1043930E+01  0.7957747E-01            NaN
         13   -1    0    0    0    0  0.00000000000E+00  0.00000000000E+00  0.74505805969E-08  0.10566000000E+00  0.10566000000E+00 0. -1.
     999900   -1    0    0    0    0 -0.00000000000E+00 -0.00000000000E+00 -0.74505805969E-08  0.93827000000E+00  0.93827000000E+00 0. -1.
     999902    2    1    2    0    0  0.26447962582E-02 -0.17009437217E-01  0.15973855475E-01  0.10204463895E+01  0.10201761387E+01 0.  0.
     999903    2    3    3    0    0  0.27208453754E-01  0.96750269180E-01 -0.76603121101E-01  0.12796942028E+00  0.20179688332E-01 0.  0.
         14    1    1    2    0    0 -0.26447962582E-02  0.17009437217E-01 -0.15973855475E-01  0.23483610464E-01  0.00000000000E+00 0.  1.
     999901    1    3    3    0    0 -0.24563657495E-01 -0.11375970640E+00  0.92576976576E-01  0.89247696926E+00  0.88000000000E+00 0. -1.
        -11    1    4    4    0    0  0.11916117449E-01  0.69650424140E-01 -0.45968916545E-01  0.84300521038E-01  0.51100000000E-03 0. -1.
         11    1    4    4    0    0  0.15292336305E-01  0.27099845040E-01 -0.30634204556E-01  0.43668899237E-01  0.51100000000E-03 0.  1.
</event>
<event>
 8    1  0.1086235E+005  0.1043930E+01  0.7957747E-01            NaN
         13   -1    0    0    0    0  0.00000000000E+00  0.00000000000E+00  0.74505805969E-08  0.10566000000E+00  0.10566000000E+00 0. -1.
     999900   -1    0    0    0    0 -0.00000000000E+00 -0.00000000000E+00 -0.74505805969E-08  0.93827000000E+00  0.93827000000E+00 0. -1.
     999902    2    1    2    0    0 -0.16917984289E-01 -0.38856273664E-02 -0.16040521462E-01  0.10202949705E+01  0.10200211822E+01 0.  0.
     999903    2    3    3    0    0  0.12005477158E+00  0.25081993830E-01 -0.34596455826E-01  0.12903463721E+00  0.20267418445E-01 0.  0.
         14    1    1    2    0    0  0.16917984289E-01  0.38856273664E-02  0.16040521462E-01  0.23635029537E-01  0.00000000000E+00 0. -1.
     999901    1    3    3    0    0 -0.13697275587E+00 -0.28967621196E-01  0.18555934364E-01  0.89126033325E+00  0.88000000000E+00 0.  1.
        -11    1    4    4    0    0  0.76941254474E-01  0.63811378877E-02 -0.24078158592E-01  0.80874559677E-01  0.51100000000E-03 0.  1.
         11    1    4    4    0    0  0.43113517108E-01  0.18700855942E-01 -0.10518297234E-01  0.48160077534E-01  0.51100000000E-03 0. -1.
</event>
<event>
 8    1  0.1086235E+005  0.1043930E+01  0.7957747E-01            NaN
         13   -1    0    0    0    0  0.00000000000E+00  0.00000000000E+00  0.74505805969E-08  0.10566000000E+00  0.10566000000E+00 0. -1.
     999900   -1    0    0    0    0 -0.00000000000E+00 -0.00000000000E+00 -0.74505805969E-08  0.93827000000E+00  0.93827000000E+00 0. -1.
     999902    2    1    2    0    0 -0.13609852325E-01  0.12693397738E-01 -0.15058685604E-01  0.10199901913E+01  0.10197092115E+01 0.  0.
     999903    2    3    3    0    0  0.70900730127E-01 -0.52527755609E-01 -0.93408747179E-01  0.13008313466E+00  0.20257078539E-01 0.  0.
         14    1    1    2    0    0  0.13609852325E-01 -0.12693397738E-01  0.15058685604E-01  0.23939808657E-01  0.00000000000E+00 0.  1.
     999901    1    3    3    0    0 -0.84510582451E-01  0.65221153347E-01  0.78350061575E-01  0.88990705669E+00  0.88000000000E+00 0.  1.
        -11    1    4    4    0    0  0.33545233244E-01 -0.13227473454E-01 -0.32649237068E-01  0.48646505831E-01  0.51100000000E-03 0.  1.
         11    1    4    4    0    0  0.37355496882E-01 -0.39300282155E-01 -0.60759510110E-01  0.81436628826E-01  0.51100000000E-03 0. -1.
</event>
<event>
 8    1  0.1086235E+005  0.1043930E+01  0.7957747E-01            NaN
         13   -1    0    0    0    0  0.00000000000E+00  0.00000000000E+00  0.74505805969E-08  0.10566000000E+00  0.10566000000E+00 0.  1.
     999900   -1    0    0    0    0 -0.00000000000E+00 -0.00000000000E+00 -0.74505805969E-08  0.93827000000E+00  0.93827000000E+00 0. -1.
     999902    2    1    2    0    0 -0.17144141455E-01  0.13682429847E-01  0.97808079520E-02  0.10199134499E+01  0.10196306442E+01 0.  0.
     999903    2    3    3    0    0 -0.26857837652E-01  0.12412569556E+00 -0.30822225280E-01  0.13202794091E+00  0.18783925772E-01 0.  0.
         14    1    1    2    0    0  0.17144141455E-01 -0.13682429847E-01 -0.97808079520E-02  0.24016550064E-01  0.00000000000E+00 0.  1.
     999901    1    3    3    0    0  0.97136961966E-02 -0.11044326571E+00  0.40603033232E-01  0.88788550903E+00  0.88000000000E+00 0.  1.
        -11    1    4    4    0    0 -0.21213109429E-01  0.56353251717E-01 -0.17712822426E-01  0.62766951415E-01  0.51100000000E-03 0. -1.
         11    1    4    4    0    0 -0.56447282229E-02  0.67772443844E-01 -0.13109402854E-01  0.69260989493E-01  0.51100000000E-03 0.  1.
</event>
<event>
 8    1  0.1086235E+005  0.1043930E+01  0.7957747E-01            NaN
         13   -1    0    0    0    0  0.00000000000E+00  0.00000000000E+00  0.74505805969E-08  0.10566000000E+00  0.10566000000E+00 0. -1.
     999900   -1    0    0    0    0 -0.00000000000E+00 -0.00000000000E+00 -0.74505805969E-08  0.93827000000E+00  0.93827000000E+00 0. -1.
     999902    2    1    2    0    0 -0.25364799327E-02 -0.22010789650E-01 -0.95884379138E-02  0.10197877811E+01  0.10195019724E+01 0.  0.
     999903    2    3    3    0    0  0.12388702788E+00  0.29207932911E-01  0.69698063325E-02  0.12912486152E+00  0.20580394590E-01 0.  0.
         14    1    1    2    0    0  0.25364799327E-02  0.22010789650E-01  0.95884379138E-02  0.24142218893E-01  0.00000000000E+00 0. -1.
     999901    1    3    3    0    0 -0.12642350781E+00 -0.51218722561E-01 -0.16558244246E-01  0.89066291958E+00  0.88000000000E+00 0.  1.
        -11    1    4    4    0    0  0.43075041156E-01  0.74549755694E-02  0.11839688685E-01  0.45293213404E-01  0.51100000000E-03 0. -1.
         11    1    4    4    0    0  0.80811986724E-01  0.21752957342E-01 -0.48698823523E-02  0.83831648120E-01  0.51100000000E-03 0.  1.
</event>
<event>
 8    1  0.1086235E+005  0.1043930E+01  0.7957747E-01            NaN
         13   -1    0    0    0    0  0.00000000000E+00  0.00000000000E+00  0.74505805969E-08  0.10566000000E+00  0.10566000000E+00 0.  1.
     999900   -1    0    0    0    0 -0.00000000000E+00 -0.00000000000E+00 -0.74505805969E-08  0.93827000000E+00  0.93827000000E+00 0. -1.
     999902    2    1    2    0    0 -0.14297049679E-01 -0.13240184180E-01 -0.11449807187E-01  0.10213289781E+01  0.10210788781E+01 0.  0.
     999903    2    3    3    0    0 -0.11396746130E+00 -0.63685979012E-01 -0.23286984973E-01  0.13418801525E+00  0.20485448730E-01 0.  0.
         14    1    1    2    0    0  0.14297049679E-01  0.13240184180E-01  0.11449807187E-01  0.22601021908E-01  0.00000000000E+00 0. -1.
     999901    1    3    3    0    0  0.99670411625E-01  0.50445794832E-01  0.11837177786E-01  0.88714096284E+00  0.88000000000E+00 0.  1.
        -11    1    4    4    0    0 -0.57422979858E-01 -0.23775625144E-01 -0.18325499625E-01  0.64797870522E-01  0.51100000000E-03 0. -1.
         11    1    4    4    0    0 -0.56544481446E-01 -0.39910353868E-01 -0.49614853479E-02  0.69390144731E-01  0.51100000000E-03 0.  1.
</event>
<event>
 8    1  0.1086235E+005  0.1043930E+01  0.7957747E-01            NaN
         13   -1    0    0    0    0  0.00000000000E+00  0.00000000000E+00  0.74505805969E-08  0.10566000000E+00  0.10566000000E+00 0. -1.
     999900   -1    0    0    0    0 -0.00000000000E+00 -0.00000000000E+00 -0.74505805969E-08  0.93827000000E+00  0.93827000000E+00 0. -1.
     999902    2    1    2    0    0  0.99046192278E-02  0.96347838347E-03  0.21157044301E-01  0.10205494462E+01  0.10202815895E+01 0.  0.
     999903    2    3    3    0    0  0.56332206356E-03  0.10344174653E+00  0.79957053911E-01  0.13260434857E+00  0.22142053459E-01 0.  0.
         14    1    1    2    0    0 -0.99046192278E-02 -0.96347838347E-03 -0.21157044301E-01  0.23380553804E-01  0.00000000000E+00 0.  1.
     999901    1    3    3    0    0  0.93412971643E-02 -0.10247826815E+00 -0.58800009610E-01  0.88794509763E+00  0.88000000000E+00 0.  1.
        -11    1    4    4    0    0 -0.44414012838E-02  0.30925900074E-01  0.35945885092E-01  0.47628826532E-01  0.51100000000E-03 0. -1.
         11    1    4    4    0    0  0.50047233473E-02  0.72515846457E-01  0.44011168818E-01  0.84975522034E-01  0.51100000000E-03 0.  1.
</event>
<event>
 8    1  0.1086235E+005  0.1043930E+01  0.7957747E-01            NaN
         13   -1    0    0    0    0  0.00000000000E+00  0.00000000000E+00  0.74505805969E-08  0.10566000000E+00  0.10566000000E+00 0.  1.
     999900   -1    0    0    0    0 -0.00000000000E+00 -0.00000000000E+00 -0.74505805969E-08  0.93827000000E+00  0.93827000000E+00 0. -1.
     999902    2    1    2    0    0  0.16115582295E-01 -0.15595524368E-01  0.71122771710E-02  0.10204030610E+01  0.10201318003E+01 0.  0.
     999903    2    3    3    0    0  0.12576027629E+00  0.32091098953E-01  0.15567652655E-01  0.13227724425E+00  0.20234421531E-01 0.  0.
         14    1    1    2    0    0 -0.16115582295E-01  0.15595524368E-01 -0.71122771710E-02  0.23526939018E-01  0.00000000000E+00 0. -1.
     999901    1    3    3    0    0 -0.10964469399E+00 -0.47686623321E-01 -0.84553754839E-02  0.88812581673E+00  0.88000000000E+00 0. -1.
        -11    1    4    4    0    0  0.83898583589E-01  0.12020266489E-01  0.67992229154E-02  0.85029110827E-01  0.51100000000E-03 0. -1.
         11    1    4    4    0    0  0.41861692696E-01  0.20070832464E-01  0.87684297395E-02  0.47248133427E-01  0.51100000000E-03 0.  1.
</event>
<event>
 8    1  0.1086235E+005  0.1043930E+01  0.7957747E-01            NaN
         13   -1    0    0    0    0  0.00000000000E+00  0.00000000000E+00  0.74505805969E-08  0.10566000000E+00  0.10566000000E+00 0.  1.
     999900   -1    0    0    0    0 -0.00000000000E+00 -0.00000000000E+00 -0.74505805969E-08  0.93827000000E+00  0.93827000000E+00 0.  1.
     999902    2    1    2    0    0  0.10962427465E-01  0.46729637107E-02  0.19302727492E-01  0.10212450558E+01  0.10209930740E+01 0.  0.
     999903    2    3    3    0    0  0.12945726484E+00 -0.21208068983E-01  0.23055958423E-02  0.13276334138E+00  0.20293433206E-01 0.  0.
         14    1    1    2    0    0 -0.10962427465E-01 -0.46729637107E-02 -0.19302727492E-01  0.22684944223E-01  0.00000000000E+00 0. -1.
     999901    1    3    3    0    0 -0.11849483738E+00  0.25881032694E-01  0.16997131650E-01  0.88848171440E+00  0.88000000000E+00 0.  1.
        -11    1    4    4    0    0  0.94048491184E-01 -0.10017696239E-01  0.90629657790E-02  0.95015111438E-01  0.51100000000E-03 0. -1.
         11    1    4    4    0    0  0.35408773657E-01 -0.11190372744E-01 -0.67573699366E-02  0.37748229939E-01  0.51100000000E-03 0.  1.
</event>
<event>
 8    1  0.1086235E+005  0.1043930E+01  0.7957747E-01            NaN
         13   -1    0    0    0    0  0.00000000000E+00  0.00000000000E+00  0.74505805969E-08  0.10566000000E+00  0.10566000000E+00 0. -1.
     999900   -1    0    0    0    0 -0.00000000000E+00 -0.00000000000E+00 -0.74505805969E-08  0.93827000000E+00  0.93827000000E+00 0. -1.
     999902    2    1    2    0    0  0.73978684843E-02  0.11768770213E-02 -0.22882519116E-01  0.10198525587E+01  0.10195683000E+01 0.  0.
     999903    2    3    3    0    0  0.95097108230E-01 -0.45453066459E-01 -0.78086046466E-01  0.13254599517E+00  0.19014966182E-01 0.  0.
         14    1    1    2    0    0 -0.73978684843E-02 -0.11768770213E-02  0.22882519116E-01  0.24077441283E-01  0.00000000000E+00 0. -1.
     999901    1    3    3    0    0 -0.87699239745E-01  0.46629943480E-01  0.55203527350E-01  0.88730656355E+00  0.88000000000E+00 0. -1.
        -11    1    4    4    0    0  0.62061155175E-01 -0.32976488771E-01 -0.41142831348E-01  0.81437273319E-01  0.51100000000E-03 0. -1.
         11    1    4    4    0    0  0.33035953055E-01 -0.12476577688E-01 -0.36943215118E-01  0.51108721852E-01  0.51100000000E-03 0.  1.
</event>
<event>
 8    1  0.1086235E+005  0.1043930E+01  0.7957747E-01            NaN
         13   -1    0    0    0    0  0.00000000000E+00  0.00000000000E+00  0.74505805969E-08  0.10566000000E+00  0.10566000000E+00 0. -1.
     999900   -1    0    0    0    0 -0.00000000000E+00 -0.00000000000E+00 -0.74505805969E-08  0.93827000000E+00  0.93827000000E+00 0. -1.
     999902    2    1    2    0    0  0.13998531406E-01  0.83169529883E-03 -0.19464591924E-01  0.10199399825E+01  0.10196578088E+01 0.  0.
     999903    2    3    3    0    0 -0.43138260828E-02  0.12377384134E+00  0.32197311742E-01  0.12970458334E+00  0.21166935546E-01 0.  0.
         14    1    1    2    0    0 -0.13998531406E-01 -0.83169529883E-03  0.19464591924E-01  0.23990017452E-01  0.00000000000E+00 0. -1.
     999901    1    3    3    0    0  0.18312357489E-01 -0.12294214604E+00 -0.51661903666E-01  0.89023539921E+00  0.88000000000E+00 0.  1.
        -11    1    4    4    0    0 -0.41437693069E-02  0.49806919030E-01  0.26475304759E-02  0.50051678753E-01  0.51100000000E-03 0.  1.
         11    1    4    4    0    0 -0.17005677588E-03  0.73966922311E-01  0.29549781266E-01  0.79652904588E-01  0.51100000000E-03 0. -1.
</event>
<event>
 8    1  0.1086235E+005  0.1043930E+01  0.7957747E-01            NaN
         13   -1    0    0    0    0  0.00000000000E+00  0.00000000000E+00  0.74505805969E-08  0.10566000000E+00  0.10566000000E+00 0. -1.
     999900   -1    0    0    0    0 -0.00000000000E+00 -0.00000000000E+00 -0.74505805969E-08  0.93827000000E+00  0.93827000000E+00 0.  1.
     999902    2    1    2    0    0 -0.35507129518E-02 -0.18611323194E-01 -0.13830789631E-01  0.10204719597E+01  0.10202023039E+01 0.  0.
     999903    2    3    3    0    0 -0.22279191937E-01 -0.11787571970E+00  0.52159224865E-01  0.13223839899E+00  0.19374254600E-01 0.  0.
         14    1    1    2    0    0  0.35507129518E-02  0.18611323194E-01  0.13830789631E-01  0.23458040312E-01  0.00000000000E+00 0. -1.
     999901    1    3    3    0    0  0.18728478985E-01  0.99264396503E-01 -0.65990014495E-01  0.88823356070E+00  0.88000000000E+00 0.  1.
        -11    1    4    4    0    0 -0.17047274614E-01 -0.43923616447E-01  0.24506859627E-01  0.53110648116E-01  0.51100000000E-03 0. -1.
         11    1    4    4    0    0 -0.52319173229E-02 -0.73952103250E-01  0.27652365237E-01  0.79127750873E-01  0.51100000000E-03 0.  1.
</event>
<event>
 8    1  0.1086235E+005  0.1043930E+01  0.7957747E-01            NaN
         13   -1    0    0    0    0  0.00000000000E+00  0.00000000000E+00  0.74505805969E-08  0.10566000000E+00  0.10566000000E+00 0. -1.
     999900   -1    0    0    0    0 -0.00000000000E+00 -0.00000000000E+00 -0.74505805969E-08  0.93827000000E+00  0.93827000000E+00 0.  1.
     999902    2    1    2    0    0  0.22732677345E-01 -0.33766307067E-02 -0.61936525346E-02  0.10201279500E+01  0.10198502325E+01 0.  0.
     999903    2    3    3    0    0  0.34837208396E-01 -0.10508248956E+00  0.67118434097E-01  0.13115929841E+00  0.21021813997E-01 0.  0.
         14    1    1    2    0    0 -0.22732677345E-01  0.33766307067E-02  0.61936525346E-02  0.23802050036E-01  0.00000000000E+00 0.  1.
     999901    1    3    3    0    0 -0.12104531050E-01  0.10170585885E+00 -0.73312086632E-01  0.88896865155E+00  0.88000000000E+00 0.  1.
        -11    1    4    4    0    0  0.54630856829E-02 -0.34307759533E-01  0.30489914540E-01  0.46225141201E-01  0.51100000000E-03 0.  1.
         11    1    4    4    0    0  0.29374122713E-01 -0.70774730024E-01  0.36628519557E-01  0.84934157211E-01  0.51100000000E-03 0. -1.
</event>
<event>
 8    1  0.1086235E+005  0.1043930E+01  0.7957747E-01            NaN
         13   -1    0    0    0    0  0.00000000000E+00  0.00000000000E+00  0.74505805969E-08  0.10566000000E+00  0.10566000000E+00 0. -1.
     999900   -1    0    0    0    0 -0.00000000000E+00 -0.00000000000E+00 -0.74505805969E-08  0.93827000000E+00  0.93827000000E+00 0. -1.
     999902    2    1    2    0    0  0.23773457996E-01 -0.23940470478E-02 -0.68766671014E-02  0.10190664259E+01  0.10187630652E+01 0.  0.
     999903    2    3    3    0    0  0.76710343474E-01 -0.78733817011E-01 -0.70226710797E-01  0.13191181573E+00  0.19632765523E-01 0.  0.
         14    1    1    2    0    0 -0.23773457996E-01  0.23940470478E-02  0.68766671014E-02  0.24863574095E-01  0.00000000000E+00 0.  1.
     999901    1    3    3    0    0 -0.52936885477E-01  0.76339769963E-01  0.63350043696E-01  0.88715461018E+00  0.88000000000E+00 0.  1.
        -11    1    4    4    0    0  0.47942638429E-01 -0.36668950794E-01 -0.43186950836E-01  0.74219151001E-01  0.51100000000E-03 0.  1.
         11    1    4    4    0    0  0.28767705045E-01 -0.42064866217E-01 -0.27039759961E-01  0.57692664726E-01  0.51100000000E-03 0. -1.
</event>
<event>
 8    1  0.1086235E+005  0.1043930E+01  0.7957747E-01            NaN
         13   -1    0    0    0    0  0.00000000000E+00  0.00000000000E+00  0.74505805969E-08  0.10566000000E+00  0.10566000000E+00 0. -1.
     999900   -1    0    0    0    0 -0.00000000000E+00 -0.00000000000E+00 -0.74505805969E-08  0.93827000000E+00  0.93827000000E+00 0. -1.
     999902    2    1    2    0    0  0.98514053952E-02 -0.20106274261E-02  0.18383584084E-01  0.10229765045E+01  0.10227618881E+01 0.  0.
     999903    2    3    3    0    0  0.71584736517E-02  0.13109730011E+00  0.32684560305E-02  0.13283413421E+00  0.19911769517E-01 0.  0.
         14    1    1    2    0    0 -0.98514053952E-02  0.20106274261E-02 -0.18383584084E-01  0.20953495524E-01  0.00000000000E+00 0.  1.
     999901    1    3    3    0    0  0.26929317435E-02 -0.13310792753E+00  0.15115128054E-01  0.89014237027E+00  0.88000000000E+00 0. -1.
        -11    1    4    4    0    0  0.60037863327E-03  0.83101814349E-01 -0.66992891436E-02  0.83375137772E-01  0.51100000000E-03 0. -1.
         11    1    4    4    0    0  0.65580950185E-02  0.47995485757E-01  0.99677451740E-02  0.49458996434E-01  0.51100000000E-03 0.  1.
</event>
<event>
 8    1  0.1640869E+005  0.1043930E+01  0.7957747E-01            NaN
         13   -1    0    0    0    0  0.00000000000E+00  0.00000000000E+00  0.74505805969E-08  0.10566000000E+00  0.10566000000E+00 0. -1.
     999900   -1    0    0    0    0 -0.00000000000E+00 -0.00000000000E+00 -0.74505805969E-08  0.93827000000E+00  0.93827000000E+00 0. -1.
     999902    2    1    2    0    0 -0.55412418776E-02 -0.54243104095E-02 -0.22178717091E-01  0.10204348091E+01  0.10201642885E+01 0.  0.
     999903    2    3    3    0    0  0.96284086212E-02  0.99438646099E-02 -0.13118118575E+00  0.13344673854E+00  0.20197570045E-01 0.  0.
         14    1    1    2    0    0  0.55412418776E-02  0.54243104095E-02  0.22178717091E-01  0.23495190928E-01  0.00000000000E+00 0. -1.
     999901    1    3    3    0    0 -0.15169650499E-01 -0.15368175019E-01  0.10900246866E+00  0.88698807054E+00  0.88000000000E+00 0.  1.
        -11    1    4    4    0    0  0.62453587667E-02  0.14736315402E-01 -0.62688962486E-01  0.64701859605E-01  0.51100000000E-03 0. -1.
         11    1    4    4    0    0  0.33830498545E-02 -0.47924507921E-02 -0.68492223262E-01  0.68744878931E-01  0.51100000000E-03 0.  1.
</event>
<event>
 8    1  0.1086235E+005  0.1043930E+01  0.7957747E-01            NaN
         13   -1    0    0    0    0  0.00000000000E+00  0.00000000000E+00  0.74505805969E-08  0.10566000000E+00  0.10566000000E+00 0.  1.
     999900   -1    0    0    0    0 -0.00000000000E+00 -0.00000000000E+00 -0.74505805969E-08  0.93827000000E+00  0.93827000000E+00 0. -1.
     999902    2    1    2    0    0  0.14274100562E-01  0.15918241945E-01 -0.10466028852E-01  0.10201249977E+01  0.10198472105E+01 0.  0.
     999903    2    3    3    0    0 -0.66050272759E-01 -0.55587364297E-01  0.91927798813E-01  0.12768477417E+00  0.20002193853E-01 0.  0.
         14    1    1    2    0    0 -0.14274100562E-01 -0.15918241945E-01  0.10466028852E-01  0.23805002277E-01  0.00000000000E+00 0.  1.
     999901    1    3    3    0    0  0.80324373321E-01  0.71505606242E-01 -0.10239382766E+00  0.89244022355E+00  0.88000000000E+00 0. -1.
        -11    1    4    4    0    0 -0.66097009257E-01 -0.49997929775E-01  0.87636529286E-01  0.12061935998E+00  0.51100000000E-03 0.  1.
         11    1    4    4    0    0  0.46736498245E-04 -0.55894345219E-02  0.42912695276E-02  0.70654141940E-02  0.51100000000E-03 0. -1.
</event>
<event>
 8    1  0.1086235E+005  0.1043930E+01  0.7957747E-01            NaN
         13   -1    0    0    0    0  0.00000000000E+00  0.00000000000E+00  0.74505805969E-08  0.10566000000E+00  0.10566000000E+00 0. -1.
     999900   -1    0    0    0    0 -0.00000000000E+00 -0.00000000000E+00 -0.74505805969E-08  0.93827000000E+00  0.93827000000E+00 0. -1.
     999902    2    1    2    0    0  0.23178821655E-01  0.29897414378E-02 -0.62590956499E-02  0.10197355253E+01  0.10194484631E+01 0.  0.
     999903    2    3    3    0    0 -0.76330787592E-01 -0.35282664198E-01 -0.95494280685E-01  0.12882034550E+00  0.20106422963E-01 0.  0.
         14    1    1    2    0    0 -0.23178821655E-01 -0.29897414378E-02  0.62590956499E-02  0.24194474690E-01  0.00000000000E+00 0.  1.
     999901    1    3    3    0    0  0.99509609246E-01  0.38272405636E-01  0.89235185035E-01  0.89091517981E+00  0.88000000000E+00 0.  1.
        -11    1    4    4    0    0 -0.68594918251E-01 -0.32629995365E-01 -0.74999024293E-01  0.10674780641E+00  0.51100000000E-03 0.  1.
         11    1    4    4    0    0 -0.77358693404E-02 -0.26526688327E-02 -0.20495256391E-01  0.22072539091E-01  0.51100000000E-03 0. -1.
</event>
<event>
 8    1  0.1086235E+005  0.1043930E+01  0.7957747E-01            NaN
         13   -1    0    0    0    0  0.00000000000E+00  0.00000000000E+00  0.74505805969E-08  0.10566000000E+00  0.10566000000E+00 0. -1.
     999900   -1    0    0    0    0 -0.00000000000E+00 -0.00000000000E+00 -0.74505805969E-08  0.93827000000E+00  0.93827000000E+00 0. -1.
     999902    2    1    2    0    0 -0.20574454342E-01  0.81993392724E-02  0.18075328749E-02  0.10217082874E+01  0.10214666025E+01 0.  0.
     999903    2    3    3    0    0  0.92431927823E-01  0.61089186167E-01  0.66101845403E-01  0.13058453789E+00  0.20182111430E-01 0.  0.
         14    1    1    2    0    0  0.20574454342E-01 -0.81993392724E-02 -0.18075328749E-02  0.22221712605E-01  0.00000000000E+00 0. -1.
     999901    1    3    3    0    0 -0.11300638217E+00 -0.52889846894E-01 -0.64294312528E-01  0.89112374951E+00  0.88000000000E+00 0. -1.
        -11    1    4    4    0    0  0.49314286479E-01  0.38734563940E-01  0.27197290944E-01  0.68353632312E-01  0.51100000000E-03 0.  1.
         11    1    4    4    0    0  0.43117641344E-01  0.22354622227E-01  0.38904554459E-01  0.62230905575E-01  0.51100000000E-03 0. -1.
</event>
<event>
 8    1  0.1086235E+005  0.1043930E+01  0.7957747E-01            NaN
         13   -1    0    0    0    0  0.00000000000E+00  0.00000000000E+00  0.74505805969E-08  0.10566000000E+00  0.10566000000E+00 0. -1.
     999900   -1    0    0    0    0 -0.00000000000E+00 -0.00000000000E+00 -0.74505805969E-08  0.93827000000E+00  0.93827000000E+00 0.  1.
     999902    2    1    2    0    0  0.18188416962E-01  0.12987020490E-01  0.95209625575E-02  0.10196374098E+01  0.10193479864E+01 0.  0.
     999903    2    3    3    0    0  0.11128878169E+00 -0.61752236664E-01 -0.23339366528E-01  0.13096793481E+00  0.20232208345E-01 0.  0.
         14    1    1    2    0    0 -0.18188416962E-01 -0.12987020490E-01 -0.95209625575E-02  0.24292590245E-01  0.00000000000E+00 0.  1.
     999901    1    3    3    0    0 -0.93100364731E-01  0.74739257155E-01  0.32860329086E-01  0.88866947495E+00  0.88000000000E+00 0.  1.
        -11    1    4    4    0    0  0.51207668637E-01 -0.23479328507E-01 -0.11267506550E-02  0.56347447878E-01  0.51100000000E-03 0. -1.
         11    1    4    4    0    0  0.60081113056E-01 -0.38272908157E-01 -0.22212615873E-01  0.74620486931E-01  0.51100000000E-03 0.  1.
</event>
<event>
 8    1  0.1086235E+005  0.1043930E+01  0.7957747E-01            NaN
         13   -1    0    0    0    0  0.00000000000E+00  0.00000000000E+00  0.74505805969E-08  0.10566000000E+00  0.10566000000E+00 0. -1.
     999900   -1    0    0    0    0 -0.00000000000E+00 -0.00000000000E+00 -0.74505805969E-08  0.93827000000E+00  0.93827000000E+00 0. -1.
     999902    2    1    2    0    0 -0.17977052060E-01  0.99888200375E-02  0.11705991704E-01  0.10202660788E+01  0.10199916129E+01 0.  0.
     999903    2    3    3    0    0  0.58751588307E-01 -0.11248457029E+00  0.16822968295E-03  0.12840278456E+00  0.19563207813E-01 0.  0.
         14    1    1    2    0    0  0.17977052060E-01 -0.99888200375E-02 -0.11705991704E-01  0.23663921237E-01  0.00000000000E+00 0. -1.
     999901    1    3    3    0    0 -0.76728640367E-01  0.12247339033E+00  0.11537762021E-01  0.89186329420E+00  0.88000000000E+00 0. -1.
        -11    1    4    4    0    0  0.25623489557E-01 -0.58372879292E-01  0.88491231601E-02  0.64362445227E-01  0.51100000000E-03 0. -1.
         11    1    4    4    0    0  0.33128098750E-01 -0.54111690999E-01 -0.86808934772E-02  0.64040339335E-01  0.51100000000E-03 0.  1.
</event>
<event>
 8    1  0.1086235E+005  0.1043930E+01  0.7957747E-01            NaN
         13   -1    0    0    0    0  0.00000000000E+00  0.00000000000E+00  0.74505805969E-08  0.10566000000E+00  0.10566000000E+00 0.  1.
     999900   -1    0    0    0    0 -0.00000000000E+00 -0.00000000000E+00 -0.74505805969E-08  0.93827000000E+00  0.93827000000E+00 0. -1.
     999902    2    1    2    0    0  0.20591641400E-01 -0.90288391737E-02 -0.83542539499E-02  0.10199439793E+01  0.10196619006E+01 0.  0.
     999903    2    3    3    0    0  0.79018237324E-02 -0.54308664244E-01  0.11606935924E+00  0.12994817614E+00  0.20063960180E-01 0.  0.
         14    1    1    2    0    0 -0.20591641400E-01  0.90288391737E-02  0.83542539499E-02  0.23986020750E-01  0.00000000000E+00 0. -1.
     999901    1    3    3    0    0  0.12689817667E-01  0.45279825071E-01 -0.12442361319E+00  0.88999580311E+00  0.88000000000E+00 0. -1.
        -11    1    4    4    0    0  0.12742446834E-01 -0.20395055860E-01  0.51983272577E-01  0.57278704626E-01  0.51100000000E-03 0. -1.
         11    1    4    4    0    0 -0.48406231020E-02 -0.33913608384E-01  0.64086086663E-01  0.72669471516E-01  0.51100000000E-03 0.  1.
</event>
<event>
 8    1  0.1086235E+005  0.1043930E+01  0.7957747E-01            NaN
         13   -1    0    0    0    0  0.00000000000E+00  0.00000000000E+00  0.74505805969E-08  0.10566000000E+00  0.10566000000E+00 0. -1.
     999900   -1    0    0    0    0 -0.00000000000E+00 -0.00000000000E+00 -0.74505805969E-08  0.93827000000E+00  0.93827000000E+00 0. -1.
     999902    2    1    2    0    0 -0.90348662783E-02  0.10108550527E-01 -0.19563577963E-01  0.10201277903E+01  0.10198500691E+01 0.  0.
     999903    2    3    3    0    0 -0.24101215723E-01  0.63714626869E-01 -0.11323659032E+00  0.13340616572E+00  0.18282707370E-01 0.  0.
         14    1    1    2    0    0  0.90348662783E-02 -0.10108550527E-01  0.19563577963E-01  0.23802209669E-01  0.00000000000E+00 0. -1.
     999901    1    3    3    0    0  0.15066349445E-01 -0.53606076342E-01  0.93673012357E-01  0.88672162461E+00  0.88000000000E+00 0.  1.
        -11    1    4    4    0    0 -0.20190363089E-01  0.31779013065E-01 -0.51629253535E-01  0.63901466138E-01  0.51100000000E-03 0.  1.
         11    1    4    4    0    0 -0.39108526337E-02  0.31935613804E-01 -0.61607336785E-01  0.69504699583E-01  0.51100000000E-03 0. -1.
</event>
<event>
 8    1  0.1086235E+005  0.1043930E+01  0.7957747E-01            NaN
         13   -1    0    0    0    0  0.00000000000E+00  0.00000000000E+00  0.74505805969E-08  0.10566000000E+00  0.10566000000E+00 0. -1.
     999900   -1    0    0    0    0 -0.00000000000E+00 -0.00000000000E+00 -0.74505805969E-08  0.93827000000E+00  0.93827000000E+00 0.  1.
     999902    2    1    2    0    0 -0.10462130399E-01  0.18803976136E-01  0.60592358109E-02  0.10215746868E+01  0.10213300547E+01 0.  0.
     999903    2    3    3    0    0  0.10931644376E-01 -0.12680907302E+00 -0.14029132585E-01  0.12912614695E+00  0.16634404596E-01 0.  0.
         14    1    1    2    0    0  0.10462130399E-01 -0.18803976136E-01 -0.60592358109E-02  0.22355313230E-01  0.00000000000E+00 0. -1.
     999901    1    3    3    0    0 -0.21393774775E-01  0.14561304915E+00  0.20088368396E-01  0.89244853982E+00  0.88000000000E+00 0. -1.
        -11    1    4    4    0    0  0.68939998694E-03 -0.38319439927E-02  0.24474017556E-02  0.46270901718E-02  0.51100000000E-03 0. -1.
         11    1    4    4    0    0  0.10242244389E-01 -0.12297712903E+00 -0.16476534340E-01  0.12449905678E+00  0.51100000000E-03 0.  1.
</event>
<event>
 8    1  0.1086235E+005  0.1043930E+01  0.7957747E-01            NaN
         13   -1    0    0    0    0  0.00000000000E+00  0.00000000000E+00  0.74505805969E-08  0.10566000000E+00  0.10566000000E+00 0.  1.
     999900   -1    0    0    0    0 -0.00000000000E+00 -0.00000000000E+00 -0.74505805969E-08  0.93827000000E+00  0.93827000000E+00 0. -1.
     999902    2    1    2    0    0  0.39841283772E-02  0.23799064630E-01  0.52390688422E-03  0.10197940676E+01  0.10195084095E+01 0.  0.
     999903    2    3    3    0    0  0.31259578382E-01 -0.72716058478E-01  0.99451506024E-01  0.12858938342E+00  0.19489511984E-01 0.  0.
         14    1    1    2    0    0 -0.39841283772E-02 -0.23799064630E-01 -0.52390688422E-03  0.24135932437E-01  0.00000000000E+00 0. -1.
     999901    1    3    3    0    0 -0.27275450005E-01  0.96515123108E-01 -0.98927599140E-01  0.89120468414E+00  0.88000000000E+00 0. -1.
        -11    1    4    4    0    0  0.22449951336E-01 -0.30514119718E-01  0.39365154713E-01  0.54635046845E-01  0.51100000000E-03 0.  1.
         11    1    4    4    0    0  0.88096270460E-02 -0.42201938760E-01  0.60086351311E-01  0.73954336578E-01  0.51100000000E-03 0. -1.
</event>
<event>
 8    1  0.1086235E+005  0.1043930E+01  0.7957747E-01            NaN
         13   -1    0    0    0    0  0.00000000000E+00  0.00000000000E+00  0.74505805969E-08  0.10566000000E+00  0.10566000000E+00 0.  1.
     999900   -1    0    0    0    0 -0.00000000000E+00 -0.00000000000E+00 -0.74505805969E-08  0.93827000000E+00  0.93827000000E+00 0.  1.
     999902    2    1    2    0    0 -0.11124395051E-01  0.73280804105E-02  0.19468982990E-01  0.10203398701E+01  0.10200671333E+01 0.  0.
     999903    2    3    3    0    0  0.87777431905E-02 -0.12297948216E+00 -0.32309865038E-01  0.12901658140E+00  0.20008725289E-01 0.  0.
         14    1    1    2    0    0  0.11124395051E-01 -0.73280804105E-02 -0.19468982990E-01  0.23590129852E-01  0.00000000000E+00 0. -1.
     999901    1    3    3    0    0 -0.19902138242E-01  0.13030756257E+00  0.51778848028E-01  0.89132328875E+00  0.88000000000E+00 0. -1.
        -11    1    4    4    0    0  0.13342734338E-02 -0.69693463805E-01 -0.27712595674E-01  0.75014720307E-01  0.51100000000E-03 0.  1.
         11    1    4    4    0    0  0.74434697567E-02 -0.53286018357E-01 -0.45972693640E-02  0.54001861088E-01  0.51100000000E-03 0. -1.
</event>
<event>
 7    1  0.1309916E+005  0.1043930E+01  0.7957747E-01            NaN
         13   -1    0    0    0    0  0.00000000000E+00  0.00000000000E+00  0.74505805969E-08  0.10566000000E+00  0.10566000000E+00 0.  1.
     999900   -1    0    0    0    0 -0.00000000000E+00 -0.00000000000E+00 -0.74505805969E-08  0.93827000000E+00  0.93827000000E+00 0. -1.
     999903    2    1    2    0    0  0.57866516960E-01  0.48322745794E-01 -0.67201511001E-01  0.10287746574E+00  0.19598681860E-01 0.  0.
         14    1    1    2    0    0 -0.43412770817E-01  0.95968460161E-02 -0.30081851238E-01  0.53681336584E-01  0.00000000000E+00 0.  1.
     999901    1    1    2    0    0 -0.14453746142E-01 -0.57919591810E-01  0.97283362239E-01  0.88737119767E+00  0.88000000000E+00 0.  1.
        -11    1    3    3    0    0  0.27149885962E-01  0.16639014259E-01 -0.17233491756E-01  0.36210874919E-01  0.51100000000E-03 0. -1.
         11    1    3    3    0    0  0.30716630998E-01  0.31683731534E-01 -0.49968019244E-01  0.66666590823E-01  0.51100000000E-03 0.  1.
</event>
<event>
 8    1  0.1086235E+005  0.1043930E+01  0.7957747E-01            NaN
         13   -1    0    0    0    0  0.00000000000E+00  0.00000000000E+00  0.74505805969E-08  0.10566000000E+00  0.10566000000E+00 0.  1.
     999900   -1    0    0    0    0 -0.00000000000E+00 -0.00000000000E+00 -0.74505805969E-08  0.93827000000E+00  0.93827000000E+00 0. -1.
     999902    2    1    2    0    0 -0.77350090281E-03 -0.22997258023E-01  0.14556059140E-02  0.10208737434E+01  0.10206133494E+01 0.  0.
     999903    2    3    3    0    0 -0.50896092451E-01  0.10338314549E-01  0.11868073056E+00  0.13106181695E+00  0.19869350364E-01 0.  0.
         14    1    1    2    0    0  0.77350090281E-03  0.22997258023E-01 -0.14556059140E-02  0.23056256608E-01  0.00000000000E+00 0.  1.
     999901    1    3    3    0    0  0.50122591548E-01 -0.33335572572E-01 -0.11722512464E+00  0.88981192644E+00  0.88000000000E+00 0. -1.
        -11    1    4    4    0    0 -0.28107822470E-01  0.14867536788E-01  0.59177179039E-01  0.67181046241E-01  0.51100000000E-03 0.  1.
         11    1    4    4    0    0 -0.22788269981E-01 -0.45292222390E-02  0.59503551517E-01  0.63880770713E-01  0.51100000000E-03 0. -1.
</event>
<event>
 8    1  0.1086235E+005  0.1043930E+01  0.7957747E-01            NaN
         13   -1    0    0    0    0  0.00000000000E+00  0.00000000000E+00  0.74505805969E-08  0.10566000000E+00  0.10566000000E+00 0.  1.
     999900   -1    0    0    0    0 -0.00000000000E+00 -0.00000000000E+00 -0.74505805969E-08  0.93827000000E+00  0.93827000000E+00 0.  1.
     999902    2    1    2    0    0  0.76525407842E-02 -0.55270925574E-02 -0.21841224038E-01  0.10201361100E+01  0.10198585852E+01 0.  0.
     999903    2    3    3    0    0  0.80373776288E-01 -0.83035728848E-01 -0.62243129424E-01  0.13282090067E+00  0.20305376501E-01 0.  0.
         14    1    1    2    0    0 -0.76525407842E-02  0.55270925574E-02  0.21841224038E-01  0.23793889973E-01  0.00000000000E+00 0. -1.
     999901    1    3    3    0    0 -0.72721235504E-01  0.77508636291E-01  0.40401905386E-01  0.88731520935E+00  0.88000000000E+00 0. -1.
        -11    1    4    4    0    0  0.28034817573E-01 -0.39429126832E-01 -0.18172060371E-01  0.51682607695E-01  0.51100000000E-03 0. -1.
         11    1    4    4    0    0  0.52338958715E-01 -0.43606602016E-01 -0.44071069052E-01  0.81138292977E-01  0.51100000000E-03 0.  1.
</event>
<event>
 8    1  0.1086235E+005  0.1043930E+01  0.7957747E-01            NaN
         13   -1    0    0    0    0  0.00000000000E+00  0.00000000000E+00  0.74505805969E-08  0.10566000000E+00  0.10566000000E+00 0. -1.
     999900   -1    0    0    0    0 -0.00000000000E+00 -0.00000000000E+00 -0.74505805969E-08  0.93827000000E+00  0.93827000000E+00 0. -1.
     999902    2    1    2    0    0 -0.18175316507E-02  0.15351959708E-01 -0.18919557583E-01  0.10194977314E+01  0.10192049297E+01 0.  0.
     999903    2    3    3    0    0 -0.10726544018E-01 -0.10180697678E+00 -0.75898058279E-01  0.12986177418E+00  0.24976906813E-01 0.  0.
         14    1    1    2    0    0  0.18175316507E-02 -0.15351959708E-01  0.18919557583E-01  0.24432268567E-01  0.00000000000E+00 0. -1.
     999901    1    3    3    0    0  0.89090123675E-02  0.11715893649E+00  0.56978500696E-01  0.88963595726E+00  0.88000000000E+00 0.  1.
        -11    1    4    4    0    0  0.15495756428E-02 -0.52134817268E-01 -0.25572942833E-01  0.58091969173E-01  0.51100000000E-03 0.  1.
         11    1    4    4    0    0 -0.12276119661E-01 -0.49672159514E-01 -0.50325115447E-01  0.71769805005E-01  0.51100000000E-03 0. -1.
</event>
<event>
 8    1  0.1086235E+005  0.1043930E+01  0.7957747E-01            NaN
         13   -1    0    0    0    0  0.00000000000E+00  0.00000000000E+00  0.74505805969E-08  0.10566000000E+00  0.10566000000E+00 0. -1.
     999900   -1    0    0    0    0 -0.00000000000E+00 -0.00000000000E+00 -0.74505805969E-08  0.93827000000E+00  0.93827000000E+00 0. -1.
     999902    2    1    2    0    0  0.17016661046E-02  0.25702592081E-01 -0.11964044887E-01  0.10155282874E+01  0.10151310483E+01 0.  0.
     999903    2    3    3    0    0 -0.42937679575E-01  0.16050165105E-01  0.11496114726E+00  0.12524976644E+00  0.19240230925E-01 0.  0.
         14    1    1    2    0    0 -0.17016661046E-02 -0.25702592081E-01  0.11964044887E-01  0.28401712577E-01  0.00000000000E+00 0. -1.
     999901    1    3    3    0    0  0.44639345680E-01  0.96524269760E-02 -0.12692519215E+00  0.89027852099E+00  0.88000000000E+00 0. -1.
        -11    1    4    4    0    0 -0.20349874412E-01 -0.23130974404E-02  0.43401867879E-01  0.47994281583E-01  0.51100000000E-03 0. -1.
         11    1    4    4    0    0 -0.22587805163E-01  0.18363262545E-01  0.71559279381E-01  0.77255484853E-01  0.51100000000E-03 0.  1.
</event>
<event>
 8    1  0.1102805E+005  0.1043930E+01  0.7957747E-01            NaN
         13   -1    0    0    0    0  0.00000000000E+00  0.00000000000E+00  0.74505805969E-08  0.10566000000E+00  0.10566000000E+00 0. -1.
     999900   -1    0    0    0    0 -0.00000000000E+00 -0.00000000000E+00 -0.74505805969E-08  0.93827000000E+00  0.93827000000E+00 0. -1.
     999902    2    1    2    0    0  0.59030815041E-02  0.84414448531E-02  0.23098955429E-01  0.10186383788E+01  0.10183243494E+01 0.  0.
     999903    2    3    3    0    0  0.97091273302E-01  0.41881518344E-01  0.75957328590E-01  0.13171812731E+00  0.19984302977E-01 0.  0.
         14    1    1    2    0    0 -0.59030815041E-02 -0.84414448531E-02 -0.23098955429E-01  0.25291621229E-01  0.00000000000E+00 0.  1.
     999901    1    3    3    0    0 -0.91188191798E-01 -0.33440073491E-01 -0.52858373161E-01  0.88692025146E+00  0.88000000000E+00 0. -1.
        -11    1    4    4    0    0  0.60719421786E-01  0.15478729655E-01  0.44109529227E-01  0.76631266096E-01  0.51100000000E-03 0. -1.
         11    1    4    4    0    0  0.36371851516E-01  0.26402788689E-01  0.31847799363E-01  0.55086861215E-01  0.51100000000E-03 0.  1.
</event>
<event>
 8    1  0.1086235E+005  0.1043930E+01  0.7957747E-01            NaN
         13   -1    0    0    0    0  0.00000000000E+00  0.00000000000E+00  0.74505805969E-08  0.10566000000E+00  0.10566000000E+00 0.  1.
     999900   -1    0    0    0    0 -0.00000000000E+00 -0.00000000000E+00 -0.74505805969E-08  0.93827000000E+00  0.93827000000E+00 0. -1.
     999902    2    1    2    0    0 -0.69886723112E-02  0.18080756507E-01 -0.14582691388E-01  0.10196728323E+01  0.10193842626E+01 0.  0.
     999903    2    3    3    0    0 -0.91876336098E-02  0.10204982987E+00  0.78389529011E-01  0.13079743357E+00  0.21551565662E-01 0.  0.
         14    1    1    2    0    0  0.69886723112E-02 -0.18080756507E-01  0.14582691388E-01  0.24257167697E-01  0.00000000000E+00 0.  1.
     999901    1    3    3    0    0  0.21989612986E-02 -0.83969073358E-01 -0.92972220399E-01  0.88887539874E+00  0.88000000000E+00 0. -1.
        -11    1    4    4    0    0 -0.44331499742E-02  0.46038503189E-01  0.22165593065E-01  0.51291044360E-01  0.51100000000E-03 0.  1.
         11    1    4    4    0    0 -0.47544836355E-02  0.56011326676E-01  0.56223935945E-01  0.79506389208E-01  0.51100000000E-03 0. -1.
</event>
<event>
 7    1  0.1875808E+005  0.1043930E+01  0.7957747E-01            NaN
         13   -1    0    0    0    0  0.00000000000E+00  0.00000000000E+00  0.74505805969E-08  0.10566000000E+00  0.10566000000E+00 0.  1.
     999900   -1    0    0    0    0 -0.00000000000E+00 -0.00000000000E+00 -0.74505805969E-08  0.93827000000E+00  0.93827000000E+00 0. -1.
     999903    2    1    2    0    0  0.75727140012E-02  0.14669409451E-01 -0.10930369878E+00  0.11209059318E+00  0.18559766708E-01 0.  0.
         14    1    1    2    0    0  0.13568032991E-01  0.17536657079E-01 -0.32816552582E-01  0.39604948986E-01  0.00000000000E+00 0. -1.
     999901    1    1    2    0    0 -0.21140746992E-01 -0.32206066530E-01  0.14212025136E+00  0.89223445784E+00  0.88000000000E+00 0.  1.
        -11    1    3    3    0    0  0.29400970806E-02 -0.11900156249E-02 -0.60073196578E-01  0.60159042348E-01  0.51100000000E-03 0.  1.
         11    1    3    3    0    0  0.46326169206E-02  0.15859425076E-01 -0.49230502204E-01  0.51931550829E-01  0.51100000000E-03 0. -1.
</event>
<event>
 8    1  0.1086235E+005  0.1043930E+01  0.7957747E-01            NaN
         13   -1    0    0    0    0  0.00000000000E+00  0.00000000000E+00  0.74505805969E-08  0.10566000000E+00  0.10566000000E+00 0. -1.
     999900   -1    0    0    0    0 -0.00000000000E+00 -0.00000000000E+00 -0.74505805969E-08  0.93827000000E+00  0.93827000000E+00 0. -1.
     999902    2    1    2    0    0  0.15075479679E-02 -0.52258145480E-02  0.23220526457E-01  0.10200810024E+01  0.10198021753E+01 0.  0.
     999903    2    3    3    0    0  0.22493781171E-01 -0.55962233195E-01  0.11739889912E+00  0.13335434098E+00  0.19056154084E-01 0.  0.
         14    1    1    2    0    0 -0.15075479679E-02  0.52258145480E-02 -0.23220526457E-01  0.23848997621E-01  0.00000000000E+00 0.  1.
     999901    1    3    3    0    0 -0.20986233203E-01  0.50736418647E-01 -0.94178372660E-01  0.88672666140E+00  0.88000000000E+00 0. -1.
        -11    1    4    4    0    0  0.16391896340E-01 -0.53408922118E-01  0.97431983864E-01  0.11231411233E+00  0.51100000000E-03 0.  1.
         11    1    4    4    0    0  0.61018848305E-02 -0.25533110773E-02  0.19966915253E-01  0.21040228651E-01  0.51100000000E-03 0. -1.
</event>
<event>
 8    1  0.1086235E+005  0.1043930E+01  0.7957747E-01            NaN
         13   -1    0    0    0    0  0.00000000000E+00  0.00000000000E+00  0.74505805969E-08  0.10566000000E+00  0.10566000000E+00 0. -1.
     999900   -1    0    0    0    0 -0.00000000000E+00 -0.00000000000E+00 -0.74505805969E-08  0.93827000000E+00  0.93827000000E+00 0.  1.
     999902    2    1    2    0    0  0.90634257009E-02 -0.21337832203E-01 -0.11507379896E-01  0.10180481809E+01  0.10177191312E+01 0.  0.
     999903    2    3    3    0    0 -0.13181566031E-01 -0.63323280246E-01 -0.11178758046E+00  0.13107933356E+00  0.22399487450E-01 0.  0.
         14    1    1    2    0    0 -0.90634257009E-02  0.21337832203E-01  0.11507379896E-01  0.25881819114E-01  0.00000000000E+00 0.  1.
     999901    1    3    3    0    0  0.22244991732E-01  0.41985448043E-01  0.10028020056E+00  0.88696884733E+00  0.88000000000E+00 0. -1.
        -11    1    4    4    0    0 -0.45221082635E-02 -0.29989527596E-01 -0.73858301374E-01  0.79844417660E-01  0.51100000000E-03 0.  1.
         11    1    4    4    0    0 -0.86594577673E-02 -0.33333752650E-01 -0.37929279082E-01  0.51234915899E-01  0.51100000000E-03 0. -1.
</event>
<event>
 8    1  0.1086235E+005  0.1043930E+01  0.7957747E-01            NaN
         13   -1    0    0    0    0  0.00000000000E+00  0.00000000000E+00  0.74505805969E-08  0.10566000000E+00  0.10566000000E+00 0.  1.
     999900   -1    0    0    0    0 -0.00000000000E+00 -0.00000000000E+00 -0.74505805969E-08  0.93827000000E+00  0.93827000000E+00 0.  1.
     999902    2    1    2    0    0  0.20636977335E-01 -0.92660648109E-02  0.60210688418E-02  0.10205206416E+01  0.10202521168E+01 0.  0.
     999903    2    3    3    0    0  0.23038707793E-01 -0.41287357573E-01  0.12196430097E+00  0.13233487017E+00  0.20044929502E-01 0.  0.
         14    1    1    2    0    0 -0.20636977335E-01  0.92660648109E-02 -0.60210688418E-02  0.23409358398E-01  0.00000000000E+00 0. -1.
     999901    1    3    3    0    0 -0.24017304582E-02  0.32021292762E-01 -0.11594323213E+00  0.88818577143E+00  0.88000000000E+00 0.  1.
        -11    1    4    4    0    0  0.36774411819E-02 -0.16268878990E-01  0.65686673801E-01  0.67773152747E-01  0.51100000000E-03 0. -1.
         11    1    4    4    0    0  0.19361266611E-01 -0.25018478583E-01  0.56277627172E-01  0.64561717422E-01  0.51100000000E-03 0.  1.
</event>
<event>
 8    1  0.1086235E+005  0.1043930E+01  0.7957747E-01            NaN
         13   -1    0    0    0    0  0.00000000000E+00  0.00000000000E+00  0.74505805969E-08  0.10566000000E+00  0.10566000000E+00 0.  1.
     999900   -1    0    0    0    0 -0.00000000000E+00 -0.00000000000E+00 -0.74505805969E-08  0.93827000000E+00  0.93827000000E+00 0.  1.
     999902    2    1    2    0    0  0.16232951464E-01 -0.87680096863E-02  0.14726223019E-01  0.10203238916E+01  0.10200507809E+01 0.  0.
     999903    2    3    3    0    0 -0.87378124042E-02 -0.45557797259E-01 -0.11875682576E+00  0.12914784180E+00  0.20594152551E-01 0.  0.
         14    1    1    2    0    0 -0.16232951464E-01  0.87680096863E-02 -0.14726223019E-01  0.23606108351E-01  0.00000000000E+00 0. -1.
     999901    1    3    3    0    0  0.24970763868E-01  0.36789787573E-01  0.13348304878E+00  0.89117604985E+00  0.88000000000E+00 0. -1.
        -11    1    4    4    0    0 -0.76843640118E-02 -0.27716769086E-01 -0.46228028095E-01  0.54447777195E-01  0.51100000000E-03 0.  1.
         11    1    4    4    0    0 -0.10534483924E-02 -0.17841028173E-01 -0.72528797666E-01  0.74700064602E-01  0.51100000000E-03 0. -1.
</event>
<event>
 8    1  0.1086235E+005  0.1043930E+01  0.7957747E-01            NaN
         13   -1    0    0    0    0  0.00000000000E+00  0.00000000000E+00  0.74505805969E-08  0.10566000000E+00  0.10566000000E+00 0. -1.
     999900   -1    0    0    0    0 -0.00000000000E+00 -0.00000000000E+00 -0.74505805969E-08  0.93827000000E+00  0.93827000000E+00 0.  1.
     999902    2    1    2    0    0  0.13272539378E-02  0.48459721750E-02  0.23056017020E-01  0.10203328610E+01  0.10200599601E+01 0.  0.
     999903    2    3    3    0    0 -0.44509195886E-01 -0.12020638671E+00 -0.73129493849E-02  0.12979294232E+00  0.19028523922E-01 0.  0.
         14    1    1    2    0    0 -0.13272539378E-02 -0.48459721750E-02 -0.23056017020E-01  0.23597139025E-01  0.00000000000E+00 0.  1.
     999901    1    3    3    0    0  0.45836449823E-01  0.12505235889E+00  0.30368966405E-01  0.89053991865E+00  0.88000000000E+00 0. -1.
        -11    1    4    4    0    0 -0.16060430403E-01 -0.69201978856E-01 -0.70097807414E-02  0.71388020350E-01  0.51100000000E-03 0.  1.
         11    1    4    4    0    0 -0.28448765482E-01 -0.51004407856E-01 -0.30316864358E-03  0.58404921971E-01  0.51100000000E-03 0. -1.
</event>
<event>
 8    1  0.1086235E+005  0.1043930E+01  0.7957747E-01            NaN
         13   -1    0    0    0    0  0.00000000000E+00  0.00000000000E+00  0.74505805969E-08  0.10566000000E+00  0.10566000000E+00 0.  1.
     999900   -1    0    0    0    0 -0.00000000000E+00 -0.00000000000E+00 -0.74505805969E-08  0.93827000000E+00  0.93827000000E+00 0. -1.
     999902    2    1    2    0    0 -0.19563649850E-01  0.80072486134E-02  0.11467850039E-01  0.10198808002E+01  0.10195972159E+01 0.  0.
     999903    2    3    3    0    0 -0.99408502851E-01  0.78886168146E-01  0.34621875691E-01  0.13312540514E+00  0.20460235925E-01 0.  0.
         14    1    1    2    0    0  0.19563649850E-01 -0.80072486134E-02 -0.11467850039E-01  0.24049199786E-01  0.00000000000E+00 0. -1.
     999901    1    3    3    0    0  0.79844853001E-01 -0.70878919533E-01 -0.23154025652E-01  0.88675539507E+00  0.88000000000E+00 0.  1.
        -11    1    4    4    0    0 -0.30401058008E-01  0.36561896118E-01  0.14363404463E-01  0.49674591941E-01  0.51100000000E-03 0. -1.
         11    1    4    4    0    0 -0.69007444843E-01  0.42324272028E-01  0.20258471228E-01  0.83450813201E-01  0.51100000000E-03 0.  1.
</event>
<event>
 8    1  0.1086235E+005  0.1043930E+01  0.7957747E-01            NaN
         13   -1    0    0    0    0  0.00000000000E+00  0.00000000000E+00  0.74505805969E-08  0.10566000000E+00  0.10566000000E+00 0. -1.
     999900   -1    0    0    0    0 -0.00000000000E+00 -0.00000000000E+00 -0.74505805969E-08  0.93827000000E+00  0.93827000000E+00 0. -1.
     999902    2    1    2    0    0  0.31933109328E-02  0.29204800475E-02 -0.24171118496E-01  0.10193745646E+01  0.10190787671E+01 0.  0.
     999903    2    3    3    0    0  0.91896018782E-01  0.81470737381E-01  0.35350217674E-01  0.12944136330E+00  0.20568649124E-01 0.  0.
         14    1    1    2    0    0 -0.31933109328E-02 -0.29204800475E-02  0.24171118496E-01  0.24555435402E-01  0.00000000000E+00 0. -1.
     999901    1    3    3    0    0 -0.88702707849E-01 -0.78550257334E-01 -0.59521336170E-01  0.88993320129E+00  0.88000000000E+00 0.  1.
        -11    1    4    4    0    0  0.21497642087E-01  0.11488726835E-01  0.10016395337E-02  0.24400898802E-01  0.51100000000E-03 0. -1.
         11    1    4    4    0    0  0.70398376695E-01  0.69982010546E-01  0.34348578140E-01  0.10504046450E+00  0.51100000000E-03 0.  1.
</event>
<event>
 8    1  0.1086235E+005  0.1043930E+01  0.7957747E-01            NaN
         13   -1    0    0    0    0  0.00000000000E+00  0.00000000000E+00  0.74505805969E-08  0.10566000000E+00  0.10566000000E+00 0. -1.
     999900   -1    0    0    0    0 -0.00000000000E+00 -0.00000000000E+00 -0.74505805969E-08  0.93827000000E+00  0.93827000000E+00 0.  1.
     999902    2    1    2    0    0 -0.17765760763E-01  0.11623714403E-01 -0.10846465693E-01  0.10200893035E+01  0.10198106728E+01 0.  0.
     999903    2    3    3    0    0  0.41647493001E-01  0.97465137730E-01  0.72577301429E-01  0.13000042613E+00  0.19966956831E-01 0.  0.
         14    1    1    2    0    0  0.17765760763E-01 -0.11623714403E-01  0.10846465693E-01  0.23840696509E-01  0.00000000000E+00 0. -1.
     999901    1    3    3    0    0 -0.59413253764E-01 -0.85841423328E-01 -0.83423767122E-01  0.89008887736E+00  0.88000000000E+00 0. -1.
        -11    1    4    4    0    0  0.13778843623E-01  0.18118979182E-01  0.23057075233E-01  0.32404378986E-01  0.51100000000E-03 0. -1.
         11    1    4    4    0    0  0.27868649378E-01  0.79346158548E-01  0.49520226196E-01  0.97596047143E-01  0.51100000000E-03 0.  1.
</event>
<event>
 8    1  0.1086235E+005  0.1043930E+01  0.7957747E-01            NaN
         13   -1    0    0    0    0  0.00000000000E+00  0.00000000000E+00  0.74505805969E-08  0.10566000000E+00  0.10566000000E+00 0.  1.
     999900   -1    0    0    0    0 -0.00000000000E+00 -0.00000000000E+00 -0.74505805969E-08  0.93827000000E+00  0.93827000000E+00 0.  1.
     999902    2    1    2    0    0  0.14122364869E-01  0.11171073566E-01 -0.15174345078E-01  0.10203822863E+01  0.10201105407E+01 0.  0.
     999903    2    3    3    0    0  0.80327116866E-01 -0.84001125926E-01 -0.58847732621E-01  0.13170451477E+00  0.19349127019E-01 0.  0.
         14    1    1    2    0    0 -0.14122364869E-01 -0.11171073566E-01  0.15174345078E-01  0.23547713746E-01  0.00000000000E+00 0.  1.
     999901    1    3    3    0    0 -0.66204751997E-01  0.95172199492E-01  0.43673387543E-01  0.88867777148E+00  0.88000000000E+00 0. -1.
        -11    1    4    4    0    0  0.49932511095E-01 -0.41696919177E-01 -0.39651980298E-01  0.76186805916E-01  0.51100000000E-03 0.  1.
         11    1    4    4    0    0  0.30394605771E-01 -0.42304206748E-01 -0.19195752323E-01  0.55517708858E-01  0.51100000000E-03 0. -1.
</event>
<event>
 8    1  0.1086235E+005  0.1043930E+01  0.7957747E-01            NaN
         13   -1    0    0    0    0  0.00000000000E+00  0.00000000000E+00  0.74505805969E-08  0.10566000000E+00  0.10566000000E+00 0.  1.
     999900   -1    0    0    0    0 -0.00000000000E+00 -0.00000000000E+00 -0.74505805969E-08  0.93827000000E+00  0.93827000000E+00 0.  1.
     999902    2    1    2    0    0 -0.19148472975E-01  0.96120641427E-02  0.10507782487E-01  0.10200664444E+01  0.10197872727E+01 0.  0.
     999903    2    3    3    0    0 -0.78612063771E-01 -0.26858170431E-01 -0.98881948833E-01  0.13055415668E+00  0.19118842328E-01 0.  0.
         14    1    1    2    0    0  0.19148472975E-01 -0.96120641427E-02 -0.10507782487E-01  0.23863555626E-01  0.00000000000E+00 0.  1.
     999901    1    3    3    0    0  0.59463590797E-01  0.36470234573E-01  0.10938973132E+00  0.88951228769E+00  0.88000000000E+00 0.  1.
        -11    1    4    4    0    0 -0.35814125054E-01 -0.19717486663E-01 -0.38207113179E-01  0.55959587670E-01  0.51100000000E-03 0. -1.
         11    1    4    4    0    0 -0.42797938718E-01 -0.71406837682E-02 -0.60674835654E-01  0.74594569010E-01  0.51100000000E-03 0.  1.
</event>
<event>
 8    1  0.1086235E+005  0.1043930E+01  0.7957747E-01            NaN
         13   -1    0    0    0    0  0.00000000000E+00  0.00000000000E+00  0.74505805969E-08  0.10566000000E+00  0.10566000000E+00 0.  1.
     999900   -1    0    0    0    0 -0.00000000000E+00 -0.00000000000E+00 -0.74505805969E-08  0.93827000000E+00  0.93827000000E+00 0.  1.
     999902    2    1    2    0    0 -0.22003497374E-01 -0.98746971367E-02 -0.46494750014E-02  0.10193682175E+01  0.10190722652E+01 0.  0.
     999903    2    3    3    0    0  0.27216147422E-01 -0.60955267457E-01 -0.11006399945E+00  0.13024279327E+00  0.19820139070E-01 0.  0.
         14    1    1    2    0    0  0.22003497374E-01  0.98746971367E-02  0.46494750014E-02  0.24561782468E-01  0.00000000000E+00 0.  1.
     999901    1    3    3    0    0 -0.49219644795E-01  0.51080570321E-01  0.10541452445E+00  0.88912542426E+00  0.88000000000E+00 0. -1.
        -11    1    4    4    0    0 -0.76669791024E-03 -0.18366537962E-01 -0.24201766341E-01  0.30395791772E-01  0.51100000000E-03 0.  1.
         11    1    4    4    0    0  0.27982845332E-01 -0.42588729495E-01 -0.85862233112E-01  0.99847001502E-01  0.51100000000E-03 0. -1.
</event>
<event>
 8    1  0.1086235E+005  0.1043930E+01  0.7957747E-01            NaN
         13   -1    0    0    0    0  0.00000000000E+00  0.00000000000E+00  0.74505805969E-08  0.10566000000E+00  0.10566000000E+00 0. -1.
     999900   -1    0    0    0    0 -0.00000000000E+00 -0.00000000000E+00 -0.74505805969E-08  0.93827000000E+00  0.93827000000E+00 0. -1.
     999902    2    1    2    0    0 -0.14352003497E-01  0.28263328104E-02  0.17868088145E-01  0.10208380807E+01  0.10205768714E+01 0.  0.
     999903    2    3    3    0    0 -0.59092871839E-01  0.34144880571E-01 -0.10902741520E+00  0.13006029391E+00  0.19257788415E-01 0.  0.
         14    1    1    2    0    0  0.14352003497E-01 -0.28263328104E-02 -0.17868088145E-01  0.23091919268E-01  0.00000000000E+00 0. -1.
     999901    1    3    3    0    0  0.44740868342E-01 -0.31318547761E-01  0.12689550334E+00  0.89077778683E+00  0.88000000000E+00 0.  1.
        -11    1    4    4    0    0 -0.47387361646E-01  0.28333931202E-01 -0.71620796710E-01  0.90433253527E-01  0.51100000000E-03 0.  1.
         11    1    4    4    0    0 -0.11705510193E-01  0.58109493699E-02 -0.37406618489E-01  0.39627040379E-01  0.51100000000E-03 0. -1.
</event>
<event>
 8    1  0.1086235E+005  0.1043930E+01  0.7957747E-01            NaN
         13   -1    0    0    0    0  0.00000000000E+00  0.00000000000E+00  0.74505805969E-08  0.10566000000E+00  0.10566000000E+00 0. -1.
     999900   -1    0    0    0    0 -0.00000000000E+00 -0.00000000000E+00 -0.74505805969E-08  0.93827000000E+00  0.93827000000E+00 0.  1.
     999902    2    1    2    0    0 -0.22186290078E-01  0.45075937024E-02 -0.22435046891E-02  0.10211795455E+01  0.10209260898E+01 0.  0.
     999903    2    3    3    0    0  0.99121506742E-01 -0.68476022076E-01  0.40961170445E-01  0.12881816480E+00  0.20056505184E-01 0.  0.
         14    1    1    2    0    0  0.22186290078E-01 -0.45075937024E-02  0.22435046891E-02  0.22750454538E-01  0.00000000000E+00 0.  1.
     999901    1    3    3    0    0 -0.12130779682E+00  0.72983615779E-01 -0.43204675134E-01  0.89236138066E+00  0.88000000000E+00 0.  1.
        -11    1    4    4    0    0  0.41151041945E-01 -0.20511883619E-01  0.80018989326E-02  0.46673730623E-01  0.51100000000E-03 0.  1.
         11    1    4    4    0    0  0.57970464798E-01 -0.47964138457E-01  0.32959271513E-01  0.82144434178E-01  0.51100000000E-03 0. -1.
</event>
<event>
 8    1  0.1086235E+005  0.1043930E+01  0.7957747E-01            NaN
         13   -1    0    0    0    0  0.00000000000E+00  0.00000000000E+00  0.74505805969E-08  0.10566000000E+00  0.10566000000E+00 0.  1.
     999900   -1    0    0    0    0 -0.00000000000E+00 -0.00000000000E+00 -0.74505805969E-08  0.93827000000E+00  0.93827000000E+00 0.  1.
     999902    2    1    2    0    0 -0.19278877737E-01 -0.13759975417E-01 -0.25654504309E-02  0.10201057773E+01  0.10198275361E+01 0.  0.
     999903    2    3    3    0    0  0.11012439853E+00  0.48439491436E-01 -0.38184920467E-01  0.12775902396E+00  0.19761390882E-01 0.  0.
         14    1    1    2    0    0  0.19278877737E-01  0.13759975417E-01  0.25654504309E-02  0.23824222678E-01  0.00000000000E+00 0.  1.
     999901    1    3    3    0    0 -0.12940327627E+00 -0.62199466853E-01  0.35619470037E-01  0.89234675336E+00  0.88000000000E+00 0. -1.
        -11    1    4    4    0    0  0.80345784460E-01  0.43024125852E-01 -0.33623919862E-01  0.97146022016E-01  0.51100000000E-03 0.  1.
         11    1    4    4    0    0  0.29778614075E-01  0.54153655845E-02 -0.45610006054E-02  0.30613001946E-01  0.51100000000E-03 0. -1.
</event>
<event>
 8    1  0.1086235E+005  0.1043930E+01  0.7957747E-01            NaN
         13   -1    0    0    0    0  0.00000000000E+00  0.00000000000E+00  0.74505805969E-08  0.10566000000E+00  0.10566000000E+00 0.  1.
     999900   -1    0    0    0    0 -0.00000000000E+00 -0.00000000000E+00 -0.74505805969E-08  0.93827000000E+00  0.93827000000E+00 0.  1.
     999902    2    1    2    0    0  0.28241201533E-02  0.15108103790E-01  0.17270894377E-01  0.10208104358E+01  0.10205485935E+01 0.  0.
     999903    2    3    3    0    0 -0.83712680467E-01 -0.96290058410E-01 -0.48617844510E-02  0.12930158906E+00  0.20388128046E-01 0.  0.
         14    1    1    2    0    0 -0.28241201533E-02 -0.15108103790E-01 -0.17270894377E-01  0.23119564169E-01  0.00000000000E+00 0. -1.
     999901    1    3    3    0    0  0.86536800620E-01  0.11139816220E+00  0.22132678828E-01  0.89150884677E+00  0.88000000000E+00 0.  1.
        -11    1    4    4    0    0 -0.75426965013E-02 -0.20078962689E-01 -0.11962226197E-02  0.21488347603E-01  0.51100000000E-03 0.  1.
         11    1    4    4    0    0 -0.76169983965E-01 -0.76211095722E-01 -0.36655618313E-02  0.10781324145E+00  0.51100000000E-03 0. -1.
</event>
<event>
 8    1  0.1086235E+005  0.1043930E+01  0.7957747E-01            NaN
         13   -1    0    0    0    0  0.00000000000E+00  0.00000000000E+00  0.74505805969E-08  0.10566000000E+00  0.10566000000E+00 0. -1.
     999900   -1    0    0    0    0 -0.00000000000E+00 -0.00000000000E+00 -0.74505805969E-08  0.93827000000E+00  0.93827000000E+00 0.  1.
     999902    2    1    2    0    0  0.40295190110E-02  0.13029728201E-01  0.18774552790E-01  0.10207245120E+01  0.10204606973E+01 0.  0.
     999903    2    3    3    0    0  0.11560362628E+00 -0.18163489397E-02 -0.57637046421E-01  0.13027074010E+00  0.16761237175E-01 0.  0.
         14    1    1    2    0    0 -0.40295190110E-02 -0.13029728201E-01 -0.18774552790E-01  0.23205487992E-01  0.00000000000E+00 0. -1.
     999901    1    3    3    0    0 -0.11157410727E+00  0.14846077141E-01  0.76411599211E-01  0.89045377191E+00  0.88000000000E+00 0. -1.
        -11    1    4    4    0    0  0.85164005105E-01  0.39369286974E-02 -0.36363163810E-01  0.92687366865E-01  0.51100000000E-03 0. -1.
         11    1    4    4    0    0  0.30439621178E-01 -0.57532776371E-02 -0.21273882611E-01  0.37583373230E-01  0.51100000000E-03 0.  1.
</event>
<event>
 8    1  0.1086235E+005  0.1043930E+01  0.7957747E-01            NaN
         13   -1    0    0    0    0  0.00000000000E+00  0.00000000000E+00  0.74505805969E-08  0.10566000000E+00  0.10566000000E+00 0. -1.
     999900   -1    0    0    0    0 -0.00000000000E+00 -0.00000000000E+00 -0.74505805969E-08  0.93827000000E+00  0.93827000000E+00 0. -1.
     999902    2    1    2    0    0 -0.24818304466E-02 -0.20570689431E-01  0.12625479006E-01  0.10196665405E+01  0.10193778193E+01 0.  0.
     999903    2    3    3    0    0 -0.12859968966E+00  0.73911690287E-04  0.89142033472E-02  0.13042771571E+00  0.19850449938E-01 0.  0.
         14    1    1    2    0    0  0.24818304466E-02  0.20570689431E-01 -0.12625479006E-01  0.24263459485E-01  0.00000000000E+00 0.  1.
     999901    1    3    3    0    0  0.12611785921E+00 -0.20644601121E-01  0.37112756587E-02  0.88923882480E+00  0.88000000000E+00 0.  1.
        -11    1    4    4    0    0 -0.47638561953E-01  0.29253348818E-02 -0.58241426758E-02  0.48085048903E-01  0.51100000000E-03 0.  1.
         11    1    4    4    0    0 -0.80961127703E-01 -0.28514231915E-02  0.14738346023E-01  0.82342666811E-01  0.51100000000E-03 0. -1.
</event>
<event>
 8    1  0.1086235E+005  0.1043930E+01  0.7957747E-01            NaN
         13   -1    0    0    0    0  0.00000000000E+00  0.00000000000E+00  0.74505805969E-08  0.10566000000E+00  0.10566000000E+00 0.  1.
     999900   -1    0    0    0    0 -0.00000000000E+00 -0.00000000000E+00 -0.74505805969E-08  0.93827000000E+00  0.93827000000E+00 0. -1.
     999902    2    1    2    0    0  0.14125136136E-01  0.14858844346E-01 -0.11580700782E-01  0.10203839312E+01  0.10201122241E+01 0.  0.
     999903    2    3    3    0    0 -0.58556386572E-01  0.77284777628E-01  0.84130507410E-01  0.13002432054E+00  0.20654161653E-01 0.  0.
         14    1    1    2    0    0 -0.14125136136E-01 -0.14858844346E-01  0.11580700782E-01  0.23546068817E-01  0.00000000000E+00 0.  1.
     999901    1    3    3    0    0  0.72681522708E-01 -0.62425933282E-01 -0.95711208191E-01  0.89035961064E+00  0.88000000000E+00 0. -1.
        -11    1    4    4    0    0 -0.44696555361E-01  0.42715879371E-01  0.50244360540E-01  0.79669224288E-01  0.51100000000E-03 0.  1.
         11    1    4    4    0    0 -0.13859831211E-01  0.34568898257E-01  0.33886146870E-01  0.50355096253E-01  0.51100000000E-03 0. -1.
</event>
<event>
 8    1  0.1086235E+005  0.1043930E+01  0.7957747E-01            NaN
         13   -1    0    0    0    0  0.00000000000E+00  0.00000000000E+00  0.74505805969E-08  0.10566000000E+00  0.10566000000E+00 0. -1.
     999900   -1    0    0    0    0 -0.00000000000E+00 -0.00000000000E+00 -0.74505805969E-08  0.93827000000E+00  0.93827000000E+00 0.  1.
     999902    2    1    2    0    0 -0.61229505096E-02 -0.86821390828E-02 -0.21176999610E-01  0.10202374827E+01  0.10199623453E+01 0.  0.
     999903    2    3    3    0    0 -0.98978888755E-01  0.52196060082E-01  0.61497235989E-01  0.12941572187E+00  0.21101419969E-01 0.  0.
         14    1    1    2    0    0  0.61229505096E-02  0.86821390828E-02  0.21176999610E-01  0.23692517268E-01  0.00000000000E+00 0.  1.
     999901    1    3    3    0    0  0.92855938245E-01 -0.60878199165E-01 -0.82674235599E-01  0.89082176087E+00  0.88000000000E+00 0.  1.
        -11    1    4    4    0    0 -0.76622665622E-01  0.39452018913E-01  0.36692537607E-01  0.93670155974E-01  0.51100000000E-03 0. -1.
         11    1    4    4    0    0 -0.22356223133E-01  0.12744041169E-01  0.24804698382E-01  0.35745565892E-01  0.51100000000E-03 0.  1.
</event>
<event>
 8    1  0.1086235E+005  0.1043930E+01  0.7957747E-01            NaN
         13   -1    0    0    0    0  0.00000000000E+00  0.00000000000E+00  0.74505805969E-08  0.10566000000E+00  0.10566000000E+00 0.  1.
     999900   -1    0    0    0    0 -0.00000000000E+00 -0.00000000000E+00 -0.74505805969E-08  0.93827000000E+00  0.93827000000E+00 0. -1.
     999902    2    1    2    0    0  0.13398981407E-01  0.17135859814E-01  0.10634983299E-01  0.10197169196E+01  0.10194294104E+01 0.  0.
     999903    2    3    3    0    0  0.33590566028E-02 -0.93827641870E-01 -0.84178993575E-01  0.12763879014E+00  0.19764820975E-01 0.  0.
         14    1    1    2    0    0 -0.13398981407E-01 -0.17135859814E-01 -0.10634983299E-01  0.24213080434E-01  0.00000000000E+00 0. -1.
     999901    1    3    3    0    0  0.10039924804E-01  0.11096350168E+00  0.94813976873E-01  0.89207812943E+00  0.88000000000E+00 0.  1.
        -11    1    4    4    0    0  0.11140640226E-01 -0.68680362017E-01 -0.59474263539E-01  0.91534447811E-01  0.51100000000E-03 0.  1.
         11    1    4    4    0    0 -0.77815836231E-02 -0.25147279853E-01 -0.24704730035E-01  0.36104342326E-01  0.51100000000E-03 0. -1.
</event>
<event>
 8    1  0.1086235E+005  0.1043930E+01  0.7957747E-01            NaN
         13   -1    0    0    0    0  0.00000000000E+00  0.00000000000E+00  0.74505805969E-08  0.10566000000E+00  0.10566000000E+00 0.  1.
     999900   -1    0    0    0    0 -0.00000000000E+00 -0.00000000000E+00 -0.74505805969E-08  0.93827000000E+00  0.93827000000E+00 0. -1.
     999902    2    1    2    0    0 -0.89653723357E-02  0.13848167716E-01 -0.17680595038E-01  0.10197483315E+01  0.10194615768E+01 0.  0.
     999903    2    3    3    0    0 -0.56823670074E-01 -0.11021494871E+00  0.26837158535E-01  0.12864569774E+00  0.21288918941E-01 0.  0.
         14    1    1    2    0    0  0.89653723357E-02 -0.13848167716E-01  0.17680595038E-01  0.24181668493E-01  0.00000000000E+00 0.  1.
     999901    1    3    3    0    0  0.47858297738E-01  0.12406311643E+00 -0.44517753573E-01  0.89110263376E+00  0.88000000000E+00 0. -1.
        -11    1    4    4    0    0 -0.80674612925E-02 -0.56896179836E-02 -0.11735921561E-02  0.99546031590E-02  0.51100000000E-03 0. -1.
         11    1    4    4    0    0 -0.48756208781E-01 -0.10452533073E+00  0.28010750691E-01  0.11869109458E+00  0.51100000000E-03 0.  1.
</event>
<event>
 8    1  0.1086235E+005  0.1043930E+01  0.7957747E-01            NaN
         13   -1    0    0    0    0  0.00000000000E+00  0.00000000000E+00  0.74505805969E-08  0.10566000000E+00  0.10566000000E+00 0. -1.
     999900   -1    0    0    0    0 -0.00000000000E+00 -0.00000000000E+00 -0.74505805969E-08  0.93827000000E+00  0.93827000000E+00 0. -1.
     999902    2    1    2    0    0 -0.61611177415E-02  0.20491869150E-01 -0.71487222299E-02  0.10213694082E+01  0.10211202122E+01 0.  0.
     999903    2    3    3    0    0 -0.55406532728E-01  0.11725371037E+00  0.26947404274E-01  0.13404167243E+00  0.20559447621E-01 0.  0.
         14    1    1    2    0    0  0.61611177415E-02 -0.20491869150E-01  0.71487222299E-02  0.22560591805E-01  0.00000000000E+00 0. -1.
     999901    1    3    3    0    0  0.49245414987E-01 -0.96761841220E-01 -0.34096126504E-01  0.88732773576E+00  0.88000000000E+00 0.  1.
        -11    1    4    4    0    0 -0.34468204253E-01  0.54780584086E-01  0.64922020573E-02  0.65049053074E-01  0.51100000000E-03 0. -1.
         11    1    4    4    0    0 -0.20938328475E-01  0.62473126284E-01  0.20455202217E-01  0.68992619357E-01  0.51100000000E-03 0.  1.
</event>
<event>
 8    1  0.1086235E+005  0.1043930E+01  0.7957747E-01            NaN
         13   -1    0    0    0    0  0.00000000000E+00  0.00000000000E+00  0.74505805969E-08  0.10566000000E+00  0.10566000000E+00 0. -1.
     999900   -1    0    0    0    0 -0.00000000000E+00 -0.00000000000E+00 -0.74505805969E-08  0.93827000000E+00  0.93827000000E+00 0.  1.
     999902    2    1    2    0    0  0.19510010947E-01  0.67194060819E-02  0.20662224740E-01  0.10147286563E+01  0.10143083985E+01 0.  0.
     999903    2    3    3    0    0  0.57934572958E-01 -0.87909459323E-01  0.69046149245E-01  0.12750147380E+00  0.20118829838E-01 0.  0.
         14    1    1    2    0    0 -0.19510010947E-01 -0.67194060819E-02 -0.20662224740E-01  0.29201343744E-01  0.00000000000E+00 0.  1.
     999901    1    3    3    0    0 -0.38424562012E-01  0.94628865404E-01 -0.48383924505E-01  0.88722718245E+00  0.88000000000E+00 0.  1.
        -11    1    4    4    0    0  0.44047468470E-01 -0.71450790804E-01  0.45080736584E-01  0.95278166004E-01  0.51100000000E-03 0.  1.
         11    1    4    4    0    0  0.13887104489E-01 -0.16458668518E-01  0.23965412661E-01  0.32223307798E-01  0.51100000000E-03 0. -1.
</event>
<event>
 8    1  0.1086235E+005  0.1043930E+01  0.7957747E-01            NaN
         13   -1    0    0    0    0  0.00000000000E+00  0.00000000000E+00  0.74505805969E-08  0.10566000000E+00  0.10566000000E+00 0. -1.
     999900   -1    0    0    0    0 -0.00000000000E+00 -0.00000000000E+00 -0.74505805969E-08  0.93827000000E+00  0.93827000000E+00 0. -1.
     999902    2    1    2    0    0  0.19674646958E-01 -0.94574152161E-02  0.11062825585E-01  0.10194571468E+01  0.10191633596E+01 0.  0.
     999903    2    3    3    0    0 -0.46130758669E-01 -0.19732327703E-01  0.11872845558E+00  0.13039707393E+00  0.19736744195E-01 0.  0.
         14    1    1    2    0    0 -0.19674646958E-01  0.94574152161E-02 -0.11062825585E-01  0.24472853234E-01  0.00000000000E+00 0.  1.
     999901    1    3    3    0    0  0.65805405627E-01  0.10274912487E-01 -0.10766563000E+00  0.88906007284E+00  0.88000000000E+00 0. -1.
        -11    1    4    4    0    0 -0.10667261762E-01  0.10428399476E-02  0.12387903915E-01  0.16388998537E-01  0.51100000000E-03 0.  1.
         11    1    4    4    0    0 -0.35463496907E-01 -0.20775167651E-01  0.10634055167E+00  0.11400807539E+00  0.51100000000E-03 0. -1.
</event>
<event>
 8    1  0.1086235E+005  0.1043930E+01  0.7957747E-01            NaN
         13   -1    0    0    0    0  0.00000000000E+00  0.00000000000E+00  0.74505805969E-08  0.10566000000E+00  0.10566000000E+00 0.  1.
     999900   -1    0    0    0    0 -0.00000000000E+00 -0.00000000000E+00 -0.74505805969E-08  0.93827000000E+00  0.93827000000E+00 0.  1.
     999902    2    1    2    0    0 -0.92770078338E-02 -0.38294172271E-02 -0.20087026175E-01  0.10214752470E+01  0.10212284095E+01 0.  0.
     999903    2    3    3    0    0 -0.56765329873E-01  0.11657341587E+00 -0.98323111777E-02  0.13194888871E+00  0.22409170580E-01 0.  0.
         14    1    1    2    0    0  0.92770078338E-02  0.38294172271E-02  0.20087026175E-01  0.22454752976E-01  0.00000000000E+00 0.  1.
     999901    1    3    3    0    0  0.47488322040E-01 -0.12040283310E+00 -0.10254714997E-01  0.88952635831E+00  0.88000000000E+00 0. -1.
        -11    1    4    4    0    0 -0.15570837799E-01  0.37668208105E-01  0.69974567534E-02  0.41359042707E-01  0.51100000000E-03 0. -1.
         11    1    4    4    0    0 -0.41194492074E-01  0.78905207768E-01 -0.16829767931E-01  0.90589846008E-01  0.51100000000E-03 0.  1.
</event>
<event>
 8    1  0.1086235E+005  0.1043930E+01  0.7957747E-01            NaN
         13   -1    0    0    0    0  0.00000000000E+00  0.00000000000E+00  0.74505805969E-08  0.10566000000E+00  0.10566000000E+00 0.  1.
     999900   -1    0    0    0    0 -0.00000000000E+00 -0.00000000000E+00 -0.74505805969E-08  0.93827000000E+00  0.93827000000E+00 0. -1.
     999902    2    1    2    0    0 -0.17785349475E-01  0.28297942779E-02 -0.13918328557E-01  0.10211693704E+01  0.10209156854E+01 0.  0.
     999903    2    3    3    0    0  0.60163483260E-01  0.89366545586E-03 -0.11554154343E+00  0.13189604516E+00  0.20646431050E-01 0.  0.
         14    1    1    2    0    0  0.17785349475E-01 -0.28297942779E-02  0.13918328557E-01  0.22760629636E-01  0.00000000000E+00 0.  1.
     999901    1    3    3    0    0 -0.77948832734E-01  0.19361288221E-02  0.10162321487E+00  0.88927332520E+00  0.88000000000E+00 0.  1.
        -11    1    4    4    0    0  0.15877334011E-01  0.94787500747E-02 -0.33157985210E-01  0.37969060331E-01  0.51100000000E-03 0.  1.
         11    1    4    4    0    0  0.44286149249E-01 -0.85850846188E-02 -0.82383558219E-01  0.93926984829E-01  0.51100000000E-03 0. -1.
</event>
<event>
 8    1  0.1086235E+005  0.1043930E+01  0.7957747E-01            NaN
         13   -1    0    0    0    0  0.00000000000E+00  0.00000000000E+00  0.74505805969E-08  0.10566000000E+00  0.10566000000E+00 0. -1.
     999900   -1    0    0    0    0 -0.00000000000E+00 -0.00000000000E+00 -0.74505805969E-08  0.93827000000E+00  0.93827000000E+00 0. -1.
     999902    2    1    2    0    0  0.73468529129E-03  0.11890854030E-01  0.20565638874E-01  0.10201628446E+01  0.10198859504E+01 0.  0.
     999903    2    3    3    0    0 -0.91057309643E-01 -0.48610073454E-01  0.78669882474E-01  0.13142090476E+00  0.20691324724E-01 0.  0.
         14    1    1    2    0    0 -0.73468529129E-03 -0.11890854030E-01 -0.20565638874E-01  0.23767155369E-01  0.00000000000E+00 0. -1.
     999901    1    3    3    0    0  0.91791994935E-01  0.60500927484E-01 -0.58104243600E-01  0.88874193987E+00  0.88000000000E+00 0. -1.
        -11    1    4    4    0    0 -0.58992780793E-01 -0.42271595980E-01  0.55001635140E-01  0.91063038613E-01  0.51100000000E-03 0. -1.
         11    1    4    4    0    0 -0.32064528851E-01 -0.63384774740E-02  0.23668247334E-01  0.40357866148E-01  0.51100000000E-03 0.  1.
</event>
<event>
 8    1  0.1086235E+005  0.1043930E+01  0.7957747E-01            NaN
         13   -1    0    0    0    0  0.00000000000E+00  0.00000000000E+00  0.74505805969E-08  0.10566000000E+00  0.10566000000E+00 0. -1.
     999900   -1    0    0    0    0 -0.00000000000E+00 -0.00000000000E+00 -0.74505805969E-08  0.93827000000E+00  0.93827000000E+00 0. -1.
     999902    2    1    2    0    0  0.13980455886E-01  0.14387801939E-01  0.12655976365E-01  0.10202100563E+01  0.10199342740E+01 0.  0.
     999903    2    3    3    0    0  0.52556887254E-01 -0.11577702612E+00  0.12205351785E-01  0.12979934961E+00  0.23072805922E-01 0.  0.
         14    1    1    2    0    0 -0.13980455886E-01 -0.14387801939E-01 -0.12655976365E-01  0.23719943700E-01  0.00000000000E+00 0.  1.
     999901    1    3    3    0    0 -0.38576431369E-01  0.13016482806E+00  0.45062458047E-03  0.89041070669E+00  0.88000000000E+00 0.  1.
        -11    1    4    4    0    0  0.20902435189E-01 -0.70014812275E-01  0.12620799267E-01  0.74152083112E-01  0.51100000000E-03 0. -1.
         11    1    4    4    0    0  0.31654452066E-01 -0.45762213842E-01 -0.41544748237E-03  0.55647266500E-01  0.51100000000E-03 0.  1.
</event>
<event>
 8    1  0.1086235E+005  0.1043930E+01  0.7957747E-01            NaN
         13   -1    0    0    0    0  0.00000000000E+00  0.00000000000E+00  0.74505805969E-08  0.10566000000E+00  0.10566000000E+00 0. -1.
     999900   -1    0    0    0    0 -0.00000000000E+00 -0.00000000000E+00 -0.74505805969E-08  0.93827000000E+00  0.93827000000E+00 0. -1.
     999902    2    1    2    0    0  0.46568530983E-02  0.16676594115E-01 -0.16090391124E-01  0.10202932541E+01  0.10200194256E+01 0.  0.
     999903    2    3    3    0    0 -0.65407558744E-01  0.53437071548E-01 -0.10035548510E+00  0.13273426415E+00  0.20334506000E-01 0.  0.
         14    1    1    2    0    0 -0.46568530983E-02 -0.16676594115E-01  0.16090391124E-01  0.23636745939E-01  0.00000000000E+00 0.  1.
     999901    1    3    3    0    0  0.70064411842E-01 -0.36760477433E-01  0.84265093972E-01  0.88755898991E+00  0.88000000000E+00 0.  1.
        -11    1    4    4    0    0 -0.74936500666E-02 -0.63978140139E-03 -0.70269646153E-02  0.10305506502E-01  0.51100000000E-03 0. -1.
         11    1    4    4    0    0 -0.57913908678E-01  0.54076852949E-01 -0.93328520481E-01  0.12242875765E+00  0.51100000000E-03 0.  1.
</event>
<event>
 8    1  0.1086235E+005  0.1043930E+01  0.7957747E-01            NaN
         13   -1    0    0    0    0  0.00000000000E+00  0.00000000000E+00  0.74505805969E-08  0.10566000000E+00  0.10566000000E+00 0.  1.
     999900   -1    0    0    0    0 -0.00000000000E+00 -0.00000000000E+00 -0.74505805969E-08  0.93827000000E+00  0.93827000000E+00 0. -1.
     999902    2    1    2    0    0 -0.36742572538E-02  0.49792691315E-02 -0.23108451815E-01  0.10200073364E+01  0.10197267637E+01 0.  0.
     999903    2    3    3    0    0 -0.33482470956E-01  0.12433935768E+00  0.11234045258E-01  0.13078589749E+00  0.19934780674E-01 0.  0.
         14    1    1    2    0    0  0.36742572538E-02 -0.49792691315E-02  0.23108451815E-01  0.23922663580E-01  0.00000000000E+00 0.  1.
     999901    1    3    3    0    0  0.29808213702E-01 -0.11936008855E+00 -0.34342497073E-01  0.88922143893E+00  0.88000000000E+00 0. -1.
        -11    1    4    4    0    0 -0.32308828301E-01  0.12482034284E+00  0.11103698066E-01  0.12941225446E+00  0.51100000000E-03 0. -1.
         11    1    4    4    0    0 -0.11736426549E-02 -0.48098515534E-03  0.13034719175E-03  0.13736430364E-02  0.51100000000E-03 0.  1.
</event>
<event>
 8    1  0.1086235E+005  0.1043930E+01  0.7957747E-01            NaN
         13   -1    0    0    0    0  0.00000000000E+00  0.00000000000E+00  0.74505805969E-08  0.10566000000E+00  0.10566000000E+00 0.  1.
     999900   -1    0    0    0    0 -0.00000000000E+00 -0.00000000000E+00 -0.74505805969E-08  0.93827000000E+00  0.93827000000E+00 0.  1.
     999902    2    1    2    0    0  0.15183998849E-01 -0.23050394425E-02  0.18049409443E-01  0.10202308817E+01  0.10199555891E+01 0.  0.
     999903    2    3    3    0    0 -0.82265382336E-02 -0.89855597363E-01 -0.89981161027E-01  0.12900489598E+00  0.20098495895E-01 0.  0.
         14    1    1    2    0    0 -0.15183998849E-01  0.23050394425E-02 -0.18049409443E-01  0.23699118319E-01  0.00000000000E+00 0. -1.
     999901    1    3    3    0    0  0.23410537082E-01  0.87550557921E-01  0.10803057047E+00  0.89122598570E+00  0.88000000000E+00 0. -1.
        -11    1    4    4    0    0  0.25543822082E-03 -0.10325281576E-01 -0.20902969446E-01  0.23321062175E-01  0.51100000000E-03 0. -1.
         11    1    4    4    0    0 -0.84819764544E-02 -0.79530315788E-01 -0.69078191581E-01  0.10568383380E+00  0.51100000000E-03 0.  1.
</event>
<event>
 8    1  0.1086235E+005  0.1043930E+01  0.7957747E-01            NaN
         13   -1    0    0    0    0  0.00000000000E+00  0.00000000000E+00  0.74505805969E-08  0.10566000000E+00  0.10566000000E+00 0.  1.
     999900   -1    0    0    0    0 -0.00000000000E+00 -0.00000000000E+00 -0.74505805969E-08  0.93827000000E+00  0.93827000000E+00 0.  1.
     999902    2    1    2    0    0 -0.79319907793E-02  0.22727573584E-01  0.18117064552E-02  0.10197899636E+01  0.10195042072E+01 0.  0.
     999903    2    3    3    0    0  0.49125177906E-01 -0.58052719877E-01 -0.10177648304E+00  0.12821187427E+00  0.17217166274E-01 0.  0.
         14    1    1    2    0    0  0.79319907793E-02 -0.22727573584E-01 -0.18117064552E-02  0.24140036433E-01  0.00000000000E+00 0.  1.
     999901    1    3    3    0    0 -0.57057168686E-01  0.80780293460E-01  0.10358818950E+00  0.89157808930E+00  0.88000000000E+00 0. -1.
        -11    1    4    4    0    0  0.34273465973E-01 -0.28768744584E-01 -0.52340775428E-01  0.68863118054E-01  0.51100000000E-03 0. -1.
         11    1    4    4    0    0  0.14851711933E-01 -0.29283975293E-01 -0.49435707613E-01  0.59348756217E-01  0.51100000000E-03 0.  1.
</event>
<event>
 8    1  0.1086235E+005  0.1043930E+01  0.7957747E-01            NaN
         13   -1    0    0    0    0  0.00000000000E+00  0.00000000000E+00  0.74505805969E-08  0.10566000000E+00  0.10566000000E+00 0.  1.
     999900   -1    0    0    0    0 -0.00000000000E+00 -0.00000000000E+00 -0.74505805969E-08  0.93827000000E+00  0.93827000000E+00 0.  1.
     999902    2    1    2    0    0  0.18890291029E-01  0.45949513343E-02 -0.12256759821E-01  0.10209477278E+01  0.10206890213E+01 0.  0.
     999903    2    3    3    0    0 -0.10261660553E+00 -0.75415442701E-01 -0.42909502140E-02  0.12896732267E+00  0.19912341248E-01 0.  0.
         14    1    1    2    0    0 -0.18890291029E-01 -0.45949513343E-02  0.12256759821E-01  0.22982272174E-01  0.00000000000E+00 0.  1.
     999901    1    3    3    0    0  0.12150689656E+00  0.80010394035E-01 -0.79658096075E-02  0.89198040516E+00  0.88000000000E+00 0.  1.
        -11    1    4    4    0    0 -0.69901953675E-01 -0.59149914447E-01 -0.94863268156E-02  0.92061104839E-01  0.51100000000E-03 0.  1.
         11    1    4    4    0    0 -0.32714651855E-01 -0.16265528253E-01  0.51953766016E-02  0.36906217828E-01  0.51100000000E-03 0. -1.
</event>
<event>
 8    1  0.1086235E+005  0.1043930E+01  0.7957747E-01            NaN
         13   -1    0    0    0    0  0.00000000000E+00  0.00000000000E+00  0.74505805969E-08  0.10566000000E+00  0.10566000000E+00 0. -1.
     999900   -1    0    0    0    0 -0.00000000000E+00 -0.00000000000E+00 -0.74505805969E-08  0.93827000000E+00  0.93827000000E+00 0.  1.
     999902    2    1    2    0    0 -0.12671690441E-01 -0.15881002246E-01  0.11656380753E-01  0.10205067384E+01  0.10202378909E+01 0.  0.
     999903    2    3    3    0    0 -0.82959910162E-01 -0.33831789835E-01  0.96682771986E-01  0.13343732072E+00  0.20761104604E-01 0.  0.
         14    1    1    2    0    0  0.12671690441E-01  0.15881002246E-01 -0.11656380753E-01  0.23423261584E-01  0.00000000000E+00 0. -1.
     999901    1    3    3    0    0  0.70288219720E-01  0.17950787589E-01 -0.85026391234E-01  0.88706941770E+00  0.88000000000E+00 0.  1.
        -11    1    4    4    0    0 -0.48385915216E-01 -0.12203905817E-01  0.64100436666E-01  0.81235824673E-01  0.51100000000E-03 0. -1.
         11    1    4    4    0    0 -0.34573994946E-01 -0.21627884018E-01  0.32582335320E-01  0.52201496046E-01  0.51100000000E-03 0.  1.
</event>
<event>
 8    1  0.1086235E+005  0.1043930E+01  0.7957747E-01            NaN
         13   -1    0    0    0    0  0.00000000000E+00  0.00000000000E+00  0.74505805969E-08  0.10566000000E+00  0.10566000000E+00 0. -1.
     999900   -1    0    0    0    0 -0.00000000000E+00 -0.00000000000E+00 -0.74505805969E-08  0.93827000000E+00  0.93827000000E+00 0. -1.
     999902    2    1    2    0    0 -0.64984089973E-02 -0.21322993338E-01  0.53141089704E-02  0.10210140859E+01  0.10207568881E+01 0.  0.
     999903    2    3    3    0    0  0.18364900569E-02 -0.10547442930E+00 -0.78049822596E-01  0.13303859086E+00  0.21892097204E-01 0.  0.
         14    1    1    2    0    0  0.64984089973E-02  0.21322993338E-01 -0.53141089704E-02  0.22915914090E-01  0.00000000000E+00 0. -1.
     999901    1    3    3    0    0 -0.83348990541E-02  0.84151435962E-01  0.83363931566E-01  0.88797549505E+00  0.88000000000E+00 0.  1.
        -11    1    4    4    0    0 -0.29790706214E-02 -0.49011974344E-01 -0.23725085569E-01  0.54536128366E-01  0.51100000000E-03 0.  1.
         11    1    4    4    0    0  0.48155606783E-02 -0.56462454956E-01 -0.54324737026E-01  0.78502462498E-01  0.51100000000E-03 0. -1.
</event>
<event>
 8    1  0.1086235E+005  0.1043930E+01  0.7957747E-01            NaN
         13   -1    0    0    0    0  0.00000000000E+00  0.00000000000E+00  0.74505805969E-08  0.10566000000E+00  0.10566000000E+00 0. -1.
     999900   -1    0    0    0    0 -0.00000000000E+00 -0.00000000000E+00 -0.74505805969E-08  0.93827000000E+00  0.93827000000E+00 0.  1.
     999902    2    1    2    0    0 -0.19645786669E-01 -0.53646879180E-02  0.10320504606E-01  0.10210991081E+01  0.10208438367E+01 0.  0.
     999903    2    3    3    0    0  0.82846649760E-01 -0.34549506010E-01 -0.90488701190E-01  0.12895621084E+00  0.19602640869E-01 0.  0.
         14    1    1    2    0    0  0.19645786669E-01  0.53646879180E-02 -0.10320504606E-01  0.22830891915E-01  0.00000000000E+00 0.  1.
     999901    1    3    3    0    0 -0.10249243643E+00  0.29184818092E-01  0.10080920580E+00  0.89214289725E+00  0.88000000000E+00 0. -1.
        -11    1    4    4    0    0  0.40660903983E-01 -0.17241350573E-01 -0.30823436168E-01  0.53860176573E-01  0.51100000000E-03 0. -1.
         11    1    4    4    0    0  0.42185745777E-01 -0.17308155438E-01 -0.59665265022E-01  0.75096034267E-01  0.51100000000E-03 0.  1.
</event>
<event>
 8    1  0.1086235E+005  0.1043930E+01  0.7957747E-01            NaN
         13   -1    0    0    0    0  0.00000000000E+00  0.00000000000E+00  0.74505805969E-08  0.10566000000E+00  0.10566000000E+00 0.  1.
     999900   -1    0    0    0    0 -0.00000000000E+00 -0.00000000000E+00 -0.74505805969E-08  0.93827000000E+00  0.93827000000E+00 0.  1.
     999902    2    1    2    0    0  0.26932415028E-02 -0.10520916746E-01 -0.20682049044E-01  0.10205699831E+01  0.10203026021E+01 0.  0.
     999903    2    3    3    0    0  0.76207479424E-01 -0.50539956623E-01 -0.95068337206E-01  0.13347405442E+00  0.20383015713E-01 0.  0.
         14    1    1    2    0    0 -0.26932415028E-02  0.10520916746E-01  0.20682049044E-01  0.23360016944E-01  0.00000000000E+00 0.  1.
     999901    1    3    3    0    0 -0.73514237921E-01  0.40019039877E-01  0.74386288162E-01  0.88709592863E+00  0.88000000000E+00 0.  1.
        -11    1    4    4    0    0  0.90148943553E-02 -0.11459112024E-01 -0.24350144867E-01  0.28386092451E-01  0.51100000000E-03 0. -1.
         11    1    4    4    0    0  0.67192585068E-01 -0.39080844600E-01 -0.70718192339E-01  0.10508796197E+00  0.51100000000E-03 0.  1.
</event>
<event>
 8    1  0.1086235E+005  0.1043930E+01  0.7957747E-01            NaN
         13   -1    0    0    0    0  0.00000000000E+00  0.00000000000E+00  0.74505805969E-08  0.10566000000E+00  0.10566000000E+00 0. -1.
     999900   -1    0    0    0    0 -0.00000000000E+00 -0.00000000000E+00 -0.74505805969E-08  0.93827000000E+00  0.93827000000E+00 0. -1.
     999902    2    1    2    0    0 -0.17803268529E-02 -0.22243370299E-01 -0.74278992492E-02  0.10204116928E+01  0.10201406335E+01 0.  0.
     999903    2    3    3    0    0  0.14521115631E-01 -0.10420360798E+00 -0.79916160225E-01  0.13348567246E+00  0.19041464535E-01 0.  0.
         14    1    1    2    0    0  0.17803268529E-02  0.22243370299E-01  0.74278992492E-02  0.23518307193E-01  0.00000000000E+00 0. -1.
     999901    1    3    3    0    0 -0.16301442484E-01  0.81960237683E-01  0.72488260975E-01  0.88692602035E+00  0.88000000000E+00 0.  1.
        -11    1    4    4    0    0  0.64146119058E-02 -0.86712348992E-01 -0.59249631516E-01  0.10521862321E+00  0.51100000000E-03 0. -1.
         11    1    4    4    0    0  0.81065037251E-02 -0.17491258990E-01 -0.20666528709E-01  0.28267049255E-01  0.51100000000E-03 0.  1.
</event>
<event>
 8    1  0.1086235E+005  0.1043930E+01  0.7957747E-01            NaN
         13   -1    0    0    0    0  0.00000000000E+00  0.00000000000E+00  0.74505805969E-08  0.10566000000E+00  0.10566000000E+00 0.  1.
     999900   -1    0    0    0    0 -0.00000000000E+00 -0.00000000000E+00 -0.74505805969E-08  0.93827000000E+00  0.93827000000E+00 0.  1.
     999902    2    1    2    0    0 -0.17179193789E-01 -0.12047015431E-01  0.10229780345E-01  0.10205868279E+01  0.10203198369E+01 0.  0.
     999903    2    3    3    0    0 -0.10117344550E+00  0.29959784510E-02  0.83830578388E-01  0.13340116326E+00  0.22874932230E-01 0.  0.
         14    1    1    2    0    0  0.17179193789E-01  0.12047015431E-01 -0.10229780345E-01  0.23343172148E-01  0.00000000000E+00 0. -1.
     999901    1    3    3    0    0  0.83994251713E-01 -0.15042993882E-01 -0.73600798043E-01  0.88718566459E+00  0.88000000000E+00 0.  1.
        -11    1    4    4    0    0 -0.71737463134E-01 -0.11343792673E-02  0.71264035109E-01  0.10112553710E+00  0.51100000000E-03 0. -1.
         11    1    4    4    0    0 -0.29435982368E-01  0.41303577183E-02  0.12566543279E-01  0.32275626157E-01  0.51100000000E-03 0.  1.
</event>
<event>
 8    1  0.1086235E+005  0.1043930E+01  0.7957747E-01            NaN
         13   -1    0    0    0    0  0.00000000000E+00  0.00000000000E+00  0.74505805969E-08  0.10566000000E+00  0.10566000000E+00 0. -1.
     999900   -1    0    0    0    0 -0.00000000000E+00 -0.00000000000E+00 -0.74505805969E-08  0.93827000000E+00  0.93827000000E+00 0. -1.
     999902    2    1    2    0    0 -0.22720938306E-01  0.40552345856E-02 -0.11094361470E-01  0.10183219774E+01  0.10179999405E+01 0.  0.
     999903    2    3    3    0    0 -0.68351005693E-01  0.40264310352E-01  0.10040889447E+00  0.12937531066E+00  0.19051253347E-01 0.  0.
         14    1    1    2    0    0  0.22720938306E-01 -0.40552345856E-02  0.11094361470E-01  0.25608022600E-01  0.00000000000E+00 0.  1.
     999901    1    3    3    0    0  0.45630067387E-01 -0.36209075767E-01 -0.11150325594E+00  0.88894666674E+00  0.88000000000E+00 0.  1.
        -11    1    4    4    0    0 -0.36944875985E-01  0.18483313458E-01  0.37667283331E-01  0.55907442192E-01  0.51100000000E-03 0. -1.
         11    1    4    4    0    0 -0.31406129708E-01  0.21780996895E-01  0.62741611135E-01  0.73467868472E-01  0.51100000000E-03 0.  1.
</event>
<event>
 8    1  0.1086235E+005  0.1043930E+01  0.7957747E-01            NaN
         13   -1    0    0    0    0  0.00000000000E+00  0.00000000000E+00  0.74505805969E-08  0.10566000000E+00  0.10566000000E+00 0. -1.
     999900   -1    0    0    0    0 -0.00000000000E+00 -0.00000000000E+00 -0.74505805969E-08  0.93827000000E+00  0.93827000000E+00 0. -1.
     999902    2    1    2    0    0 -0.23907618709E-01  0.11878971820E-02 -0.19913165753E-01  0.10127928919E+01  0.10123141421E+01 0.  0.
     999903    2    3    3    0    0  0.35440425678E-01 -0.11420595100E+00 -0.21412550659E-01  0.12327606869E+00  0.20963510428E-01 0.  0.
         14    1    1    2    0    0  0.23907618709E-01 -0.11878971820E-02  0.19913165753E-01  0.31137108125E-01  0.00000000000E+00 0. -1.
     999901    1    3    3    0    0 -0.59348044388E-01  0.11539384819E+00  0.14993849054E-02  0.88951682318E+00  0.88000000000E+00 0. -1.
        -11    1    4    4    0    0  0.10840998049E-01 -0.35314755342E-01  0.31095201298E-02  0.37075455763E-01  0.51100000000E-03 0. -1.
         11    1    4    4    0    0  0.24599427629E-01 -0.78891195661E-01 -0.24522070789E-01  0.86200612929E-01  0.51100000000E-03 0.  1.
</event>
<event>
 8    1  0.1086235E+005  0.1043930E+01  0.7957747E-01            NaN
         13   -1    0    0    0    0  0.00000000000E+00  0.00000000000E+00  0.74505805969E-08  0.10566000000E+00  0.10566000000E+00 0. -1.
     999900   -1    0    0    0    0 -0.00000000000E+00 -0.00000000000E+00 -0.74505805969E-08  0.93827000000E+00  0.93827000000E+00 0. -1.
     999902    2    1    2    0    0  0.79643041742E-02 -0.83529088231E-02 -0.20094226367E-01  0.10207571892E+01  0.10204941255E+01 0.  0.
     999903    2    3    3    0    0  0.83984193863E-01 -0.10000000361E+00  0.32339397437E-02  0.13243156369E+00  0.21778777638E-01 0.  0.
         14    1    1    2    0    0 -0.79643041742E-02  0.83529088231E-02  0.20094226367E-01  0.23172810793E-01  0.00000000000E+00 0. -1.
     999901    1    3    3    0    0 -0.76019889689E-01  0.91647094785E-01 -0.23328166110E-01  0.88832562551E+00  0.88000000000E+00 0. -1.
        -11    1    4    4    0    0  0.67979466348E-01 -0.66684687736E-01  0.55990849910E-02  0.95392171047E-01  0.51100000000E-03 0. -1.
         11    1    4    4    0    0  0.16004727515E-01 -0.33315315872E-01 -0.23651452473E-02  0.37039392645E-01  0.51100000000E-03 0.  1.
</event>
<event>
 8    1  0.1086235E+005  0.1043930E+01  0.7957747E-01            NaN
         13   -1    0    0    0    0  0.00000000000E+00  0.00000000000E+00  0.74505805969E-08  0.10566000000E+00  0.10566000000E+00 0.  1.
     999900   -1    0    0    0    0 -0.00000000000E+00 -0.00000000000E+00 -0.74505805969E-08  0.93827000000E+00  0.93827000000E+00 0.  1.
     999902    2    1    2    0    0  0.10908688119E-01  0.18983580688E-01 -0.77370864281E-02  0.10207084945E+01  0.10204443113E+01 0.  0.
     999903    2    3    3    0    0 -0.62713658134E-01  0.41170107512E-01  0.10465404336E+00  0.13023431861E+00  0.19507134143E-01 0.  0.
         14    1    1    2    0    0 -0.10908688119E-01 -0.18983580688E-01  0.77370864281E-02  0.23221505520E-01  0.00000000000E+00 0.  1.
     999901    1    3    3    0    0  0.73622346252E-01 -0.22186526824E-01 -0.11239112979E+00  0.89047417587E+00  0.88000000000E+00 0.  1.
        -11    1    4    4    0    0 -0.35529756423E-01  0.12667566099E-01  0.44601914894E-01  0.58415946073E-01  0.51100000000E-03 0. -1.
         11    1    4    4    0    0 -0.27183901710E-01  0.28502541413E-01  0.60052128467E-01  0.71818372536E-01  0.51100000000E-03 0.  1.
</event>
<event>
 8    1  0.1086235E+005  0.1043930E+01  0.7957747E-01            NaN
         13   -1    0    0    0    0  0.00000000000E+00  0.00000000000E+00  0.74505805969E-08  0.10566000000E+00  0.10566000000E+00 0.  1.
     999900   -1    0    0    0    0 -0.00000000000E+00 -0.00000000000E+00 -0.74505805969E-08  0.93827000000E+00  0.93827000000E+00 0.  1.
     999902    2    1    2    0    0  0.27846583133E-01 -0.65204095143E-02  0.59436548510E-02  0.10147191293E+01  0.10142985933E+01 0.  0.
     999903    2    3    3    0    0 -0.61245320200E-01 -0.90645462246E-01 -0.54577376711E-01  0.12417031708E+00  0.21725296838E-01 0.  0.
         14    1    1    2    0    0 -0.27846583133E-01  0.65204095143E-02 -0.59436548510E-02  0.29210870672E-01  0.00000000000E+00 0.  1.
     999901    1    3    3    0    0  0.89091903333E-01  0.84125052732E-01  0.60521031562E-01  0.89054881225E+00  0.88000000000E+00 0.  1.
        -11    1    4    4    0    0 -0.31744083693E-01 -0.29855665861E-01 -0.16439797448E-01  0.46578704304E-01  0.51100000000E-03 0. -1.
         11    1    4    4    0    0 -0.29501236506E-01 -0.60789796385E-01 -0.38137579263E-01  0.77591612775E-01  0.51100000000E-03 0.  1.
</event>
<event>
 8    1  0.1086235E+005  0.1043930E+01  0.7957747E-01            NaN
         13   -1    0    0    0    0  0.00000000000E+00  0.00000000000E+00  0.74505805969E-08  0.10566000000E+00  0.10566000000E+00 0. -1.
     999900   -1    0    0    0    0 -0.00000000000E+00 -0.00000000000E+00 -0.74505805969E-08  0.93827000000E+00  0.93827000000E+00 0.  1.
     999902    2    1    2    0    0 -0.11960384445E-01  0.19490449154E-01  0.31269989039E-02  0.10208495640E+01  0.10205886173E+01 0.  0.
     999903    2    3    3    0    0  0.90719195119E-01 -0.40029389894E-01  0.80779122596E-01  0.12949354106E+00  0.20272792367E-01 0.  0.
         14    1    1    2    0    0  0.11960384445E-01 -0.19490449154E-01 -0.31269989039E-02  0.23080436011E-01  0.00000000000E+00 0. -1.
     999901    1    3    3    0    0 -0.10267957956E+00  0.59519839048E-01 -0.77652123692E-01  0.89135602293E+00  0.88000000000E+00 0.  1.
        -11    1    4    4    0    0  0.12741145736E-01 -0.78548263282E-02  0.41809415734E-02  0.15549163474E-01  0.51100000000E-03 0.  1.
         11    1    4    4    0    0  0.77978049383E-01 -0.32174563566E-01  0.76598181023E-01  0.11394437758E+00  0.51100000000E-03 0. -1.
</event>
<event>
 8    1  0.1086235E+005  0.1043930E+01  0.7957747E-01            NaN
         13   -1    0    0    0    0  0.00000000000E+00  0.00000000000E+00  0.74505805969E-08  0.10566000000E+00  0.10566000000E+00 0. -1.
     999900   -1    0    0    0    0 -0.00000000000E+00 -0.00000000000E+00 -0.74505805969E-08  0.93827000000E+00  0.93827000000E+00 0. -1.
     999902    2    1    2    0    0 -0.16629605112E-01  0.70407394524E-02 -0.15700566498E-01  0.10200004458E+01  0.10197197094E+01 0.  0.
     999903    2    3    3    0    0 -0.87487423846E-01 -0.77091566978E-01  0.53431219217E-01  0.13046220641E+00  0.23839737473E-01 0.  0.
         14    1    1    2    0    0  0.16629605112E-01 -0.70407394524E-02  0.15700566498E-01  0.23929554250E-01  0.00000000000E+00 0.  1.
     999901    1    3    3    0    0  0.70857818734E-01  0.84132306431E-01 -0.69131785715E-01  0.88953823935E+00  0.88000000000E+00 0. -1.
        -11    1    4    4    0    0 -0.69620962446E-01 -0.48923522760E-01  0.32553384899E-01  0.91107483121E-01  0.51100000000E-03 0. -1.
         11    1    4    4    0    0 -0.17866461400E-01 -0.28168044218E-01  0.20877834318E-01  0.39354723285E-01  0.51100000000E-03 0.  1.
</event>
<event>
 8    1  0.1086235E+005  0.1043930E+01  0.7957747E-01            NaN
         13   -1    0    0    0    0  0.00000000000E+00  0.00000000000E+00  0.74505805969E-08  0.10566000000E+00  0.10566000000E+00 0.  1.
     999900   -1    0    0    0    0 -0.00000000000E+00 -0.00000000000E+00 -0.74505805969E-08  0.93827000000E+00  0.93827000000E+00 0. -1.
     999902    2    1    2    0    0  0.14213407462E-01 -0.15715934111E-01  0.11032404105E-01  0.10200401386E+01  0.10197603439E+01 0.  0.
     999903    2    3    3    0    0 -0.95305083852E-01 -0.87017000608E-01  0.49185819142E-02  0.13036855829E+00  0.17797503722E-01 0.  0.
         14    1    1    2    0    0 -0.14213407462E-01  0.15715934111E-01 -0.11032404105E-01  0.23889861385E-01  0.00000000000E+00 0.  1.
     999901    1    3    3    0    0  0.10951849131E+00  0.71301066497E-01  0.61138221911E-02  0.88967158033E+00  0.88000000000E+00 0.  1.
        -11    1    4    4    0    0 -0.62793188878E-01 -0.54766704565E-01 -0.51366519837E-02  0.83480673290E-01  0.51100000000E-03 0. -1.
         11    1    4    4    0    0 -0.32511894974E-01 -0.32250296043E-01  0.10055233898E-01  0.46887884996E-01  0.51100000000E-03 0.  1.
</event>
<event>
 8    1  0.1086235E+005  0.1043930E+01  0.7957747E-01            NaN
         13   -1    0    0    0    0  0.00000000000E+00  0.00000000000E+00  0.74505805969E-08  0.10566000000E+00  0.10566000000E+00 0.  1.
     999900   -1    0    0    0    0 -0.00000000000E+00 -0.00000000000E+00 -0.74505805969E-08  0.93827000000E+00  0.93827000000E+00 0.  1.
     999902    2    1    2    0    0 -0.18566161875E-01  0.94720722695E-03 -0.16794294414E-01  0.10188770981E+01  0.10185690419E+01 0.  0.
     999903    2    3    3    0    0 -0.83614379146E-01 -0.87339338925E-01 -0.48037490525E-01  0.13152039300E+00  0.19248084443E-01 0.  0.
         14    1    1    2    0    0  0.18566161875E-01 -0.94720722695E-03  0.16794294414E-01  0.25052901891E-01  0.00000000000E+00 0.  1.
     999901    1    3    3    0    0  0.65048217271E-01  0.88286546152E-01  0.31243196112E-01  0.88735670511E+00  0.88000000000E+00 0.  1.
        -11    1    4    4    0    0 -0.36914725204E-01 -0.43972461974E-01 -0.13299214644E-01  0.58935596884E-01  0.51100000000E-03 0. -1.
         11    1    4    4    0    0 -0.46699653942E-01 -0.43366876951E-01 -0.34738275881E-01  0.72584796114E-01  0.51100000000E-03 0.  1.
</event>
<event>
 8    1  0.1086235E+005  0.1043930E+01  0.7957747E-01            NaN
         13   -1    0    0    0    0  0.00000000000E+00  0.00000000000E+00  0.74505805969E-08  0.10566000000E+00  0.10566000000E+00 0. -1.
     999900   -1    0    0    0    0 -0.00000000000E+00 -0.00000000000E+00 -0.74505805969E-08  0.93827000000E+00  0.93827000000E+00 0. -1.
     999902    2    1    2    0    0  0.21194018184E-01  0.35828902575E-02 -0.10163565232E-01  0.10201535081E+01  0.10198763937E+01 0.  0.
     999903    2    3    3    0    0 -0.12471741710E+00  0.17200731919E-01  0.11457232239E-01  0.12777295505E+00  0.18556954647E-01 0.  0.
         14    1    1    2    0    0 -0.21194018184E-01 -0.35828902575E-02  0.10163565232E-01  0.23776491911E-01  0.00000000000E+00 0. -1.
     999901    1    3    3    0    0  0.14591143528E+00 -0.13617841662E-01 -0.21620797471E-01  0.89238055304E+00  0.88000000000E+00 0. -1.
        -11    1    4    4    0    0 -0.11009780912E+00  0.89569628309E-02  0.96011702531E-02  0.11087920611E+00  0.51100000000E-03 0. -1.
         11    1    4    4    0    0 -0.14619607977E-01  0.82437690883E-02  0.18560619863E-02  0.16893748941E-01  0.51100000000E-03 0.  1.
</event>
<event>
 8    1  0.1086235E+005  0.1043930E+01  0.7957747E-01            NaN
         13   -1    0    0    0    0  0.00000000000E+00  0.00000000000E+00  0.74505805969E-08  0.10566000000E+00  0.10566000000E+00 0.  1.
     999900   -1    0    0    0    0 -0.00000000000E+00 -0.00000000000E+00 -0.74505805969E-08  0.93827000000E+00  0.93827000000E+00 0.  1.
     999902    2    1    2    0    0 -0.19156020829E-01 -0.13688981756E-01 -0.43239157275E-02  0.10199917962E+01  0.10197108544E+01 0.  0.
     999903    2    3    3    0    0  0.53537616831E-01 -0.10101524064E+00 -0.60537172794E-01  0.13090790208E+00  0.20044307951E-01 0.  0.
         14    1    1    2    0    0  0.19156020829E-01  0.13688981756E-01  0.43239157275E-02  0.23938203833E-01  0.00000000000E+00 0.  1.
     999901    1    3    3    0    0 -0.72693637660E-01  0.87326258882E-01  0.56213257066E-01  0.88908389408E+00  0.88000000000E+00 0. -1.
        -11    1    4    4    0    0  0.38714009423E-01 -0.76139916252E-01 -0.35055629539E-01  0.92332116058E-01  0.51100000000E-03 0. -1.
         11    1    4    4    0    0  0.14823607408E-01 -0.24875324387E-01 -0.25481543255E-01  0.38575786027E-01  0.51100000000E-03 0.  1.
</event>
<event>
 8    1  0.1086235E+005  0.1043930E+01  0.7957747E-01            NaN
         13   -1    0    0    0    0  0.00000000000E+00  0.00000000000E+00  0.74505805969E-08  0.10566000000E+00  0.10566000000E+00 0.  1.
     999900   -1    0    0    0    0 -0.00000000000E+00 -0.00000000000E+00 -0.74505805969E-08  0.93827000000E+00  0.93827000000E+00 0. -1.
     999902    2    1    2    0    0 -0.16110651567E-01 -0.16610439160E-01  0.10193329649E-01  0.10186443568E+01  0.10183304777E+01 0.  0.
     999903    2    3    3    0    0  0.24098824537E-01  0.98998481487E-01 -0.71561040875E-01  0.12641904803E+00  0.21893845078E-01 0.  0.
         14    1    1    2    0    0  0.16110651567E-01  0.16610439160E-01 -0.10193329649E-01  0.25285643206E-01  0.00000000000E+00 0. -1.
     999901    1    3    3    0    0 -0.40209476105E-01 -0.11560892065E+00  0.81754370524E-01  0.89222530877E+00  0.88000000000E+00 0. -1.
        -11    1    4    4    0    0  0.24455006263E-01  0.67018323680E-01 -0.41560835855E-01  0.82565532992E-01  0.51100000000E-03 0.  1.
         11    1    4    4    0    0 -0.35618172608E-03  0.31980157807E-01 -0.30000205020E-01  0.43853515036E-01  0.51100000000E-03 0. -1.
</event>
<event>
 8    1  0.1086235E+005  0.1043930E+01  0.7957747E-01            NaN
         13   -1    0    0    0    0  0.00000000000E+00  0.00000000000E+00  0.74505805969E-08  0.10566000000E+00  0.10566000000E+00 0. -1.
     999900   -1    0    0    0    0 -0.00000000000E+00 -0.00000000000E+00 -0.74505805969E-08  0.93827000000E+00  0.93827000000E+00 0. -1.
     999902    2    1    2    0    0  0.13585767045E-01 -0.11427269668E-01  0.15351875722E-01  0.10204601119E+01  0.10201901805E+01 0.  0.
     999903    2    3    3    0    0 -0.71324315973E-01  0.19892118662E-01  0.10670566321E+00  0.13111420578E+00  0.17943855834E-01 0.  0.
         14    1    1    2    0    0 -0.13585767045E-01  0.11427269668E-01 -0.15351875722E-01  0.23469888079E-01  0.00000000000E+00 0.  1.
     999901    1    3    3    0    0  0.84910083018E-01 -0.31319388329E-01 -0.91353787488E-01  0.88934590614E+00  0.88000000000E+00 0. -1.
        -11    1    4    4    0    0 -0.15226257683E-01  0.10229099040E-01  0.35386846727E-01  0.39861804180E-01  0.51100000000E-03 0.  1.
         11    1    4    4    0    0 -0.56098058290E-01  0.96630196219E-02  0.71318816483E-01  0.91252401599E-01  0.51100000000E-03 0. -1.
</event>
<event>
 8    1  0.1086235E+005  0.1043930E+01  0.7957747E-01            NaN
         13   -1    0    0    0    0  0.00000000000E+00  0.00000000000E+00  0.74505805969E-08  0.10566000000E+00  0.10566000000E+00 0. -1.
     999900   -1    0    0    0    0 -0.00000000000E+00 -0.00000000000E+00 -0.74505805969E-08  0.93827000000E+00  0.93827000000E+00 0.  1.
     999902    2    1    2    0    0 -0.68417818901E-02 -0.97095884225E-02 -0.21058714262E-01  0.10197524167E+01  0.10194657600E+01 0.  0.
     999903    2    3    3    0    0  0.50654800157E-01  0.11620652349E+00  0.67553453907E-02  0.12849805006E+00  0.19906011561E-01 0.  0.
         14    1    1    2    0    0  0.68417818901E-02  0.97095884225E-02  0.21058714262E-01  0.24177583277E-01  0.00000000000E+00 0. -1.
     999901    1    3    3    0    0 -0.57496582047E-01 -0.12591611191E+00 -0.27814059653E-01  0.89125436667E+00  0.88000000000E+00 0.  1.
        -11    1    4    4    0    0  0.43355406322E-01  0.84239118856E-01  0.11206516388E-01  0.95403184085E-01  0.51100000000E-03 0. -1.
         11    1    4    4    0    0  0.72993938345E-02  0.31967404635E-01 -0.44511709971E-02  0.33094865972E-01  0.51100000000E-03 0.  1.
</event>
<event>
 8    1  0.1086235E+005  0.1043930E+01  0.7957747E-01            NaN
         13   -1    0    0    0    0  0.00000000000E+00  0.00000000000E+00  0.74505805969E-08  0.10566000000E+00  0.10566000000E+00 0.  1.
     999900   -1    0    0    0    0 -0.00000000000E+00 -0.00000000000E+00 -0.74505805969E-08  0.93827000000E+00  0.93827000000E+00 0. -1.
     999902    2    1    2    0    0  0.17498027613E-01 -0.30478605752E-03 -0.14853659691E-01  0.10209755871E+01  0.10207175145E+01 0.  0.
     999903    2    3    3    0    0  0.45216271552E-01  0.11529570714E+00 -0.43046529543E-01  0.13253503593E+00  0.19362870251E-01 0.  0.
         14    1    1    2    0    0 -0.17498027613E-01  0.30478605752E-03  0.14853659691E-01  0.22954412890E-01  0.00000000000E+00 0.  1.
     999901    1    3    3    0    0 -0.27718243938E-01 -0.11560049320E+00  0.28192869852E-01  0.88844055118E+00  0.88000000000E+00 0. -1.
        -11    1    4    4    0    0  0.27763970298E-01  0.70110976571E-01 -0.16120093564E-01  0.77113589074E-01  0.51100000000E-03 0.  1.
         11    1    4    4    0    0  0.17452301253E-01  0.45184730571E-01 -0.26926435978E-01  0.55421446853E-01  0.51100000000E-03 0. -1.
</event>
<event>
 8    1  0.1086235E+005  0.1043930E+01  0.7957747E-01            NaN
         13   -1    0    0    0    0  0.00000000000E+00  0.00000000000E+00  0.74505805969E-08  0.10566000000E+00  0.10566000000E+00 0. -1.
     999900   -1    0    0    0    0 -0.00000000000E+00 -0.00000000000E+00 -0.74505805969E-08  0.93827000000E+00  0.93827000000E+00 0.  1.
     999902    2    1    2    0    0 -0.17938876817E-01 -0.99639353329E-02 -0.10978762320E-01  0.10206573437E+01  0.10203919819E+01 0.  0.
     999903    2    3    3    0    0  0.63313337298E-01 -0.53509815954E-01  0.97122105416E-01  0.12926295085E+00  0.20107909347E-01 0.  0.
         14    1    1    2    0    0  0.17938876817E-01  0.99639353329E-02  0.10978762320E-01  0.23272656291E-01  0.00000000000E+00 0. -1.
     999901    1    3    3    0    0 -0.81252214115E-01  0.43545880621E-01 -0.10810086774E+00  0.89139439286E+00  0.88000000000E+00 0.  1.
        -11    1    4    4    0    0  0.27279466849E-01 -0.19208291583E-01  0.53722568896E-01  0.63241626378E-01  0.51100000000E-03 0. -1.
         11    1    4    4    0    0  0.36033870449E-01 -0.34301524371E-01  0.43399536520E-01  0.66021324471E-01  0.51100000000E-03 0.  1.
</event>
<event>
 8    1  0.1086235E+005  0.1043930E+01  0.7957747E-01            NaN
         13   -1    0    0    0    0  0.00000000000E+00  0.00000000000E+00  0.74505805969E-08  0.10566000000E+00  0.10566000000E+00 0. -1.
     999900   -1    0    0    0    0 -0.00000000000E+00 -0.00000000000E+00 -0.74505805969E-08  0.93827000000E+00  0.93827000000E+00 0.  1.
     999902    2    1    2    0    0 -0.18245935979E-02  0.16386563675E-01 -0.14887234720E-01  0.10217156270E+01  0.10214741035E+01 0.  0.
     999903    2    3    3    0    0  0.51877978417E-01 -0.11446418968E+00 -0.28225776067E-01  0.13032132446E+00  0.19838795598E-01 0.  0.
         14    1    1    2    0    0  0.18245935979E-02 -0.16386563675E-01  0.14887234720E-01  0.22214373016E-01  0.00000000000E+00 0. -1.
     999901    1    3    3    0    0 -0.53702572015E-01  0.13085075335E+00  0.13338541347E-01  0.89139430253E+00  0.88000000000E+00 0. -1.
        -11    1    4    4    0    0  0.22265132111E-01 -0.29568178932E-01 -0.42133286294E-02  0.37256228639E-01  0.51100000000E-03 0.  1.
         11    1    4    4    0    0  0.29612846306E-01 -0.84896010744E-01 -0.24012447437E-01  0.93065095817E-01  0.51100000000E-03 0. -1.
</event>
<event>
 8    1  0.1086235E+005  0.1043930E+01  0.7957747E-01            NaN
         13   -1    0    0    0    0  0.00000000000E+00  0.00000000000E+00  0.74505805969E-08  0.10566000000E+00  0.10566000000E+00 0. -1.
     999900   -1    0    0    0    0 -0.00000000000E+00 -0.00000000000E+00 -0.74505805969E-08  0.93827000000E+00  0.93827000000E+00 0. -1.
     999902    2    1    2    0    0 -0.60434442505E-02  0.17072526071E-02 -0.23032861107E-01  0.10200563614E+01  0.10197769510E+01 0.  0.
     999903    2    3    3    0    0 -0.11388018831E-02 -0.59065940141E-01 -0.11748461179E+00  0.13290441855E+00  0.19257941425E-01 0.  0.
         14    1    1    2    0    0  0.60434442505E-02 -0.17072526071E-02  0.23032861107E-01  0.23873638613E-01  0.00000000000E+00 0. -1.
     999901    1    3    3    0    0 -0.49046423674E-02  0.60773192748E-01  0.94451750683E-01  0.88715194284E+00  0.88000000000E+00 0.  1.
        -11    1    4    4    0    0  0.95254184853E-03 -0.49087750192E-01 -0.78375586928E-01  0.92485178824E-01  0.51100000000E-03 0. -1.
         11    1    4    4    0    0 -0.20913437316E-02 -0.99781899491E-02 -0.39109024862E-01  0.40419239724E-01  0.51100000000E-03 0.  1.
</event>
<event>
 8    1  0.1086235E+005  0.1043930E+01  0.7957747E-01            NaN
         13   -1    0    0    0    0  0.00000000000E+00  0.00000000000E+00  0.74505805969E-08  0.10566000000E+00  0.10566000000E+00 0.  1.
     999900   -1    0    0    0    0 -0.00000000000E+00 -0.00000000000E+00 -0.74505805969E-08  0.93827000000E+00  0.93827000000E+00 0. -1.
     999902    2    1    2    0    0 -0.22959081092E-01 -0.53533367078E-02 -0.10451180160E-02  0.10203319092E+01  0.10200589860E+01 0.  0.
     999903    2    3    3    0    0  0.31904668074E-01  0.29515256016E-01  0.12046153618E+00  0.12960764391E+00  0.19952480515E-01 0.  0.
         14    1    1    2    0    0  0.22959081092E-01  0.53533367078E-02  0.10451180160E-02  0.23598090816E-01  0.00000000000E+00 0.  1.
     999901    1    3    3    0    0 -0.54863749165E-01 -0.34868592724E-01 -0.12150665420E+00  0.89072426527E+00  0.88000000000E+00 0. -1.
        -11    1    4    4    0    0  0.22557923000E-01  0.17807637474E-01  0.50957160464E-01  0.58505257593E-01  0.51100000000E-03 0. -1.
         11    1    4    4    0    0  0.93467450738E-02  0.11707618542E-01  0.69504375717E-01  0.71102386318E-01  0.51100000000E-03 0.  1.
</event>
<event>
 8    1  0.1086235E+005  0.1043930E+01  0.7957747E-01            NaN
         13   -1    0    0    0    0  0.00000000000E+00  0.00000000000E+00  0.74505805969E-08  0.10566000000E+00  0.10566000000E+00 0.  1.
     999900   -1    0    0    0    0 -0.00000000000E+00 -0.00000000000E+00 -0.74505805969E-08  0.93827000000E+00  0.93827000000E+00 0.  1.
     999902    2    1    2    0    0 -0.13090948571E-01 -0.12978105085E-01  0.16099771423E-01  0.10194553849E+01  0.10191615549E+01 0.  0.
     999903    2    3    3    0    0 -0.88674175348E-01 -0.81257911612E-01 -0.48520665225E-01  0.13122638456E+00  0.20003786591E-01 0.  0.
         14    1    1    2    0    0  0.13090948571E-01  0.12978105085E-01 -0.16099771423E-01  0.24474615134E-01  0.00000000000E+00 0. -1.
     999901    1    3    3    0    0  0.75583226777E-01  0.68279806528E-01  0.64620436648E-01  0.88822900030E+00  0.88000000000E+00 0. -1.
        -11    1    4    4    0    0 -0.82481009096E-01 -0.76446855672E-01 -0.39344560104E-01  0.11914484519E+00  0.51100000000E-03 0. -1.
         11    1    4    4    0    0 -0.61931662523E-02 -0.48110559404E-02 -0.91761051218E-02  0.12081539376E-01  0.51100000000E-03 0.  1.
</event>
<event>
 8    1  0.1086235E+005  0.1043930E+01  0.7957747E-01            NaN
         13   -1    0    0    0    0  0.00000000000E+00  0.00000000000E+00  0.74505805969E-08  0.10566000000E+00  0.10566000000E+00 0. -1.
     999900   -1    0    0    0    0 -0.00000000000E+00 -0.00000000000E+00 -0.74505805969E-08  0.93827000000E+00  0.93827000000E+00 0. -1.
     999902    2    1    2    0    0 -0.17678419975E-01  0.17534391169E-01 -0.29760633235E-02  0.10188533503E+01  0.10185447025E+01 0.  0.
     999903    2    3    3    0    0  0.52394820364E-01  0.57080168116E-02 -0.11587594251E+00  0.12879913575E+00  0.19600629111E-01 0.  0.
         14    1    1    2    0    0  0.17678419975E-01 -0.17534391169E-01  0.29760633235E-02  0.25076649684E-01  0.00000000000E+00 0.  1.
     999901    1    3    3    0    0 -0.70073240339E-01  0.11826374357E-01  0.11289987918E+00  0.89005421456E+00  0.88000000000E+00 0.  1.
        -11    1    4    4    0    0  0.28077388952E-01  0.12468108168E-01 -0.69730325332E-01  0.76199559602E-01  0.51100000000E-03 0. -1.
         11    1    4    4    0    0  0.24317431412E-01 -0.67600913565E-02 -0.46145617176E-01  0.52599576150E-01  0.51100000000E-03 0.  1.
</event>
<event>
 8    1  0.1086235E+005  0.1043930E+01  0.7957747E-01            NaN
         13   -1    0    0    0    0  0.00000000000E+00  0.00000000000E+00  0.74505805969E-08  0.10566000000E+00  0.10566000000E+00 0.  1.
     999900   -1    0    0    0    0 -0.00000000000E+00 -0.00000000000E+00 -0.74505805969E-08  0.93827000000E+00  0.93827000000E+00 0. -1.
     999902    2    1    2    0    0 -0.54835262739E-02  0.21787516718E-01 -0.59716590650E-02  0.10206829430E+01  0.10204181714E+01 0.  0.
     999903    2    3    3    0    0 -0.69763972068E-01 -0.10079238016E+00  0.35013339678E-01  0.12892200145E+00  0.19205020324E-01 0.  0.
         14    1    1    2    0    0  0.54835262739E-02 -0.21787516718E-01  0.59716590650E-02  0.23247056957E-01  0.00000000000E+00 0.  1.
     999901    1    3    3    0    0  0.64280445794E-01  0.12257989688E+00 -0.40984998743E-01  0.89176094159E+00  0.88000000000E+00 0. -1.
        -11    1    4    4    0    0 -0.19729907646E-01 -0.43328951911E-01  0.93551907514E-02  0.48522654960E-01  0.51100000000E-03 0. -1.
         11    1    4    4    0    0 -0.50034064422E-01 -0.57463428248E-01  0.25658148927E-01  0.80399346489E-01  0.51100000000E-03 0.  1.
</event>
<event>
 8    1  0.1086235E+005  0.1043930E+01  0.7957747E-01            NaN
         13   -1    0    0    0    0  0.00000000000E+00  0.00000000000E+00  0.74505805969E-08  0.10566000000E+00  0.10566000000E+00 0.  1.
     999900   -1    0    0    0    0 -0.00000000000E+00 -0.00000000000E+00 -0.74505805969E-08  0.93827000000E+00  0.93827000000E+00 0.  1.
     999902    2    1    2    0    0  0.29611282776E-02  0.20142159271E-01  0.11026777427E-01  0.10207769293E+01  0.10205143188E+01 0.  0.
     999903    2    3    3    0    0  0.71877735496E-01  0.76584112836E-01  0.80628961136E-01  0.13354547315E+00  0.17373221504E-01 0.  0.
         14    1    1    2    0    0 -0.29611282776E-02 -0.20142159271E-01 -0.11026777427E-01  0.23153070664E-01  0.00000000000E+00 0. -1.
     999901    1    3    3    0    0 -0.68916607218E-01 -0.56441953565E-01 -0.69602183709E-01  0.88723145619E+00  0.88000000000E+00 0.  1.
        -11    1    4    4    0    0  0.64430505880E-01  0.67970650197E-01  0.77914563805E-01  0.12182873122E+00  0.51100000000E-03 0. -1.
         11    1    4    4    0    0  0.74472296156E-02  0.86134626391E-02  0.27143973314E-02  0.11716741930E-01  0.51100000000E-03 0.  1.
</event>
<event>
 8    1  0.1086235E+005  0.1043930E+01  0.7957747E-01            NaN
         13   -1    0    0    0    0  0.00000000000E+00  0.00000000000E+00  0.74505805969E-08  0.10566000000E+00  0.10566000000E+00 0.  1.
     999900   -1    0    0    0    0 -0.00000000000E+00 -0.00000000000E+00 -0.74505805969E-08  0.93827000000E+00  0.93827000000E+00 0.  1.
     999902    2    1    2    0    0 -0.34162288975E-02  0.42384205629E-02 -0.23314317864E-01  0.10199885663E+01  0.10197075479E+01 0.  0.
     999903    2    3    3    0    0 -0.25962550757E-01 -0.12165272488E+00  0.28953478970E-01  0.12920866101E+00  0.19573824983E-01 0.  0.
         14    1    1    2    0    0  0.34162288975E-02 -0.42384205629E-02  0.23314317864E-01  0.23941433671E-01  0.00000000000E+00 0.  1.
     999901    1    3    3    0    0  0.22546321859E-01  0.12589114544E+00 -0.52267796835E-01  0.89077990532E+00  0.88000000000E+00 0.  1.
        -11    1    4    4    0    0 -0.14690090366E-01 -0.85031408391E-01  0.11340869263E-01  0.87034565573E-01  0.51100000000E-03 0.  1.
         11    1    4    4    0    0 -0.11272460391E-01 -0.36621316486E-01  0.17612609707E-01  0.42174095439E-01  0.51100000000E-03 0. -1.
</event>
<event>
 8    1  0.1242996E+005  0.1043930E+01  0.7957747E-01            NaN
         13   -1    0    0    0    0  0.00000000000E+00  0.00000000000E+00  0.74505805969E-08  0.10566000000E+00  0.10566000000E+00 0. -1.
     999900   -1    0    0    0    0 -0.00000000000E+00 -0.00000000000E+00 -0.74505805969E-08  0.93827000000E+00  0.93827000000E+00 0.  1.
     999902    2    1    2    0    0  0.17555179588E-01  0.13069670251E-01 -0.95299863498E-02  0.10200590710E+01  0.10197797248E+01 0.  0.
     999903    2    3    3    0    0  0.26471192614E-01 -0.28053263078E-01 -0.12339129569E+00  0.13172636943E+00  0.25272810350E-01 0.  0.
         14    1    1    2    0    0 -0.17555179588E-01 -0.13069670251E-01  0.95299863498E-02  0.23870928986E-01  0.00000000000E+00 0. -1.
     999901    1    3    3    0    0 -0.89160130266E-02  0.41122933329E-01  0.11386130934E+00  0.88833270158E+00  0.88000000000E+00 0. -1.
        -11    1    4    4    0    0 -0.77350101575E-03 -0.12654924774E-01 -0.56026677916E-01  0.57445584549E-01  0.51100000000E-03 0. -1.
         11    1    4    4    0    0  0.27244693630E-01 -0.15398338304E-01 -0.67364617779E-01  0.74280784884E-01  0.51100000000E-03 0.  1.
</event>
<event>
 8    1  0.1086235E+005  0.1043930E+01  0.7957747E-01            NaN
         13   -1    0    0    0    0  0.00000000000E+00  0.00000000000E+00  0.74505805969E-08  0.10566000000E+00  0.10566000000E+00 0.  1.
     999900   -1    0    0    0    0 -0.00000000000E+00 -0.00000000000E+00 -0.74505805969E-08  0.93827000000E+00  0.93827000000E+00 0. -1.
     999902    2    1    2    0    0 -0.18844272027E-02 -0.20893450588E-02 -0.23024023525E-01  0.10207346969E+01  0.10204711163E+01 0.  0.
     999903    2    3    3    0    0  0.85075834542E-01 -0.68980489180E-01  0.65912655785E-01  0.12947365473E+00  0.20560728740E-01 0.  0.
         14    1    1    2    0    0  0.18844272027E-02  0.20893450588E-02  0.23024023525E-01  0.23195303144E-01  0.00000000000E+00 0.  1.
     999901    1    3    3    0    0 -0.86960261745E-01  0.66891144121E-01 -0.88936679309E-01  0.89126104213E+00  0.88000000000E+00 0. -1.
        -11    1    4    4    0    0  0.21070742500E-01 -0.21897809394E-01  0.28431394670E-01  0.41618452274E-01  0.51100000000E-03 0.  1.
         11    1    4    4    0    0  0.64005092041E-01 -0.47082679786E-01  0.37481261114E-01  0.87855202457E-01  0.51100000000E-03 0. -1.
</event>
<event>
 8    1  0.1086235E+005  0.1043930E+01  0.7957747E-01            NaN
         13   -1    0    0    0    0  0.00000000000E+00  0.00000000000E+00  0.74505805969E-08  0.10566000000E+00  0.10566000000E+00 0.  1.
     999900   -1    0    0    0    0 -0.00000000000E+00 -0.00000000000E+00 -0.74505805969E-08  0.93827000000E+00  0.93827000000E+00 0. -1.
     999902    2    1    2    0    0  0.12521318478E-01  0.39102686910E-02 -0.19545420566E-01  0.10203907332E+01  0.10201191848E+01 0.  0.
     999903    2    3    3    0    0 -0.61557093197E-01 -0.70158779443E-01  0.84625969019E-01  0.12807603903E+00  0.23030134317E-01 0.  0.
         14    1    1    2    0    0 -0.12521318478E-01 -0.39102686910E-02  0.19545420566E-01  0.23539266827E-01  0.00000000000E+00 0.  1.
     999901    1    3    3    0    0  0.74078411674E-01  0.74069048134E-01 -0.10417138958E+00  0.89231469414E+00  0.88000000000E+00 0. -1.
        -11    1    4    4    0    0 -0.29948678322E-01 -0.50095992904E-01  0.56632222575E-01  0.81326512239E-01  0.51100000000E-03 0. -1.
         11    1    4    4    0    0 -0.31608414875E-01 -0.20062786539E-01  0.27993746444E-01  0.46749526796E-01  0.51100000000E-03 0.  1.
</event>
<event>
 8    1  0.1086235E+005  0.1043930E+01  0.7957747E-01            NaN
         13   -1    0    0    0    0  0.00000000000E+00  0.00000000000E+00  0.74505805969E-08  0.10566000000E+00  0.10566000000E+00 0. -1.
     999900   -1    0    0    0    0 -0.00000000000E+00 -0.00000000000E+00 -0.74505805969E-08  0.93827000000E+00  0.93827000000E+00 0. -1.
     999902    2    1    2    0    0 -0.27224727940E-02  0.13988366124E-01  0.16212508588E-01  0.10223445494E+01  0.10221166499E+01 0.  0.
     999903    2    3    3    0    0  0.93114847609E-01 -0.68449738403E-01 -0.56721328009E-01  0.13032427067E+00  0.20282133566E-01 0.  0.
         14    1    1    2    0    0  0.27224727940E-02 -0.13988366124E-01 -0.16212508588E-01  0.21585450647E-01  0.00000000000E+00 0. -1.
     999901    1    3    3    0    0 -0.95837320403E-01  0.82438104527E-01  0.72933836596E-01  0.89202027868E+00  0.88000000000E+00 0. -1.
        -11    1    4    4    0    0  0.43556260026E-01 -0.42090966404E-01 -0.22710865437E-01  0.64690352992E-01  0.51100000000E-03 0. -1.
         11    1    4    4    0    0  0.49558587583E-01 -0.26358771999E-01 -0.34010462572E-01  0.65633917679E-01  0.51100000000E-03 0.  1.
</event>
<event>
 8    1  0.1086235E+005  0.1043930E+01  0.7957747E-01            NaN
         13   -1    0    0    0    0  0.00000000000E+00  0.00000000000E+00  0.74505805969E-08  0.10566000000E+00  0.10566000000E+00 0.  1.
     999900   -1    0    0    0    0 -0.00000000000E+00 -0.00000000000E+00 -0.74505805969E-08  0.93827000000E+00  0.93827000000E+00 0. -1.
     999902    2    1    2    0    0  0.18055040047E-01  0.96819444679E-03  0.14058474280E-01  0.10210266690E+01  0.10207697567E+01 0.  0.
     999903    2    3    3    0    0  0.21765781599E-01  0.14316678930E-01 -0.12558692067E+00  0.12990782846E+00  0.20621656270E-01 0.  0.
         14    1    1    2    0    0 -0.18055040047E-01 -0.96819444679E-03 -0.14058474280E-01  0.22903330995E-01  0.00000000000E+00 0. -1.
     999901    1    3    3    0    0 -0.37107415516E-02 -0.13348484483E-01  0.13964539495E+00  0.89111884054E+00  0.88000000000E+00 0.  1.
        -11    1    4    4    0    0 -0.16719073932E-02  0.90122732393E-02 -0.33309238346E-01  0.34551162404E-01  0.51100000000E-03 0.  1.
         11    1    4    4    0    0  0.23437688992E-01  0.53044056909E-02 -0.92277682326E-01  0.95356666057E-01  0.51100000000E-03 0. -1.
</event>
<event>
 8    1  0.1086235E+005  0.1043930E+01  0.7957747E-01            NaN
         13   -1    0    0    0    0  0.00000000000E+00  0.00000000000E+00  0.74505805969E-08  0.10566000000E+00  0.10566000000E+00 0.  1.
     999900   -1    0    0    0    0 -0.00000000000E+00 -0.00000000000E+00 -0.74505805969E-08  0.93827000000E+00  0.93827000000E+00 0.  1.
     999902    2    1    2    0    0  0.29110544179E-02  0.12481738762E-01  0.10407657552E-01  0.10274197796E+01  0.10272871148E+01 0.  0.
     999903    2    3    3    0    0  0.61367348896E-01  0.14367578553E-02 -0.11949864002E+00  0.13589592909E+00  0.20488113440E-01 0.  0.
         14    1    1    2    0    0 -0.29110544179E-02 -0.12481738762E-01 -0.10407657552E-01  0.16510220352E-01  0.00000000000E+00 0. -1.
     999901    1    3    3    0    0 -0.58456294478E-01  0.11044980906E-01  0.12990629757E+00  0.89152385056E+00  0.88000000000E+00 0. -1.
        -11    1    4    4    0    0  0.22020310447E-01  0.74279447135E-02 -0.59654649131E-01  0.64023485681E-01  0.51100000000E-03 0. -1.
         11    1    4    4    0    0  0.39347038449E-01 -0.59911868582E-02 -0.59843990890E-01  0.71872443408E-01  0.51100000000E-03 0.  1.
</event>
<event>
 8    1  0.1086235E+005  0.1043930E+01  0.7957747E-01            NaN
         13   -1    0    0    0    0  0.00000000000E+00  0.00000000000E+00  0.74505805969E-08  0.10566000000E+00  0.10566000000E+00 0. -1.
     999900   -1    0    0    0    0 -0.00000000000E+00 -0.00000000000E+00 -0.74505805969E-08  0.93827000000E+00  0.93827000000E+00 0.  1.
     999902    2    1    2    0    0 -0.25676891670E-02  0.19927912688E-01  0.99454816954E-02  0.10215106481E+01  0.10212645969E+01 0.  0.
     999903    2    3    3    0    0  0.11840455565E+00 -0.38208714935E-01 -0.31999008672E-01  0.13034652646E+00  0.22062087578E-01 0.  0.
         14    1    1    2    0    0  0.25676891670E-02 -0.19927912688E-01 -0.99454816954E-02  0.22419351862E-01  0.00000000000E+00 0.  1.
     999901    1    3    3    0    0 -0.12097224482E+00  0.58136627623E-01  0.41944490367E-01  0.89116412167E+00  0.88000000000E+00 0. -1.
        -11    1    4    4    0    0  0.92794741529E-01 -0.20021864373E-01 -0.23282446262E-01  0.97744936101E-01  0.51100000000E-03 0.  1.
         11    1    4    4    0    0  0.25609814125E-01 -0.18186850562E-01 -0.87165624098E-02  0.32601590362E-01  0.51100000000E-03 0. -1.
</event>
<event>
 8    1  0.1086235E+005  0.1043930E+01  0.7957747E-01            NaN
         13   -1    0    0    0    0  0.00000000000E+00  0.00000000000E+00  0.74505805969E-08  0.10566000000E+00  0.10566000000E+00 0. -1.
     999900   -1    0    0    0    0 -0.00000000000E+00 -0.00000000000E+00 -0.74505805969E-08  0.93827000000E+00  0.93827000000E+00 0.  1.
     999902    2    1    2    0    0 -0.20584158761E-01  0.25384563590E-02  0.12958353197E-01  0.10194745247E+01  0.10191811597E+01 0.  0.
     999903    2    3    3    0    0 -0.11363392160E+00  0.39133989261E-01  0.53190848426E-01  0.13289900903E+00  0.19716566390E-01 0.  0.
         14    1    1    2    0    0  0.20584158761E-01 -0.25384563590E-02 -0.12958353197E-01  0.24455475259E-01  0.00000000000E+00 0.  1.
     999901    1    3    3    0    0  0.93049762839E-01 -0.36595532902E-01 -0.40232495229E-01  0.88657551571E+00  0.88000000000E+00 0.  1.
        -11    1    4    4    0    0 -0.82305475183E-01  0.31078846398E-01  0.47721697816E-01  0.10008849835E+00  0.51100000000E-03 0. -1.
         11    1    4    4    0    0 -0.31328446417E-01  0.80551428637E-02  0.54691506104E-02  0.32810510676E-01  0.51100000000E-03 0.  1.
</event>
<event>
 8    1  0.1086235E+005  0.1043930E+01  0.7957747E-01            NaN
         13   -1    0    0    0    0  0.00000000000E+00  0.00000000000E+00  0.74505805969E-08  0.10566000000E+00  0.10566000000E+00 0.  1.
     999900   -1    0    0    0    0 -0.00000000000E+00 -0.00000000000E+00 -0.74505805969E-08  0.93827000000E+00  0.93827000000E+00 0.  1.
     999902    2    1    2    0    0 -0.14146696041E-01  0.11270596517E-01 -0.15058326270E-01  0.10203947383E+01  0.10201232834E+01 0.  0.
     999903    2    3    3    0    0  0.48229325758E-01  0.11642730417E+00  0.28840861218E-01  0.13085787005E+00  0.20263313097E-01 0.  0.
         14    1    1    2    0    0  0.14146696041E-01 -0.11270596517E-01  0.15058326270E-01  0.23535261732E-01  0.00000000000E+00 0.  1.
     999901    1    3    3    0    0 -0.62376021799E-01 -0.10515670766E+00 -0.43899187487E-01  0.88953686822E+00  0.88000000000E+00 0.  1.
        -11    1    4    4    0    0  0.27205117576E-01  0.44239983998E-01  0.60380338222E-02  0.52287795707E-01  0.51100000000E-03 0.  1.
         11    1    4    4    0    0  0.21024208182E-01  0.72187320175E-01  0.22802827395E-01  0.78570074341E-01  0.51100000000E-03 0. -1.
</event>
<event>
 8    1  0.1086235E+005  0.1043930E+01  0.7957747E-01            NaN
         13   -1    0    0    0    0  0.00000000000E+00  0.00000000000E+00  0.74505805969E-08  0.10566000000E+00  0.10566000000E+00 0.  1.
     999900   -1    0    0    0    0 -0.00000000000E+00 -0.00000000000E+00 -0.74505805969E-08  0.93827000000E+00  0.93827000000E+00 0.  1.
     999902    2    1    2    0    0 -0.44281704710E-03 -0.19184406675E-01 -0.13755857072E-01  0.10203193848E+01  0.10200461685E+01 0.  0.
     999903    2    3    3    0    0  0.38193181859E-01  0.22757097443E-01  0.11789278975E+00  0.12870108284E+00  0.26242222177E-01 0.  0.
         14    1    1    2    0    0  0.44281704710E-03  0.19184406675E-01  0.13755857072E-01  0.23610615201E-01  0.00000000000E+00 0.  1.
     999901    1    3    3    0    0 -0.38635998906E-01 -0.41941504117E-01 -0.13164864682E+00  0.89161830196E+00  0.88000000000E+00 0.  1.
        -11    1    4    4    0    0  0.36308751691E-01  0.19310840959E-01  0.74256158340E-01  0.84885052867E-01  0.51100000000E-03 0.  1.
         11    1    4    4    0    0  0.18844301680E-02  0.34462564839E-02  0.43636631409E-01  0.43816029972E-01  0.51100000000E-03 0. -1.
</event>
<event>
 8    1  0.1086235E+005  0.1043930E+01  0.7957747E-01            NaN
         13   -1    0    0    0    0  0.00000000000E+00  0.00000000000E+00  0.74505805969E-08  0.10566000000E+00  0.10566000000E+00 0.  1.
     999900   -1    0    0    0    0 -0.00000000000E+00 -0.00000000000E+00 -0.74505805969E-08  0.93827000000E+00  0.93827000000E+00 0. -1.
     999902    2    1    2    0    0 -0.15649023748E-02  0.68198767984E-02  0.22239537706E-01  0.10206156980E+01  0.10203493747E+01 0.  0.
     999903    2    3    3    0    0 -0.68406756539E-01 -0.10665881191E+00  0.24911830460E-01  0.13081100743E+00  0.20864656005E-01 0.  0.
         14    1    1    2    0    0  0.15649023748E-02 -0.68198767984E-02 -0.22239537706E-01  0.23314301971E-01  0.00000000000E+00 0. -1.
     999901    1    3    3    0    0  0.66841854165E-01  0.11347868871E+00 -0.26722927536E-02  0.88980469060E+00  0.88000000000E+00 0. -1.
        -11    1    4    4    0    0 -0.24538375520E-01 -0.55278839685E-01  0.68001075241E-02  0.60863655603E-01  0.51100000000E-03 0. -1.
         11    1    4    4    0    0 -0.43868381020E-01 -0.51379972226E-01  0.18111722936E-01  0.69947351829E-01  0.51100000000E-03 0.  1.
</event>
<event>
 8    1  0.1086235E+005  0.1043930E+01  0.7957747E-01            NaN
         13   -1    0    0    0    0  0.00000000000E+00  0.00000000000E+00  0.74505805969E-08  0.10566000000E+00  0.10566000000E+00 0.  1.
     999900   -1    0    0    0    0 -0.00000000000E+00 -0.00000000000E+00 -0.74505805969E-08  0.93827000000E+00  0.93827000000E+00 0. -1.
     999902    2    1    2    0    0  0.16940142859E-01  0.25766886927E-02 -0.16934069609E-01  0.10198391204E+01  0.10195545405E+01 0.  0.
     999903    2    3    3    0    0 -0.10230203586E+00 -0.82458450397E-02 -0.76513265669E-01  0.12973491023E+00  0.21051522713E-01 0.  0.
         14    1    1    2    0    0 -0.16940142859E-01 -0.25766886927E-02  0.16934069609E-01  0.24090879565E-01  0.00000000000E+00 0.  1.
     999901    1    3    3    0    0  0.11924217871E+00  0.10822533732E-01  0.59579196060E-01  0.89010421020E+00  0.88000000000E+00 0.  1.
        -11    1    4    4    0    0 -0.15834829494E-01  0.60398278969E-02 -0.97276488988E-02  0.19547624414E-01  0.51100000000E-03 0.  1.
         11    1    4    4    0    0 -0.86467206361E-01 -0.14285672937E-01 -0.66785616770E-01  0.11018728582E+00  0.51100000000E-03 0. -1.
</event>
<event>
 8    1  0.1086235E+005  0.1043930E+01  0.7957747E-01            NaN
         13   -1    0    0    0    0  0.00000000000E+00  0.00000000000E+00  0.74505805969E-08  0.10566000000E+00  0.10566000000E+00 0.  1.
     999900   -1    0    0    0    0 -0.00000000000E+00 -0.00000000000E+00 -0.74505805969E-08  0.93827000000E+00  0.93827000000E+00 0. -1.
     999902    2    1    2    0    0 -0.70890802453E-02  0.14620536248E-02  0.22371103322E-01  0.10204170478E+01  0.10201461133E+01 0.  0.
     999903    2    3    3    0    0  0.36833874267E-01 -0.22864739301E-01 -0.11860853993E+00  0.12778258808E+00  0.19515979985E-01 0.  0.
         14    1    1    2    0    0  0.70890802453E-02 -0.14620536248E-02 -0.22371103322E-01  0.23512952247E-01  0.00000000000E+00 0. -1.
     999901    1    3    3    0    0 -0.43922954513E-01  0.24326792925E-01  0.14097964325E+00  0.89263445967E+00  0.88000000000E+00 0.  1.
        -11    1    4    4    0    0  0.23928301517E-01 -0.33895763082E-02 -0.60949296591E-01  0.65567756687E-01  0.51100000000E-03 0. -1.
         11    1    4    4    0    0  0.12905572751E-01 -0.19475162992E-01 -0.57659243339E-01  0.62214831391E-01  0.51100000000E-03 0.  1.
</event>
<event>
 8    1  0.1086235E+005  0.1043930E+01  0.7957747E-01            NaN
         13   -1    0    0    0    0  0.00000000000E+00  0.00000000000E+00  0.74505805969E-08  0.10566000000E+00  0.10566000000E+00 0.  1.
     999900   -1    0    0    0    0 -0.00000000000E+00 -0.00000000000E+00 -0.74505805969E-08  0.93827000000E+00  0.93827000000E+00 0. -1.
     999902    2    1    2    0    0  0.10029406331E-01  0.19630912613E-01 -0.14623669635E-01  0.10174760129E+01  0.10171320580E+01 0.  0.
     999903    2    3    3    0    0 -0.65620495595E-01 -0.93940962330E-01 -0.49063568111E-01  0.12629276289E+00  0.20289760894E-01 0.  0.
         14    1    1    2    0    0 -0.10029406331E-01 -0.19630912613E-01  0.14623669635E-01  0.26453987128E-01  0.00000000000E+00 0.  1.
     999901    1    3    3    0    0  0.75649901927E-01  0.11357187494E+00  0.34439898476E-01  0.89118324998E+00  0.88000000000E+00 0.  1.
        -11    1    4    4    0    0 -0.66707366040E-01 -0.91719698719E-01 -0.46167181934E-01  0.12245017610E+00  0.51100000000E-03 0. -1.
         11    1    4    4    0    0  0.10868704443E-02 -0.22212636109E-02 -0.28963861776E-02  0.38425867956E-02  0.51100000000E-03 0.  1.
</event>
<event>
 8    1  0.1086235E+005  0.1043930E+01  0.7957747E-01            NaN
         13   -1    0    0    0    0  0.00000000000E+00  0.00000000000E+00  0.74505805969E-08  0.10566000000E+00  0.10566000000E+00 0.  1.
     999900   -1    0    0    0    0 -0.00000000000E+00 -0.00000000000E+00 -0.74505805969E-08  0.93827000000E+00  0.93827000000E+00 0. -1.
     999902    2    1    2    0    0 -0.18115072934E-01 -0.13746230549E-02 -0.15403103354E-01  0.10201119176E+01  0.10198338215E+01 0.  0.
     999903    2    3    3    0    0 -0.65763861221E-01  0.91779905783E-01  0.62112599118E-01  0.13052951142E+00  0.20773585007E-01 0.  0.
         14    1    1    2    0    0  0.18115072934E-01  0.13746230549E-02  0.15403103354E-01  0.23818082393E-01  0.00000000000E+00 0.  1.
     999901    1    3    3    0    0  0.47648788287E-01 -0.93154528837E-01 -0.77515702473E-01  0.88958240619E+00  0.88000000000E+00 0. -1.
        -11    1    4    4    0    0 -0.48370776534E-01  0.67990539927E-01  0.35013794304E-01  0.90491283859E-01  0.51100000000E-03 0. -1.
         11    1    4    4    0    0 -0.17393084687E-01  0.23789365856E-01  0.27098804815E-01  0.40038227560E-01  0.51100000000E-03 0.  1.
</event>
<event>
 8    1  0.1086235E+005  0.1043930E+01  0.7957747E-01            NaN
         13   -1    0    0    0    0  0.00000000000E+00  0.00000000000E+00  0.74505805969E-08  0.10566000000E+00  0.10566000000E+00 0.  1.
     999900   -1    0    0    0    0 -0.00000000000E+00 -0.00000000000E+00 -0.74505805969E-08  0.93827000000E+00  0.93827000000E+00 0.  1.
     999902    2    1    2    0    0 -0.17193600664E-01 -0.44396481122E-02 -0.11434241616E-01  0.10228095772E+01  0.10225914917E+01 0.  0.
     999903    2    3    3    0    0 -0.85572297081E-01  0.79879292954E-01 -0.63201901066E-01  0.13462872818E+00  0.20666269204E-01 0.  0.
         14    1    1    2    0    0  0.17193600664E-01  0.44396481122E-02  0.11434241616E-01  0.21120422829E-01  0.00000000000E+00 0. -1.
     999901    1    3    3    0    0  0.68378696417E-01 -0.84318941066E-01  0.51767659450E-01  0.88818084899E+00  0.88000000000E+00 0. -1.
        -11    1    4    4    0    0 -0.46977683614E-02  0.12886405909E-01 -0.93485682517E-02  0.16606785787E-01  0.51100000000E-03 0.  1.
         11    1    4    4    0    0 -0.80874528720E-01  0.66992887045E-01 -0.53853332814E-01  0.11802194239E+00  0.51100000000E-03 0. -1.
</event>
<event>
 8    1  0.1086235E+005  0.1043930E+01  0.7957747E-01            NaN
         13   -1    0    0    0    0  0.00000000000E+00  0.00000000000E+00  0.74505805969E-08  0.10566000000E+00  0.10566000000E+00 0.  1.
     999900   -1    0    0    0    0 -0.00000000000E+00 -0.00000000000E+00 -0.74505805969E-08  0.93827000000E+00  0.93827000000E+00 0.  1.
     999902    2    1    2    0    0  0.18010334324E-01  0.11140609849E-01 -0.99439523008E-02  0.10205341132E+01  0.10202659010E+01 0.  0.
     999903    2    3    3    0    0  0.64267376848E-01  0.67348530113E-01 -0.93777647674E-01  0.13355771402E+00  0.19424096771E-01 0.  0.
         14    1    1    2    0    0 -0.18010334324E-01 -0.11140609849E-01  0.99439523008E-02  0.23395886767E-01  0.00000000000E+00 0. -1.
     999901    1    3    3    0    0 -0.46257042524E-01 -0.56207920264E-01  0.83833695373E-01  0.88697639921E+00  0.88000000000E+00 0. -1.
        -11    1    4    4    0    0  0.30446535094E-01  0.33525946972E-01 -0.32135538422E-01  0.55533184406E-01  0.51100000000E-03 0.  1.
         11    1    4    4    0    0  0.33820841753E-01  0.33822583141E-01 -0.61642109252E-01  0.78024529612E-01  0.51100000000E-03 0. -1.
</event>
<event>
 8    1  0.1086235E+005  0.1043930E+01  0.7957747E-01            NaN
         13   -1    0    0    0    0  0.00000000000E+00  0.00000000000E+00  0.74505805969E-08  0.10566000000E+00  0.10566000000E+00 0. -1.
     999900   -1    0    0    0    0 -0.00000000000E+00 -0.00000000000E+00 -0.74505805969E-08  0.93827000000E+00  0.93827000000E+00 0.  1.
     999902    2    1    2    0    0 -0.48067835710E-02 -0.17765991712E-01 -0.14434258502E-01  0.10205401849E+01  0.10202721135E+01 0.  0.
     999903    2    3    3    0    0 -0.17958721349E-03  0.12427136714E+00 -0.28351495211E-01  0.12903039154E+00  0.20040701574E-01 0.  0.
         14    1    1    2    0    0  0.48067835710E-02  0.17765991712E-01  0.14434258502E-01  0.23389815055E-01  0.00000000000E+00 0. -1.
     999901    1    3    3    0    0 -0.46271963575E-02 -0.14203735885E+00  0.13917236709E-01  0.89150979340E+00  0.88000000000E+00 0.  1.
        -11    1    4    4    0    0  0.73120338176E-02  0.34668636364E-01 -0.13373137309E-01  0.37874557534E-01  0.51100000000E-03 0.  1.
         11    1    4    4    0    0 -0.74916210311E-02  0.89602730772E-01 -0.14978357902E-01  0.91155834009E-01  0.51100000000E-03 0. -1.
</event>
<event>
 8    1  0.1086235E+005  0.1043930E+01  0.7957747E-01            NaN
         13   -1    0    0    0    0  0.00000000000E+00  0.00000000000E+00  0.74505805969E-08  0.10566000000E+00  0.10566000000E+00 0.  1.
     999900   -1    0    0    0    0 -0.00000000000E+00 -0.00000000000E+00 -0.74505805969E-08  0.93827000000E+00  0.93827000000E+00 0. -1.
     999902    2    1    2    0    0  0.20320594096E-01  0.31467565452E-03  0.11930250720E-01  0.10203639981E+01  0.10200918253E+01 0.  0.
     999903    2    3    3    0    0  0.11400984851E+00  0.52887348576E-01 -0.36837087519E-01  0.13249023698E+00  0.20034337589E-01 0.  0.
         14    1    1    2    0    0 -0.20320594096E-01 -0.31467565452E-03 -0.11930250720E-01  0.23566001940E-01  0.00000000000E+00 0. -1.
     999901    1    3    3    0    0 -0.93689254412E-01 -0.52572672922E-01  0.48767338240E-01  0.88787376108E+00  0.88000000000E+00 0.  1.
        -11    1    4    4    0    0  0.18117659946E-01  0.13387869059E-01 -0.30903054593E-03  0.22535333606E-01  0.51100000000E-03 0.  1.
         11    1    4    4    0    0  0.95892188562E-01  0.39499479517E-01 -0.36528056973E-01  0.10995490338E+00  0.51100000000E-03 0. -1.
</event>
<event>
 8    1  0.1086235E+005  0.1043930E+01  0.7957747E-01            NaN
         13   -1    0    0    0    0  0.00000000000E+00  0.00000000000E+00  0.74505805969E-08  0.10566000000E+00  0.10566000000E+00 0. -1.
     999900   -1    0    0    0    0 -0.00000000000E+00 -0.00000000000E+00 -0.74505805969E-08  0.93827000000E+00  0.93827000000E+00 0.  1.
     999902    2    1    2    0    0  0.21457278967E-01 -0.95802343212E-02  0.28730018344E-02  0.10202561780E+01  0.10199814796E+01 0.  0.
     999903    2    3    3    0    0  0.10970219064E+00  0.24717997617E-02 -0.70853892888E-01  0.13269318247E+00  0.23377897937E-01 0.  0.
         14    1    1    2    0    0 -0.21457278967E-01  0.95802343212E-02 -0.28730018344E-02  0.23673822038E-01  0.00000000000E+00 0. -1.
     999901    1    3    3    0    0 -0.88244911671E-01 -0.12052034083E-01  0.73726894722E-01  0.88756299549E+00  0.88000000000E+00 0.  1.
        -11    1    4    4    0    0  0.51293083196E-01  0.11985646234E-01 -0.38489209621E-01  0.65240451238E-01  0.51100000000E-03 0. -1.
         11    1    4    4    0    0  0.58409107442E-01 -0.95138464723E-02 -0.32364683267E-01  0.67452731233E-01  0.51100000000E-03 0.  1.
</event>
<event>
 8    1  0.1086235E+005  0.1043930E+01  0.7957747E-01            NaN
         13   -1    0    0    0    0  0.00000000000E+00  0.00000000000E+00  0.74505805969E-08  0.10566000000E+00  0.10566000000E+00 0.  1.
     999900   -1    0    0    0    0 -0.00000000000E+00 -0.00000000000E+00 -0.74505805969E-08  0.93827000000E+00  0.93827000000E+00 0. -1.
     999902    2    1    2    0    0  0.21264234346E-01  0.99567458384E-03 -0.10790524145E-01  0.10200638222E+01  0.10197845885E+01 0.  0.
     999903    2    3    3    0    0  0.39930332528E-01 -0.11493962824E+00 -0.38044553552E-01  0.13184526816E+00  0.33618998881E-01 0.  0.
         14    1    1    2    0    0 -0.21264234346E-01 -0.99567458384E-03  0.10790524145E-01  0.23866177774E-01  0.00000000000E+00 0.  1.
     999901    1    3    3    0    0 -0.18666098182E-01  0.11593530283E+00  0.27254029408E-01  0.88821855406E+00  0.88000000000E+00 0. -1.
        -11    1    4    4    0    0  0.20969841569E-02 -0.13742267964E-01 -0.16670042475E-01  0.21711718229E-01  0.51100000000E-03 0. -1.
         11    1    4    4    0    0  0.37833348371E-01 -0.10119736028E+00 -0.21374511078E-01  0.11013354993E+00  0.51100000000E-03 0.  1.
</event>
<event>
 8    1  0.1086235E+005  0.1043930E+01  0.7957747E-01            NaN
         13   -1    0    0    0    0  0.00000000000E+00  0.00000000000E+00  0.74505805969E-08  0.10566000000E+00  0.10566000000E+00 0.  1.
     999900   -1    0    0    0    0 -0.00000000000E+00 -0.00000000000E+00 -0.74505805969E-08  0.93827000000E+00  0.93827000000E+00 0.  1.
     999902    2    1    2    0    0  0.36739518532E-02 -0.19806055449E-03  0.22763363178E-01  0.10208712088E+01  0.10206107569E+01 0.  0.
     999903    2    3    3    0    0 -0.52583900659E-01 -0.84529750988E-01  0.85569176502E-01  0.13282765681E+00  0.20267141757E-01 0.  0.
         14    1    1    2    0    0 -0.36739518532E-02  0.19806055449E-03 -0.22763363178E-01  0.23058791239E-01  0.00000000000E+00 0. -1.
     999901    1    3    3    0    0  0.56257852512E-01  0.84331690434E-01 -0.62805813324E-01  0.88804355195E+00  0.88000000000E+00 0.  1.
        -11    1    4    4    0    0 -0.23604209578E-01 -0.46499536833E-01  0.56406900240E-01  0.76820343342E-01  0.51100000000E-03 0.  1.
         11    1    4    4    0    0 -0.28979691080E-01 -0.38030214155E-01  0.29162276262E-01  0.56007313465E-01  0.51100000000E-03 0. -1.
</event>
<event>
 8    1  0.1086235E+005  0.1043930E+01  0.7957747E-01            NaN
         13   -1    0    0    0    0  0.00000000000E+00  0.00000000000E+00  0.74505805969E-08  0.10566000000E+00  0.10566000000E+00 0. -1.
     999900   -1    0    0    0    0 -0.00000000000E+00 -0.00000000000E+00 -0.74505805969E-08  0.93827000000E+00  0.93827000000E+00 0.  1.
     999902    2    1    2    0    0  0.20811308122E-01 -0.10544752958E-01  0.50863028194E-02  0.10200517078E+01  0.10197721872E+01 0.  0.
     999903    2    3    3    0    0 -0.64397790750E-01  0.92396054494E-01 -0.56834693563E-01  0.12781204823E+00  0.20533653847E-01 0.  0.
         14    1    1    2    0    0 -0.20811308122E-01  0.10544752958E-01 -0.50863028194E-02  0.23878292173E-01  0.00000000000E+00 0.  1.
     999901    1    3    3    0    0  0.85209098872E-01 -0.10294080745E+00  0.61920996383E-01  0.89223965960E+00  0.88000000000E+00 0. -1.
        -11    1    4    4    0    0 -0.31691135161E-01  0.55871734957E-01 -0.41350593989E-01  0.76394447174E-01  0.51100000000E-03 0.  1.
         11    1    4    4    0    0 -0.32706655589E-01  0.36524319537E-01 -0.15484099575E-01  0.51417601053E-01  0.51100000000E-03 0. -1.
</event>
<event>
 8    1  0.1086235E+005  0.1043930E+01  0.7957747E-01            NaN
         13   -1    0    0    0    0  0.00000000000E+00  0.00000000000E+00  0.74505805969E-08  0.10566000000E+00  0.10566000000E+00 0.  1.
     999900   -1    0    0    0    0 -0.00000000000E+00 -0.00000000000E+00 -0.74505805969E-08  0.93827000000E+00  0.93827000000E+00 0.  1.
     999902    2    1    2    0    0  0.73610763730E-02 -0.16244219610E-01 -0.15185384035E-01  0.10205065928E+01  0.10202377419E+01 0.  0.
     999903    2    3    3    0    0 -0.27435583865E-01  0.12376174232E+00 -0.13538513435E-01  0.12875820390E+00  0.18047260193E-01 0.  0.
         14    1    1    2    0    0 -0.73610763730E-02  0.16244219610E-01  0.15185384035E-01  0.23423407190E-01  0.00000000000E+00 0. -1.
     999901    1    3    3    0    0  0.34796660238E-01 -0.14000596193E+00 -0.16468706003E-02  0.89174838891E+00  0.88000000000E+00 0.  1.
        -11    1    4    4    0    0 -0.61920995139E-02  0.55044507680E-01  0.87276426605E-03  0.55400927435E-01  0.51100000000E-03 0.  1.
         11    1    4    4    0    0 -0.21243484351E-01  0.68717234643E-01 -0.14411277701E-01  0.73357276465E-01  0.51100000000E-03 0. -1.
</event>
<event>
 8    1  0.1086235E+005  0.1043930E+01  0.7957747E-01            NaN
         13   -1    0    0    0    0  0.00000000000E+00  0.00000000000E+00  0.74505805969E-08  0.10566000000E+00  0.10566000000E+00 0.  1.
     999900   -1    0    0    0    0 -0.00000000000E+00 -0.00000000000E+00 -0.74505805969E-08  0.93827000000E+00  0.93827000000E+00 0.  1.
     999902    2    1    2    0    0 -0.13135997722E-01  0.49673227049E-02 -0.16338725675E-01  0.10223851007E+01  0.10221580657E+01 0.  0.
     999903    2    3    3    0    0 -0.69921640140E-01  0.53767867210E-01 -0.10052319799E+00  0.13520240938E+00  0.19868539511E-01 0.  0.
         14    1    1    2    0    0  0.13135997722E-01 -0.49673227049E-02  0.16338725675E-01  0.21544899343E-01  0.00000000000E+00 0.  1.
     999901    1    3    3    0    0  0.56785642419E-01 -0.48800544505E-01  0.84184472317E-01  0.88718269128E+00  0.88000000000E+00 0. -1.
        -11    1    4    4    0    0 -0.21683930979E-01  0.15037534943E-01 -0.44516333383E-01  0.51752153373E-01  0.51100000000E-03 0.  1.
         11    1    4    4    0    0 -0.48237709161E-01  0.38730332267E-01 -0.56006864609E-01  0.83450256003E-01  0.51100000000E-03 0. -1.
</event>
<event>
 8    1  0.1086235E+005  0.1043930E+01  0.7957747E-01            NaN
         13   -1    0    0    0    0  0.00000000000E+00  0.00000000000E+00  0.74505805969E-08  0.10566000000E+00  0.10566000000E+00 0. -1.
     999900   -1    0    0    0    0 -0.00000000000E+00 -0.00000000000E+00 -0.74505805969E-08  0.93827000000E+00  0.93827000000E+00 0. -1.
     999902    2    1    2    0    0 -0.21769216666E-01 -0.30794153056E-02 -0.97245593680E-02  0.10198894374E+01  0.10196060592E+01 0.  0.
     999903    2    3    3    0    0 -0.10652460501E+00  0.14390873770E-02  0.74889424335E-01  0.13176589933E+00  0.20106315038E-01 0.  0.
         14    1    1    2    0    0  0.21769216666E-01  0.30794153056E-02  0.97245593680E-02  0.24040562551E-01  0.00000000000E+00 0. -1.
     999901    1    3    3    0    0  0.84755388344E-01 -0.45185026827E-02 -0.84613983703E-01  0.88812353812E+00  0.88000000000E+00 0. -1.
        -11    1    4    4    0    0 -0.65056813812E-01  0.20823560414E-03  0.57327221819E-01  0.86712766465E-01  0.51100000000E-03 0. -1.
         11    1    4    4    0    0 -0.41467791198E-01  0.12308517729E-02  0.17562202516E-01  0.45053132867E-01  0.51100000000E-03 0.  1.
</event>
<event>
 8    1  0.1086235E+005  0.1043930E+01  0.7957747E-01            NaN
         13   -1    0    0    0    0  0.00000000000E+00  0.00000000000E+00  0.74505805969E-08  0.10566000000E+00  0.10566000000E+00 0. -1.
     999900   -1    0    0    0    0 -0.00000000000E+00 -0.00000000000E+00 -0.74505805969E-08  0.93827000000E+00  0.93827000000E+00 0. -1.
     999902    2    1    2    0    0  0.23872821381E-02  0.20040383760E-01  0.90856760933E-04  0.10237477218E+01  0.10235487646E+01 0.  0.
     999903    2    3    3    0    0  0.13170967980E+00  0.15073007427E-01  0.78009674024E-02  0.13424875996E+00  0.19678393003E-01 0.  0.
         14    1    1    2    0    0 -0.23872821381E-02 -0.20040383760E-01 -0.90856760933E-04  0.20182278172E-01  0.00000000000E+00 0. -1.
     999901    1    3    3    0    0 -0.12932239766E+00  0.49673763330E-02 -0.77101106415E-02  0.88949896187E+00  0.88000000000E+00 0. -1.
        -11    1    4    4    0    0  0.64586855436E-01  0.11517839602E-01 -0.50901066245E-02  0.65804960532E-01  0.51100000000E-03 0.  1.
         11    1    4    4    0    0  0.67122824365E-01  0.35551678249E-02  0.12891074027E-01  0.68443799424E-01  0.51100000000E-03 0. -1.
</event>
<event>
 8    1  0.1086235E+005  0.1043930E+01  0.7957747E-01            NaN
         13   -1    0    0    0    0  0.00000000000E+00  0.00000000000E+00  0.74505805969E-08  0.10566000000E+00  0.10566000000E+00 0. -1.
     999900   -1    0    0    0    0 -0.00000000000E+00 -0.00000000000E+00 -0.74505805969E-08  0.93827000000E+00  0.93827000000E+00 0.  1.
     999902    2    1    2    0    0 -0.65610866737E-02 -0.18408180824E-01 -0.13929589722E-01  0.10199311990E+01  0.10196488161E+01 0.  0.
     999903    2    3    3    0    0 -0.10659527710E+00  0.70730133481E-01  0.26402467351E-02  0.12963515958E+00  0.20808623569E-01 0.  0.
         14    1    1    2    0    0  0.65610866737E-02  0.18408180824E-01  0.13929589722E-01  0.23998801000E-01  0.00000000000E+00 0. -1.
     999901    1    3    3    0    0  0.10003419042E+00 -0.89138314305E-01 -0.16569836457E-01  0.89029603942E+00  0.88000000000E+00 0. -1.
        -11    1    4    4    0    0 -0.88448929521E-01  0.60406998390E-01 -0.54285395054E-02  0.10724713866E+00  0.51100000000E-03 0.  1.
         11    1    4    4    0    0 -0.18146347574E-01  0.10323135091E-01  0.80687862405E-02  0.22388020921E-01  0.51100000000E-03 0. -1.
</event>
<event>
 8    1  0.1086235E+005  0.1043930E+01  0.7957747E-01            NaN
         13   -1    0    0    0    0  0.00000000000E+00  0.00000000000E+00  0.74505805969E-08  0.10566000000E+00  0.10566000000E+00 0. -1.
     999900   -1    0    0    0    0 -0.00000000000E+00 -0.00000000000E+00 -0.74505805969E-08  0.93827000000E+00  0.93827000000E+00 0. -1.
     999902    2    1    2    0    0  0.24359595221E-03  0.20146056093E-01  0.13762213849E-01  0.10195307901E+01  0.10192387897E+01 0.  0.
     999903    2    3    3    0    0 -0.81146037295E-01 -0.42636472969E-01 -0.86782331068E-01  0.12786093869E+00  0.20364146447E-01 0.  0.
         14    1    1    2    0    0 -0.24359595221E-03 -0.20146056093E-01 -0.13762213849E-01  0.24399209928E-01  0.00000000000E+00 0.  1.
     999901    1    3    3    0    0  0.81389633248E-01  0.62782529061E-01  0.10054454492E+00  0.89166985138E+00  0.88000000000E+00 0.  1.
        -11    1    4    4    0    0 -0.17509704220E-01 -0.15367655843E-01 -0.31939801238E-01  0.39536901903E-01  0.51100000000E-03 0.  1.
         11    1    4    4    0    0 -0.63636333076E-01 -0.27268817126E-01 -0.54842529830E-01  0.88324036784E-01  0.51100000000E-03 0. -1.
</event>
<event>
 8    1  0.1086235E+005  0.1043930E+01  0.7957747E-01            NaN
         13   -1    0    0    0    0  0.00000000000E+00  0.00000000000E+00  0.74505805969E-08  0.10566000000E+00  0.10566000000E+00 0.  1.
     999900   -1    0    0    0    0 -0.00000000000E+00 -0.00000000000E+00 -0.74505805969E-08  0.93827000000E+00  0.93827000000E+00 0.  1.
     999902    2    1    2    0    0  0.21250605757E-02  0.27002352519E-02  0.25661292782E-01  0.10180396717E+01  0.10177104028E+01 0.  0.
     999903    2    3    3    0    0  0.73619856180E-02  0.57867894568E-01  0.11634399156E+00  0.13164571420E+00  0.19793373660E-01 0.  0.
         14    1    1    2    0    0 -0.21250605757E-02 -0.27002352519E-02 -0.25661292782E-01  0.25890328312E-01  0.00000000000E+00 0. -1.
     999901    1    3    3    0    0 -0.52369250423E-02 -0.55167659316E-01 -0.90682698776E-01  0.88639395749E+00  0.88000000000E+00 0.  1.
        -11    1    4    4    0    0  0.94175687803E-02  0.20663042789E-01  0.59373433785E-01  0.63569786058E-01  0.51100000000E-03 0.  1.
         11    1    4    4    0    0 -0.20555831623E-02  0.37204851779E-01  0.56970557774E-01  0.68075928140E-01  0.51100000000E-03 0. -1.
</event>
<event>
 8    1  0.1086235E+005  0.1043930E+01  0.7957747E-01            NaN
         13   -1    0    0    0    0  0.00000000000E+00  0.00000000000E+00  0.74505805969E-08  0.10566000000E+00  0.10566000000E+00 0. -1.
     999900   -1    0    0    0    0 -0.00000000000E+00 -0.00000000000E+00 -0.74505805969E-08  0.93827000000E+00  0.93827000000E+00 0. -1.
     999902    2    1    2    0    0  0.12844088229E-01 -0.11599342080E-01 -0.16750695352E-01  0.10198447113E+01  0.10195602650E+01 0.  0.
     999903    2    3    3    0    0 -0.82446737960E-01 -0.18874550509E-01 -0.97878457209E-01  0.13096058835E+00  0.20414946918E-01 0.  0.
         14    1    1    2    0    0 -0.12844088229E-01  0.11599342080E-01  0.16750695352E-01  0.24085288744E-01  0.00000000000E+00 0. -1.
     999901    1    3    3    0    0  0.95290826189E-01  0.72752084295E-02  0.81127761857E-01  0.88888412291E+00  0.88000000000E+00 0.  1.
        -11    1    4    4    0    0 -0.51547919909E-01 -0.21286533442E-01 -0.58186485683E-01  0.80599210853E-01  0.51100000000E-03 0. -1.
         11    1    4    4    0    0 -0.30898818051E-01  0.24119829328E-02 -0.39691971526E-01  0.50361377495E-01  0.51100000000E-03 0.  1.
</event>
<event>
 8    1  0.1086235E+005  0.1043930E+01  0.7957747E-01            NaN
         13   -1    0    0    0    0  0.00000000000E+00  0.00000000000E+00  0.74505805969E-08  0.10566000000E+00  0.10566000000E+00 0. -1.
     999900   -1    0    0    0    0 -0.00000000000E+00 -0.00000000000E+00 -0.74505805969E-08  0.93827000000E+00  0.93827000000E+00 0. -1.
     999902    2    1    2    0    0 -0.95784722734E-02  0.42764114123E-02 -0.21292240745E-01  0.10201940707E+01  0.10199179121E+01 0.  0.
     999903    2    3    3    0    0  0.12140148166E+00 -0.23497346817E-01 -0.30198157081E-01  0.13002192701E+00  0.26520327241E-01 0.  0.
         14    1    1    2    0    0  0.95784722734E-02 -0.42764114123E-02  0.21292240745E-01  0.23735929339E-01  0.00000000000E+00 0. -1.
     999901    1    3    3    0    0 -0.13097995393E+00  0.27773758230E-01  0.89059163359E-02  0.89017214365E+00  0.88000000000E+00 0. -1.
        -11    1    4    4    0    0  0.39206103219E-01 -0.27275552832E-02 -0.21489712994E-01  0.44795390086E-01  0.51100000000E-03 0.  1.
         11    1    4    4    0    0  0.82195378440E-01 -0.20769791534E-01 -0.87084440869E-02  0.85226536928E-01  0.51100000000E-03 0. -1.
</event>
<event>
 8    1  0.1086235E+005  0.1043930E+01  0.7957747E-01            NaN
         13   -1    0    0    0    0  0.00000000000E+00  0.00000000000E+00  0.74505805969E-08  0.10566000000E+00  0.10566000000E+00 0.  1.
     999900   -1    0    0    0    0 -0.00000000000E+00 -0.00000000000E+00 -0.74505805969E-08  0.93827000000E+00  0.93827000000E+00 0. -1.
     999902    2    1    2    0    0 -0.55686181973E-02  0.18229279672E-01  0.10094929555E-01  0.10223609539E+01  0.10221334044E+01 0.  0.
     999903    2    3    3    0    0  0.82525137619E-01  0.44712393282E-01 -0.90526388555E-01  0.13186305119E+00  0.19576536749E-01 0.  0.
         14    1    1    2    0    0  0.55686181973E-02 -0.18229279672E-01 -0.10094929555E-01  0.21569046078E-01  0.00000000000E+00 0. -1.
     999901    1    3    3    0    0 -0.88093755816E-01 -0.26483113610E-01  0.10062131811E+00  0.89049790274E+00  0.88000000000E+00 0.  1.
        -11    1    4    4    0    0  0.58975924842E-01  0.34361159493E-01 -0.53260848695E-01  0.86578450653E-01  0.51100000000E-03 0.  1.
         11    1    4    4    0    0  0.23549212777E-01  0.10351233789E-01 -0.37265539860E-01  0.45284600532E-01  0.51100000000E-03 0. -1.
</event>
<event>
 8    1  0.1086235E+005  0.1043930E+01  0.7957747E-01            NaN
         13   -1    0    0    0    0  0.00000000000E+00  0.00000000000E+00  0.74505805969E-08  0.10566000000E+00  0.10566000000E+00 0.  1.
     999900   -1    0    0    0    0 -0.00000000000E+00 -0.00000000000E+00 -0.74505805969E-08  0.93827000000E+00  0.93827000000E+00 0. -1.
     999902    2    1    2    0    0 -0.19985443368E-02  0.12166968757E-01  0.20123447918E-01  0.10203295241E+01  0.10200565451E+01 0.  0.
     999903    2    3    3    0    0 -0.48076299013E-01  0.60740456556E-01  0.10694418808E+00  0.13352605987E+00  0.19784228822E-01 0.  0.
         14    1    1    2    0    0  0.19985443368E-02 -0.12166968757E-01 -0.20123447918E-01  0.23600475934E-01  0.00000000000E+00 0. -1.
     999901    1    3    3    0    0  0.46077754676E-01 -0.48573487799E-01 -0.86820740162E-01  0.88680346420E+00  0.88000000000E+00 0. -1.
        -11    1    4    4    0    0 -0.27715347497E-01  0.31292872720E-01  0.73360359191E-01  0.84435702114E-01  0.51100000000E-03 0. -1.
         11    1    4    4    0    0 -0.20360951516E-01  0.29447583836E-01  0.33583828890E-01  0.49090357753E-01  0.51100000000E-03 0.  1.
</event>
<event>
 7    1  0.1086235E+005  0.1043930E+01  0.7957747E-01            NaN
         13   -1    0    0    0    0  0.00000000000E+00  0.00000000000E+00  0.74505805969E-08  0.10566000000E+00  0.10566000000E+00 0.  1.
     999900   -1    0    0    0    0 -0.00000000000E+00 -0.00000000000E+00 -0.74505805969E-08  0.93827000000E+00  0.93827000000E+00 0. -1.
     999903    2    1    2    0    0 -0.34892792134E-01  0.10188658709E+00 -0.35773557594E-01  0.11522855740E+00  0.19987232106E-01 0.  0.
         14    1    1    2    0    0 -0.36976907082E-01  0.11813182709E-02  0.13857711065E-01  0.39505991016E-01  0.00000000000E+00 0. -1.
     999901    1    1    2    0    0  0.71869699215E-01 -0.10306790536E+00  0.21915846529E-01  0.88919545158E+00  0.88000000000E+00 0. -1.
        -11    1    3    3    0    0 -0.23228829831E-01  0.56304719266E-01 -0.29762494491E-01  0.67792825183E-01  0.51100000000E-03 0. -1.
         11    1    3    3    0    0 -0.11663962302E-01  0.45581867823E-01 -0.60110631024E-02  0.47435732222E-01  0.51100000000E-03 0.  1.
</event>
<event>
 8    1  0.1086235E+005  0.1043930E+01  0.7957747E-01            NaN
         13   -1    0    0    0    0  0.00000000000E+00  0.00000000000E+00  0.74505805969E-08  0.10566000000E+00  0.10566000000E+00 0. -1.
     999900   -1    0    0    0    0 -0.00000000000E+00 -0.00000000000E+00 -0.74505805969E-08  0.93827000000E+00  0.93827000000E+00 0.  1.
     999902    2    1    2    0    0 -0.12437968947E-01 -0.73911898720E-02 -0.19400053491E-01  0.10197288671E+01  0.10194416450E+01 0.  0.
     999903    2    3    3    0    0  0.70904232829E-01  0.76344079657E-01 -0.75332370350E-01  0.13007391035E+00  0.19708561582E-01 0.  0.
         14    1    1    2    0    0  0.12437968947E-01  0.73911898720E-02  0.19400053491E-01  0.24201132922E-01  0.00000000000E+00 0.  1.
     999901    1    3    3    0    0 -0.83342201776E-01 -0.83735269529E-01  0.55932316860E-01  0.88965495673E+00  0.88000000000E+00 0. -1.
        -11    1    4    4    0    0  0.21417678543E-01  0.34703897026E-01 -0.22617907602E-01  0.46635912002E-01  0.51100000000E-03 0. -1.
         11    1    4    4    0    0  0.49486554286E-01  0.41640182631E-01 -0.52714462748E-01  0.83437998349E-01  0.51100000000E-03 0.  1.
</event>
<event>
 8    1  0.1086235E+005  0.1043930E+01  0.7957747E-01            NaN
         13   -1    0    0    0    0  0.00000000000E+00  0.00000000000E+00  0.74505805969E-08  0.10566000000E+00  0.10566000000E+00 0. -1.
     999900   -1    0    0    0    0 -0.00000000000E+00 -0.00000000000E+00 -0.74505805969E-08  0.93827000000E+00  0.93827000000E+00 0. -1.
     999902    2    1    2    0    0  0.20435724099E-01 -0.50633640482E-02  0.66671155031E-03  0.10228657891E+01  0.10226488750E+01 0.  0.
     999903    2    3    3    0    0  0.63622419812E-01  0.11531582592E+00  0.11733418155E-01  0.13355217063E+00  0.18787154330E-01 0.  0.
         14    1    1    2    0    0 -0.20435724099E-01  0.50633640482E-02 -0.66671155031E-03  0.21064210862E-01  0.00000000000E+00 0. -1.
     999901    1    3    3    0    0 -0.43186695713E-01 -0.12037918997E+00 -0.11066706605E-01  0.88931361851E+00  0.88000000000E+00 0. -1.
        -11    1    4    4    0    0  0.60432346053E-02  0.16374454995E-01  0.74795604366E-02  0.18996010270E-01  0.51100000000E-03 0. -1.
         11    1    4    4    0    0  0.57579185206E-01  0.98941370929E-01  0.42538577183E-02  0.11455616036E+00  0.51100000000E-03 0.  1.
</event>
<event>
 8    1  0.1086235E+005  0.1043930E+01  0.7957747E-01            NaN
         13   -1    0    0    0    0  0.00000000000E+00  0.00000000000E+00  0.74505805969E-08  0.10566000000E+00  0.10566000000E+00 0.  1.
     999900   -1    0    0    0    0 -0.00000000000E+00 -0.00000000000E+00 -0.74505805969E-08  0.93827000000E+00  0.93827000000E+00 0. -1.
     999902    2    1    2    0    0  0.46845855048E-02 -0.19927216456E-01 -0.12559174968E-01  0.10199139185E+01  0.10196311239E+01 0.  0.
     999903    2    3    3    0    0  0.12630327908E-01  0.39993000133E-01  0.11932117840E+00  0.12803612706E+00  0.19918357706E-01 0.  0.
         14    1    1    2    0    0 -0.46845855048E-02  0.19927216456E-01  0.12559174968E-01  0.24016081548E-01  0.00000000000E+00 0.  1.
     999901    1    3    3    0    0 -0.79457424034E-02 -0.59920216590E-01 -0.13188035337E+00  0.89187779140E+00  0.88000000000E+00 0. -1.
        -11    1    4    4    0    0  0.15107677793E-01  0.40862272301E-01  0.10928492042E+00  0.11764957364E+00  0.51100000000E-03 0. -1.
         11    1    4    4    0    0 -0.24773498851E-02 -0.86927216751E-03  0.10036257986E-01  0.10386553418E-01  0.51100000000E-03 0.  1.
</event>
<event>
 8    1  0.1086235E+005  0.1043930E+01  0.7957747E-01            NaN
         13   -1    0    0    0    0  0.00000000000E+00  0.00000000000E+00  0.74505805969E-08  0.10566000000E+00  0.10566000000E+00 0.  1.
     999900   -1    0    0    0    0 -0.00000000000E+00 -0.00000000000E+00 -0.74505805969E-08  0.93827000000E+00  0.93827000000E+00 0. -1.
     999902    2    1    2    0    0 -0.98710146225E-02  0.18884564277E-01 -0.11921333686E-01  0.10195131637E+01  0.10192207362E+01 0.  0.
     999903    2    3    3    0    0  0.11234718074E+00 -0.15149495621E-02 -0.60573833163E-01  0.12950165078E+00  0.21847292704E-01 0.  0.
         14    1    1    2    0    0  0.98710146225E-02 -0.18884564277E-01  0.11921333686E-01  0.24416836291E-01  0.00000000000E+00 0. -1.
     999901    1    3    3    0    0 -0.12221819536E+00  0.20399513839E-01  0.48652499476E-01  0.89001151293E+00  0.88000000000E+00 0. -1.
        -11    1    4    4    0    0  0.57325530640E-01 -0.92456640275E-02 -0.38720445397E-01  0.69794217377E-01  0.51100000000E-03 0.  1.
         11    1    4    4    0    0  0.55021650099E-01  0.77307144654E-02 -0.21853387765E-01  0.59707433403E-01  0.51100000000E-03 0. -1.
</event>
<event>
 8    1  0.1086235E+005  0.1043930E+01  0.7957747E-01            NaN
         13   -1    0    0    0    0  0.00000000000E+00  0.00000000000E+00  0.74505805969E-08  0.10566000000E+00  0.10566000000E+00 0.  1.
     999900   -1    0    0    0    0 -0.00000000000E+00 -0.00000000000E+00 -0.74505805969E-08  0.93827000000E+00  0.93827000000E+00 0.  1.
     999902    2    1    2    0    0 -0.22314360168E-01 -0.87494182120E-02  0.10577156019E-02  0.10199382983E+01  0.10196560845E+01 0.  0.
     999903    2    3    3    0    0 -0.51442844792E-01  0.21916093720E-02 -0.11901407980E+00  0.13123958064E+00  0.20206605465E-01 0.  0.
         14    1    1    2    0    0  0.22314360168E-01  0.87494182120E-02 -0.10577156019E-02  0.23991701712E-01  0.00000000000E+00 0.  1.
     999901    1    3    3    0    0  0.29128484624E-01 -0.10941027584E-01  0.12007179540E+00  0.88869871765E+00  0.88000000000E+00 0. -1.
        -11    1    4    4    0    0 -0.14395199554E-01 -0.43955786277E-02 -0.54593933573E-01  0.56633043231E-01  0.51100000000E-03 0.  1.
         11    1    4    4    0    0 -0.37047645238E-01  0.65871879997E-02 -0.64420146224E-01  0.74606537407E-01  0.51100000000E-03 0. -1.
</event>
<event>
 8    1  0.1086235E+005  0.1043930E+01  0.7957747E-01            NaN
         13   -1    0    0    0    0  0.00000000000E+00  0.00000000000E+00  0.74505805969E-08  0.10566000000E+00  0.10566000000E+00 0.  1.
     999900   -1    0    0    0    0 -0.00000000000E+00 -0.00000000000E+00 -0.74505805969E-08  0.93827000000E+00  0.93827000000E+00 0.  1.
     999902    2    1    2    0    0 -0.16342094369E-01  0.13670299322E-01 -0.99935893672E-02  0.10203967690E+01  0.10201253615E+01 0.  0.
     999903    2    3    3    0    0  0.18398779438E-01 -0.11573075237E+00  0.48438229803E-01  0.12833968678E+00  0.19816431751E-01 0.  0.
         14    1    1    2    0    0  0.16342094369E-01 -0.13670299322E-01  0.99935893672E-02  0.23533230980E-01  0.00000000000E+00 0.  1.
     999901    1    3    3    0    0 -0.34740873807E-01  0.12940105169E+00 -0.58431819170E-01  0.89205708224E+00  0.88000000000E+00 0.  1.
        -11    1    4    4    0    0  0.19435957215E-01 -0.60091920875E-01  0.27368739887E-01  0.68833890137E-01  0.51100000000E-03 0.  1.
         11    1    4    4    0    0 -0.10371777765E-02 -0.55638831490E-01  0.21069489915E-01  0.59505796639E-01  0.51100000000E-03 0. -1.
</event>
<event>
 8    1  0.1086235E+005  0.1043930E+01  0.7957747E-01            NaN
         13   -1    0    0    0    0  0.00000000000E+00  0.00000000000E+00  0.74505805969E-08  0.10566000000E+00  0.10566000000E+00 0.  1.
     999900   -1    0    0    0    0 -0.00000000000E+00 -0.00000000000E+00 -0.74505805969E-08  0.93827000000E+00  0.93827000000E+00 0. -1.
     999902    2    1    2    0    0  0.68498061437E-03 -0.18086939439E-01 -0.16839784297E-01  0.10192078457E+01  0.10189079683E+01 0.  0.
     999903    2    3    3    0    0 -0.79346742288E-01 -0.10241385658E+00  0.57466038980E-02  0.13127414856E+00  0.20380753010E-01 0.  0.
         14    1    1    2    0    0 -0.68498061437E-03  0.18086939439E-01  0.16839784297E-01  0.24722154273E-01  0.00000000000E+00 0.  1.
     999901    1    3    3    0    0  0.80031722903E-01  0.84326917143E-01 -0.22586388195E-01  0.88793369716E+00  0.88000000000E+00 0.  1.
        -11    1    4    4    0    0 -0.53491520813E-01 -0.60798613040E-01  0.12053848289E-01  0.81874113895E-01  0.51100000000E-03 0. -1.
         11    1    4    4    0    0 -0.25855221476E-01 -0.41615243541E-01 -0.63072443908E-02  0.49400034669E-01  0.51100000000E-03 0.  1.
</event>
<event>
 8    1  0.1086235E+005  0.1043930E+01  0.7957747E-01            NaN
         13   -1    0    0    0    0  0.00000000000E+00  0.00000000000E+00  0.74505805969E-08  0.10566000000E+00  0.10566000000E+00 0.  1.
     999900   -1    0    0    0    0 -0.00000000000E+00 -0.00000000000E+00 -0.74505805969E-08  0.93827000000E+00  0.93827000000E+00 0. -1.
     999902    2    1    2    0    0  0.13426513500E-01  0.14520277674E-01  0.11354236131E-01  0.10211258687E+01  0.10208712021E+01 0.  0.
     999903    2    3    3    0    0  0.13027923728E+00  0.15402682110E-01 -0.94202134458E-02  0.13315801143E+00  0.20794068980E-01 0.  0.
         14    1    1    2    0    0 -0.13426513500E-01 -0.14520277674E-01 -0.11354236131E-01  0.22804131350E-01  0.00000000000E+00 0. -1.
     999901    1    3    3    0    0 -0.11685272378E+00 -0.88240443607E-03  0.20774449576E-01  0.88796785722E+00  0.88000000000E+00 0.  1.
        -11    1    4    4    0    0  0.10229310787E+00  0.40631642844E-02 -0.10684415151E-01  0.10293107922E+00  0.51100000000E-03 0.  1.
         11    1    4    4    0    0  0.27986129411E-01  0.11339517826E-01  0.12642017052E-02  0.30226932211E-01  0.51100000000E-03 0. -1.
</event>
<event>
 8    1  0.1086235E+005  0.1043930E+01  0.7957747E-01            NaN
         13   -1    0    0    0    0  0.00000000000E+00  0.00000000000E+00  0.74505805969E-08  0.10566000000E+00  0.10566000000E+00 0.  1.
     999900   -1    0    0    0    0 -0.00000000000E+00 -0.00000000000E+00 -0.74505805969E-08  0.93827000000E+00  0.93827000000E+00 0. -1.
     999902    2    1    2    0    0  0.23822648871E-01 -0.13415401532E-01  0.10230381230E-01  0.10147383523E+01  0.10143183777E+01 0.  0.
     999903    2    3    3    0    0 -0.62052235833E-01 -0.60055942912E-01 -0.87094108263E-01  0.12399602579E+00  0.18232785466E-01 0.  0.
         14    1    1    2    0    0 -0.23822648871E-01  0.13415401532E-01 -0.10230381230E-01  0.29191647737E-01  0.00000000000E+00 0. -1.
     999901    1    3    3    0    0  0.85874884703E-01  0.46640541380E-01  0.97324489493E-01  0.89074232648E+00  0.88000000000E+00 0.  1.
        -11    1    4    4    0    0 -0.46830906322E-01 -0.37194880897E-01 -0.50741170198E-01  0.78431628990E-01  0.51100000000E-03 0. -1.
         11    1    4    4    0    0 -0.15221329510E-01 -0.22861062015E-01 -0.36352938064E-01  0.45564396797E-01  0.51100000000E-03 0.  1.
</event>
<event>
 8    1  0.1086235E+005  0.1043930E+01  0.7957747E-01            NaN
         13   -1    0    0    0    0  0.00000000000E+00  0.00000000000E+00  0.74505805969E-08  0.10566000000E+00  0.10566000000E+00 0. -1.
     999900   -1    0    0    0    0 -0.00000000000E+00 -0.00000000000E+00 -0.74505805969E-08  0.93827000000E+00  0.93827000000E+00 0. -1.
     999902    2    1    2    0    0 -0.71476438415E-02 -0.29887071809E-01 -0.70239142417E-02  0.10124076072E+01  0.10119167466E+01 0.  0.
     999903    2    3    3    0    0 -0.69559719462E-02 -0.59672847647E-01  0.10725714461E+00  0.12451831820E+00  0.19785909299E-01 0.  0.
         14    1    1    2    0    0  0.71476438415E-02  0.29887071809E-01  0.70239142417E-02  0.31522392757E-01  0.00000000000E+00 0.  1.
     999901    1    3    3    0    0 -0.19167189525E-03  0.29785775838E-01 -0.11428105885E+00  0.88788928904E+00  0.88000000000E+00 0. -1.
        -11    1    4    4    0    0 -0.10599226047E-01 -0.27763860759E-01  0.64695733610E-01  0.71196731845E-01  0.51100000000E-03 0.  1.
         11    1    4    4    0    0  0.36432541013E-02 -0.31908986888E-01  0.42561410998E-01  0.53321586359E-01  0.51100000000E-03 0. -1.
</event>
<event>
 8    1  0.1086235E+005  0.1043930E+01  0.7957747E-01            NaN
         13   -1    0    0    0    0  0.00000000000E+00  0.00000000000E+00  0.74505805969E-08  0.10566000000E+00  0.10566000000E+00 0. -1.
     999900   -1    0    0    0    0 -0.00000000000E+00 -0.00000000000E+00 -0.74505805969E-08  0.93827000000E+00  0.93827000000E+00 0.  1.
     999902    2    1    2    0    0 -0.14058481818E-01  0.11588829249E-01  0.16483749190E-01  0.10193605909E+01  0.10190644526E+01 0.  0.
     999903    2    3    3    0    0 -0.78992310259E-01 -0.97062817463E-01  0.30255472458E-01  0.13019736477E+00  0.19364518192E-01 0.  0.
         14    1    1    2    0    0  0.14058481818E-01 -0.11588829249E-01 -0.16483749190E-01  0.24569409064E-01  0.00000000000E+00 0.  1.
     999901    1    3    3    0    0  0.64933828442E-01  0.10865164671E+00 -0.13771723269E-01  0.88916322617E+00  0.88000000000E+00 0.  1.
        -11    1    4    4    0    0 -0.66144601888E-01 -0.85652923919E-01  0.19626461012E-01  0.10998632109E+00  0.51100000000E-03 0.  1.
         11    1    4    4    0    0 -0.12847708371E-01 -0.11409893544E-01  0.10629011446E-01  0.20211043674E-01  0.51100000000E-03 0. -1.
</event>
<event>
 8    1  0.1086235E+005  0.1043930E+01  0.7957747E-01            NaN
         13   -1    0    0    0    0  0.00000000000E+00  0.00000000000E+00  0.74505805969E-08  0.10566000000E+00  0.10566000000E+00 0. -1.
     999900   -1    0    0    0    0 -0.00000000000E+00 -0.00000000000E+00 -0.74505805969E-08  0.93827000000E+00  0.93827000000E+00 0.  1.
     999902    2    1    2    0    0 -0.25490140675E-02 -0.18805003109E-01  0.20705683158E-01  0.10158435098E+01  0.10154551618E+01 0.  0.
     999903    2    3    3    0    0 -0.11203880274E+00  0.45523297201E-01 -0.26628080116E-01  0.12546907782E+00  0.20208189716E-01 0.  0.
         14    1    1    2    0    0  0.25490140675E-02  0.18805003109E-01 -0.20705683158E-01  0.28086490163E-01  0.00000000000E+00 0.  1.
     999901    1    3    3    0    0  0.10948978867E+00 -0.64328300310E-01  0.47333763274E-01  0.89037443202E+00  0.88000000000E+00 0. -1.
        -11    1    4    4    0    0 -0.69664434729E-01  0.23420967228E-01 -0.71050103378E-02  0.73840486624E-01  0.51100000000E-03 0. -1.
         11    1    4    4    0    0 -0.42374368008E-01  0.22102329973E-01 -0.19523069778E-01  0.51628591195E-01  0.51100000000E-03 0.  1.
</event>
<event>
 8    1  0.1086235E+005  0.1043930E+01  0.7957747E-01            NaN
         13   -1    0    0    0    0  0.00000000000E+00  0.00000000000E+00  0.74505805969E-08  0.10566000000E+00  0.10566000000E+00 0. -1.
     999900   -1    0    0    0    0 -0.00000000000E+00 -0.00000000000E+00 -0.74505805969E-08  0.93827000000E+00  0.93827000000E+00 0.  1.
     999902    2    1    2    0    0 -0.12654521732E-01  0.18641813605E-01  0.67064877400E-02  0.10204218926E+01  0.10201510711E+01 0.  0.
     999903    2    3    3    0    0  0.12467883510E+00  0.26396242625E-01  0.15241455499E-01  0.12969554421E+00  0.18629510900E-01 0.  0.
         14    1    1    2    0    0  0.12654521732E-01 -0.18641813605E-01 -0.67064877400E-02  0.23508107380E-01  0.00000000000E+00 0.  1.
     999901    1    3    3    0    0 -0.13733335683E+00 -0.77544290192E-02 -0.85349677585E-02  0.89072634841E+00  0.88000000000E+00 0.  1.
        -11    1    4    4    0    0  0.95769793891E-01  0.13741510413E-01  0.16303831785E-01  0.98116046508E-01  0.51100000000E-03 0. -1.
         11    1    4    4    0    0  0.28909041211E-01  0.12654732212E-01 -0.10623762860E-02  0.31579497707E-01  0.51100000000E-03 0.  1.
</event>
<event>
 8    1  0.1086235E+005  0.1043930E+01  0.7957747E-01            NaN
         13   -1    0    0    0    0  0.00000000000E+00  0.00000000000E+00  0.74505805969E-08  0.10566000000E+00  0.10566000000E+00 0.  1.
     999900   -1    0    0    0    0 -0.00000000000E+00 -0.00000000000E+00 -0.74505805969E-08  0.93827000000E+00  0.93827000000E+00 0. -1.
     999902    2    1    2    0    0  0.68740103486E-02 -0.16576305776E-01  0.13899811453E-01  0.10212313064E+01  0.10209790157E+01 0.  0.
     999903    2    3    3    0    0 -0.62348515587E-01  0.29435028253E-01 -0.10737314177E+00  0.12903405798E+00  0.19158242613E-01 0.  0.
         14    1    1    2    0    0 -0.68740103486E-02  0.16576305776E-01 -0.13899811453E-01  0.22698693573E-01  0.00000000000E+00 0. -1.
     999901    1    3    3    0    0  0.69222525935E-01 -0.46011334029E-01  0.12127295323E+00  0.89219724845E+00  0.88000000000E+00 0.  1.
        -11    1    4    4    0    0 -0.52104856566E-01  0.16498276423E-01 -0.76430736497E-01  0.93962906538E-01  0.51100000000E-03 0. -1.
         11    1    4    4    0    0 -0.10243659021E-01  0.12936751830E-01 -0.30942405276E-01  0.35071151440E-01  0.51100000000E-03 0.  1.
</event>
<event>
 8    1  0.1086235E+005  0.1043930E+01  0.7957747E-01            NaN
         13   -1    0    0    0    0  0.00000000000E+00  0.00000000000E+00  0.74505805969E-08  0.10566000000E+00  0.10566000000E+00 0.  1.
     999900   -1    0    0    0    0 -0.00000000000E+00 -0.00000000000E+00 -0.74505805969E-08  0.93827000000E+00  0.93827000000E+00 0.  1.
     999902    2    1    2    0    0  0.22830787537E-01 -0.30725395939E-02 -0.35459376680E-02  0.10206220822E+01  0.10203559063E+01 0.  0.
     999903    2    3    3    0    0  0.88889358815E-02 -0.94154346746E-01  0.88490830851E-01  0.13103732648E+00  0.19902250956E-01 0.  0.
         14    1    1    2    0    0 -0.22830787537E-01  0.30725395939E-02  0.35459376680E-02  0.23307917819E-01  0.00000000000E+00 0.  1.
     999901    1    3    3    0    0  0.13941851655E-01  0.91081807152E-01 -0.92036768519E-01  0.88958475570E+00  0.88000000000E+00 0.  1.
        -11    1    4    4    0    0  0.13109674115E-01 -0.38240444701E-01  0.33604294180E-01  0.52570950863E-01  0.51100000000E-03 0.  1.
         11    1    4    4    0    0 -0.42207382335E-02 -0.55913902045E-01  0.54886536671E-01  0.78466375613E-01  0.51100000000E-03 0. -1.
</event>
<event>
 8    1  0.1086235E+005  0.1043930E+01  0.7957747E-01            NaN
         13   -1    0    0    0    0  0.00000000000E+00  0.00000000000E+00  0.74505805969E-08  0.10566000000E+00  0.10566000000E+00 0.  1.
     999900   -1    0    0    0    0 -0.00000000000E+00 -0.00000000000E+00 -0.74505805969E-08  0.93827000000E+00  0.93827000000E+00 0. -1.
     999902    2    1    2    0    0 -0.18649890755E-01 -0.29466570078E-02  0.10682887256E-01  0.10222361001E+01  0.10220058801E+01 0.  0.
     999903    2    3    3    0    0 -0.10120783900E+00  0.37090244822E-01 -0.75741995110E-01  0.13325464438E+00  0.20030913331E-01 0.  0.
         14    1    1    2    0    0  0.18649890755E-01  0.29466570078E-02 -0.10682887256E-01  0.21693899899E-01  0.00000000000E+00 0. -1.
     999901    1    3    3    0    0  0.82557948247E-01 -0.40036901830E-01  0.86424882366E-01  0.88898145572E+00  0.88000000000E+00 0.  1.
        -11    1    4    4    0    0 -0.55320412667E-01  0.99211776782E-02 -0.36014510537E-01  0.66753905611E-01  0.51100000000E-03 0. -1.
         11    1    4    4    0    0 -0.45887426335E-01  0.27169067144E-01 -0.39727484573E-01  0.66500738767E-01  0.51100000000E-03 0.  1.
</event>
<event>
 8    1  0.1086235E+005  0.1043930E+01  0.7957747E-01            NaN
         13   -1    0    0    0    0  0.00000000000E+00  0.00000000000E+00  0.74505805969E-08  0.10566000000E+00  0.10566000000E+00 0. -1.
     999900   -1    0    0    0    0 -0.00000000000E+00 -0.00000000000E+00 -0.74505805969E-08  0.93827000000E+00  0.93827000000E+00 0.  1.
     999902    2    1    2    0    0 -0.90201302986E-02  0.21640737678E-01  0.53195889775E-02  0.10198887375E+01  0.10196053425E+01 0.  0.
     999903    2    3    3    0    0  0.88856008837E-01  0.25087613621E-01  0.90217324903E-01  0.13039492346E+00  0.18409011069E-01 0.  0.
         14    1    1    2    0    0  0.90201302986E-02 -0.21640737678E-01 -0.53195889775E-02  0.24041262544E-01  0.00000000000E+00 0. -1.
     999901    1    3    3    0    0 -0.97876139136E-01 -0.34468759428E-02 -0.84897735926E-01  0.88949381399E+00  0.88000000000E+00 0.  1.
        -11    1    4    4    0    0  0.59385140300E-01  0.21862915691E-01  0.70755567305E-01  0.94927305854E-01  0.51100000000E-03 0.  1.
         11    1    4    4    0    0  0.29470868537E-01  0.32246979293E-02  0.19461757599E-01  0.35467617609E-01  0.51100000000E-03 0. -1.
</event>
<event>
 7    1  0.1086235E+005  0.1043930E+01  0.7957747E-01            NaN
         13   -1    0    0    0    0  0.00000000000E+00  0.00000000000E+00  0.74505805969E-08  0.10566000000E+00  0.10566000000E+00 0.  1.
     999900   -1    0    0    0    0 -0.00000000000E+00 -0.00000000000E+00 -0.74505805969E-08  0.93827000000E+00  0.93827000000E+00 0. -1.
     999903    2    1    2    0    0 -0.19476775094E-01 -0.10681004426E-01  0.47279144688E-01  0.55130884451E-01  0.17625784361E-01 0.  0.
         14    1    1    2    0    0  0.21539351787E-01 -0.34030282522E-01 -0.98254528082E-01  0.10618830488E+00  0.00000000000E+00 0. -1.
     999901    1    1    2    0    0 -0.20625766932E-02  0.44711286948E-01  0.50975383394E-01  0.88261081067E+00  0.88000000000E+00 0.  1.
        -11    1    3    3    0    0  0.21886170817E-02 -0.21434683150E-03  0.13311172319E-01  0.13501274710E-01  0.51100000000E-03 0.  1.
         11    1    3    3    0    0 -0.21665392176E-01 -0.10466657595E-01  0.33967972369E-01  0.41629609741E-01  0.51100000000E-03 0. -1.
</event>
<event>
 8    1  0.1086235E+005  0.1043930E+01  0.7957747E-01            NaN
         13   -1    0    0    0    0  0.00000000000E+00  0.00000000000E+00  0.74505805969E-08  0.10566000000E+00  0.10566000000E+00 0. -1.
     999900   -1    0    0    0    0 -0.00000000000E+00 -0.00000000000E+00 -0.74505805969E-08  0.93827000000E+00  0.93827000000E+00 0.  1.
     999902    2    1    2    0    0 -0.18254737898E-02 -0.21589624174E-01 -0.38939817039E-02  0.10219162016E+01  0.10216790669E+01 0.  0.
     999903    2    3    3    0    0  0.13377038174E-01  0.62386197249E-01 -0.11271825239E+00  0.13111556350E+00  0.20369187806E-01 0.  0.
         14    1    1    2    0    0  0.18254737898E-02  0.21589624174E-01  0.38939817039E-02  0.22013798401E-01  0.00000000000E+00 0. -1.
     999901    1    3    3    0    0 -0.15202511964E-01 -0.83975821423E-01  0.10882427069E+00  0.89080063810E+00  0.88000000000E+00 0. -1.
        -11    1    4    4    0    0  0.34824144881E-02  0.12148398678E-01 -0.41605565793E-01  0.43485572632E-01  0.51100000000E-03 0.  1.
         11    1    4    4    0    0  0.98946236864E-02  0.50237798571E-01 -0.71112686596E-01  0.87629990865E-01  0.51100000000E-03 0. -1.
</event>
<event>
 8    1  0.1086235E+005  0.1043930E+01  0.7957747E-01            NaN
         13   -1    0    0    0    0  0.00000000000E+00  0.00000000000E+00  0.74505805969E-08  0.10566000000E+00  0.10566000000E+00 0. -1.
     999900   -1    0    0    0    0 -0.00000000000E+00 -0.00000000000E+00 -0.74505805969E-08  0.93827000000E+00  0.93827000000E+00 0. -1.
     999902    2    1    2    0    0 -0.94934291527E-02 -0.86714363845E-02 -0.17021186511E-01  0.10225983382E+01  0.10223758220E+01 0.  0.
     999903    2    3    3    0    0  0.86415818267E-01  0.75134600036E-01  0.58718467817E-01  0.13020911215E+00  0.19840681825E-01 0.  0.
         14    1    1    2    0    0  0.94934291527E-02  0.86714363845E-02  0.17021186511E-01  0.21331661827E-01  0.00000000000E+00 0. -1.
     999901    1    3    3    0    0 -0.95909247420E-01 -0.83806036421E-01 -0.75739654328E-01  0.89238922602E+00  0.88000000000E+00 0. -1.
        -11    1    4    4    0    0  0.29941612605E-01  0.16534849835E-01  0.23667584247E-01  0.41597080301E-01  0.51100000000E-03 0. -1.
         11    1    4    4    0    0  0.56474205662E-01  0.58599750201E-01  0.35050883569E-01  0.88612031851E-01  0.51100000000E-03 0.  1.
</event>
<event>
 8    1  0.1086235E+005  0.1043930E+01  0.7957747E-01            NaN
         13   -1    0    0    0    0  0.00000000000E+00  0.00000000000E+00  0.74505805969E-08  0.10566000000E+00  0.10566000000E+00 0. -1.
     999900   -1    0    0    0    0 -0.00000000000E+00 -0.00000000000E+00 -0.74505805969E-08  0.93827000000E+00  0.93827000000E+00 0. -1.
     999902    2    1    2    0    0 -0.18408533343E-01  0.10045381755E-01  0.14563238695E-01  0.10183982215E+01  0.10180781236E+01 0.  0.
     999903    2    3    3    0    0 -0.36313721860E-01 -0.44274877201E-01  0.11565843377E+00  0.13076568218E+00  0.21067491276E-01 0.  0.
         14    1    1    2    0    0  0.18408533343E-01 -0.10045381755E-01 -0.14563238695E-01  0.25531778546E-01  0.00000000000E+00 0.  1.
     999901    1    3    3    0    0  0.17905188517E-01  0.54320258956E-01 -0.10109519507E+00  0.88763253927E+00  0.88000000000E+00 0. -1.
        -11    1    4    4    0    0 -0.50750640780E-02 -0.21742312740E-01  0.37942990292E-01  0.44027446803E-01  0.51100000000E-03 0.  1.
         11    1    4    4    0    0 -0.31238657782E-01 -0.22532564460E-01  0.77715443474E-01  0.86738235378E-01  0.51100000000E-03 0. -1.
</event>
<event>
 8    1  0.1086235E+005  0.1043930E+01  0.7957747E-01            NaN
         13   -1    0    0    0    0  0.00000000000E+00  0.00000000000E+00  0.74505805969E-08  0.10566000000E+00  0.10566000000E+00 0.  1.
     999900   -1    0    0    0    0 -0.00000000000E+00 -0.00000000000E+00 -0.74505805969E-08  0.93827000000E+00  0.93827000000E+00 0. -1.
     999902    2    1    2    0    0  0.21867199472E-01  0.13418589948E-02  0.10223660604E-01  0.10197536017E+01  0.10194669735E+01 0.  0.
     999903    2    3    3    0    0 -0.53146226667E-01  0.55667006154E-01  0.10293531117E+00  0.13004933294E+00  0.19844740593E-01 0.  0.
         14    1    1    2    0    0 -0.21867199472E-01 -0.13418589948E-02 -0.10223660604E-01  0.24176398294E-01  0.00000000000E+00 0.  1.
     999901    1    3    3    0    0  0.75013426139E-01 -0.54325147160E-01 -0.92711650564E-01  0.88970426877E+00  0.88000000000E+00 0. -1.
        -11    1    4    4    0    0 -0.22197802386E-01  0.37046717836E-01  0.60241351208E-01  0.74124781616E-01  0.51100000000E-03 0.  1.
         11    1    4    4    0    0 -0.30948424280E-01  0.18620288318E-01  0.42693959960E-01  0.55924551322E-01  0.51100000000E-03 0. -1.
</event>
<event>
 8    1  0.1086235E+005  0.1043930E+01  0.7957747E-01            NaN
         13   -1    0    0    0    0  0.00000000000E+00  0.00000000000E+00  0.74505805969E-08  0.10566000000E+00  0.10566000000E+00 0.  1.
     999900   -1    0    0    0    0 -0.00000000000E+00 -0.00000000000E+00 -0.74505805969E-08  0.93827000000E+00  0.93827000000E+00 0. -1.
     999902    2    1    2    0    0 -0.14624913860E-01  0.16252116040E-01  0.25653168766E-02  0.10219163626E+01  0.10216792314E+01 0.  0.
     999903    2    3    3    0    0 -0.76650325950E-01  0.10202133535E+00 -0.38309196590E-01  0.13463160753E+00  0.19350707156E-01 0.  0.
         14    1    1    2    0    0  0.14624913860E-01 -0.16252116040E-01 -0.25653168766E-02  0.22013637407E-01  0.00000000000E+00 0.  1.
     999901    1    3    3    0    0  0.62025412089E-01 -0.85769219306E-01  0.40874513466E-01  0.88728475507E+00  0.88000000000E+00 0.  1.
        -11    1    4    4    0    0 -0.40377111492E-01  0.43458880365E-01 -0.10030966976E-01  0.60165329174E-01  0.51100000000E-03 0.  1.
         11    1    4    4    0    0 -0.36273214457E-01  0.58562454981E-01 -0.28278229614E-01  0.74466278352E-01  0.51100000000E-03 0. -1.
</event>
<event>
 8    1  0.1086235E+005  0.1043930E+01  0.7957747E-01            NaN
         13   -1    0    0    0    0  0.00000000000E+00  0.00000000000E+00  0.74505805969E-08  0.10566000000E+00  0.10566000000E+00 0.  1.
     999900   -1    0    0    0    0 -0.00000000000E+00 -0.00000000000E+00 -0.74505805969E-08  0.93827000000E+00  0.93827000000E+00 0. -1.
     999902    2    1    2    0    0 -0.97423232655E-02  0.83991030565E-02  0.19101093880E-01  0.10209015484E+01  0.10206417893E+01 0.  0.
     999903    2    3    3    0    0  0.11767865653E+00  0.16639930122E-01  0.51579688000E-01  0.13109321153E+00  0.19995309912E-01 0.  0.
         14    1    1    2    0    0  0.97423232655E-02 -0.83991030565E-02 -0.19101093880E-01  0.23028451580E-01  0.00000000000E+00 0. -1.
     999901    1    3    3    0    0 -0.12742097979E+00 -0.82408270659E-02 -0.32478594120E-01  0.88980833689E+00  0.88000000000E+00 0.  1.
        -11    1    4    4    0    0  0.50401644607E-01  0.95166221787E-02  0.32781765766E-01  0.60875259051E-01  0.51100000000E-03 0.  1.
         11    1    4    4    0    0  0.67277011921E-01  0.71233079437E-02  0.18797922234E-01  0.70217952479E-01  0.51100000000E-03 0. -1.
</event>
<event>
 8    1  0.1086235E+005  0.1043930E+01  0.7957747E-01            NaN
         13   -1    0    0    0    0  0.00000000000E+00  0.00000000000E+00  0.74505805969E-08  0.10566000000E+00  0.10566000000E+00 0. -1.
     999900   -1    0    0    0    0 -0.00000000000E+00 -0.00000000000E+00 -0.74505805969E-08  0.93827000000E+00  0.93827000000E+00 0. -1.
     999902    2    1    2    0    0 -0.59236854192E-03 -0.97593970986E-02  0.23323554102E-01  0.10186399840E+01  0.10183259950E+01 0.  0.
     999903    2    3    3    0    0  0.25949874651E-01 -0.11076269324E+00 -0.57192283156E-01  0.12881474469E+00  0.19506690835E-01 0.  0.
         14    1    1    2    0    0  0.59236854192E-03  0.97593970986E-02 -0.23323554102E-01  0.25290015978E-01  0.00000000000E+00 0. -1.
     999901    1    3    3    0    0 -0.26542243193E-01  0.10100329615E+00  0.80515837258E-01  0.88982523933E+00  0.88000000000E+00 0.  1.
        -11    1    4    4    0    0  0.14340487638E-01 -0.89329719781E-01 -0.39664749430E-01  0.98787660617E-01  0.51100000000E-03 0. -1.
         11    1    4    4    0    0  0.11609387013E-01 -0.21432973464E-01 -0.17527533726E-01  0.30027084071E-01  0.51100000000E-03 0.  1.
</event>
<event>
 8    1  0.1086235E+005  0.1043930E+01  0.7957747E-01            NaN
         13   -1    0    0    0    0  0.00000000000E+00  0.00000000000E+00  0.74505805969E-08  0.10566000000E+00  0.10566000000E+00 0. -1.
     999900   -1    0    0    0    0 -0.00000000000E+00 -0.00000000000E+00 -0.74505805969E-08  0.93827000000E+00  0.93827000000E+00 0.  1.
     999902    2    1    2    0    0 -0.80272598837E-02 -0.21912350830E-01 -0.14151759385E-01  0.10166378708E+01  0.10162714697E+01 0.  0.
     999903    2    3    3    0    0  0.30510638204E-02  0.82971483173E-02  0.12363763295E+00  0.12533474635E+00  0.18557551012E-01 0.  0.
         14    1    1    2    0    0  0.80272598837E-02  0.21912350830E-01  0.14151759385E-01  0.27292129156E-01  0.00000000000E+00 0.  1.
     999901    1    3    3    0    0 -0.11078323704E-01 -0.30209499147E-01 -0.13778939234E+00  0.89130312450E+00  0.88000000000E+00 0.  1.
        -11    1    4    4    0    0 -0.75361881452E-02  0.32551284910E-02  0.36836349732E-01  0.37743446793E-01  0.51100000000E-03 0. -1.
         11    1    4    4    0    0  0.10587251966E-01  0.50420198263E-02  0.86801283220E-01  0.87591299555E-01  0.51100000000E-03 0.  1.
</event>
<event>
 8    1  0.1086235E+005  0.1043930E+01  0.7957747E-01            NaN
         13   -1    0    0    0    0  0.00000000000E+00  0.00000000000E+00  0.74505805969E-08  0.10566000000E+00  0.10566000000E+00 0. -1.
     999900   -1    0    0    0    0 -0.00000000000E+00 -0.00000000000E+00 -0.74505805969E-08  0.93827000000E+00  0.93827000000E+00 0. -1.
     999902    2    1    2    0    0  0.49175660074E-03  0.11996271129E-01  0.21775527949E-01  0.10190638390E+01  0.10187604144E+01 0.  0.
     999903    2    3    3    0    0  0.92931244203E-01  0.82872518110E-01 -0.30999026183E-01  0.12982053437E+00  0.19706879853E-01 0.  0.
         14    1    1    2    0    0 -0.49175660074E-03 -0.11996271129E-01 -0.21775527949E-01  0.24866161003E-01  0.00000000000E+00 0.  1.
     999901    1    3    3    0    0 -0.92439487602E-01 -0.70876246982E-01  0.52774554133E-01  0.88924330462E+00  0.88000000000E+00 0.  1.
        -11    1    4    4    0    0  0.44242307208E-01  0.52578015812E-01 -0.16623199344E-01  0.70699514647E-01  0.51100000000E-03 0.  1.
         11    1    4    4    0    0  0.48688936995E-01  0.30294502298E-01 -0.14375826839E-01  0.59121019726E-01  0.51100000000E-03 0. -1.
</event>
<event>
 8    1  0.1086235E+005  0.1043930E+01  0.7957747E-01            NaN
         13   -1    0    0    0    0  0.00000000000E+00  0.00000000000E+00  0.74505805969E-08  0.10566000000E+00  0.10566000000E+00 0.  1.
     999900   -1    0    0    0    0 -0.00000000000E+00 -0.00000000000E+00 -0.74505805969E-08  0.93827000000E+00  0.93827000000E+00 0.  1.
     999902    2    1    2    0    0  0.79955014959E-02 -0.11096301147E-01  0.18728160892E-01  0.10207394857E+01  0.10204760153E+01 0.  0.
     999903    2    3    3    0    0  0.71183099761E-01 -0.62397901534E-01 -0.86397891643E-01  0.13075296125E+00  0.25907709030E-01 0.  0.
         14    1    1    2    0    0 -0.79955014959E-02  0.11096301147E-01 -0.18728160892E-01  0.23190514305E-01  0.00000000000E+00 0. -1.
     999901    1    3    3    0    0 -0.63187598265E-01  0.51301600387E-01  0.10512605254E+00  0.88998652445E+00  0.88000000000E+00 0. -1.
        -11    1    4    4    0    0  0.54885989852E-01 -0.32309164839E-01 -0.60381343995E-01  0.87764012205E-01  0.51100000000E-03 0. -1.
         11    1    4    4    0    0  0.16297109909E-01 -0.30088736695E-01 -0.26016547648E-01  0.42988949043E-01  0.51100000000E-03 0.  1.
</event>
<event>
 8    1  0.1086235E+005  0.1043930E+01  0.7957747E-01            NaN
         13   -1    0    0    0    0  0.00000000000E+00  0.00000000000E+00  0.74505805969E-08  0.10566000000E+00  0.10566000000E+00 0. -1.
     999900   -1    0    0    0    0 -0.00000000000E+00 -0.00000000000E+00 -0.74505805969E-08  0.93827000000E+00  0.93827000000E+00 0. -1.
     999902    2    1    2    0    0 -0.21856283482E-01  0.43006020209E-02  0.73884958706E-02  0.10204612511E+01  0.10201913461E+01 0.  0.
     999903    2    3    3    0    0 -0.83089745151E-01 -0.10070543513E+00  0.46692354989E-02  0.13210141460E+00  0.19582940685E-01 0.  0.
         14    1    1    2    0    0  0.21856283482E-01 -0.43006020209E-02 -0.73884958706E-02  0.23468748936E-01  0.00000000000E+00 0. -1.
     999901    1    3    3    0    0  0.61233461669E-01  0.10500603715E+00  0.27192603716E-02  0.88835983646E+00  0.88000000000E+00 0.  1.
        -11    1    4    4    0    0 -0.19162604240E-01 -0.33479551128E-01 -0.46783997105E-02  0.38861732976E-01  0.51100000000E-03 0.  1.
         11    1    4    4    0    0 -0.63927140911E-01 -0.67225883999E-01  0.93476352094E-02  0.93239681625E-01  0.51100000000E-03 0. -1.
</event>
<event>
 8    1  0.1086235E+005  0.1043930E+01  0.7957747E-01            NaN
         13   -1    0    0    0    0  0.00000000000E+00  0.00000000000E+00  0.74505805969E-08  0.10566000000E+00  0.10566000000E+00 0. -1.
     999900   -1    0    0    0    0 -0.00000000000E+00 -0.00000000000E+00 -0.74505805969E-08  0.93827000000E+00  0.93827000000E+00 0.  1.
     999902    2    1    2    0    0  0.36896787339E-02  0.15037965623E-01  0.18057337144E-01  0.10201429959E+01  0.10198656336E+01 0.  0.
     999903    2    3    3    0    0 -0.78362317617E-01  0.37030318910E-01 -0.93408421502E-01  0.12905332081E+00  0.20438421250E-01 0.  0.
         14    1    1    2    0    0 -0.36896787339E-02 -0.15037965623E-01 -0.18057337144E-01  0.23787004098E-01  0.00000000000E+00 0.  1.
     999901    1    3    3    0    0  0.82051996351E-01 -0.21992353287E-01  0.11146575865E+00  0.89108967509E+00  0.88000000000E+00 0. -1.
        -11    1    4    4    0    0 -0.33811683609E-01  0.62212901097E-02 -0.29747559545E-01  0.45465512413E-01  0.51100000000E-03 0.  1.
         11    1    4    4    0    0 -0.44550634008E-01  0.30809028801E-01 -0.63660861957E-01  0.83587808395E-01  0.51100000000E-03 0. -1.
</event>
<event>
 8    1  0.1086235E+005  0.1043930E+01  0.7957747E-01            NaN
         13   -1    0    0    0    0  0.00000000000E+00  0.00000000000E+00  0.74505805969E-08  0.10566000000E+00  0.10566000000E+00 0. -1.
     999900   -1    0    0    0    0 -0.00000000000E+00 -0.00000000000E+00 -0.74505805969E-08  0.93827000000E+00  0.93827000000E+00 0. -1.
     999902    2    1    2    0    0 -0.15732596060E-01  0.15240625790E-01 -0.11624611681E-01  0.10191323620E+01  0.10188306279E+01 0.  0.
     999903    2    3    3    0    0 -0.23262919316E-01 -0.11498845071E+00  0.45692736219E-01  0.12767198908E+00  0.21184981480E-01 0.  0.
         14    1    1    2    0    0  0.15732596060E-01 -0.15240625790E-01  0.11624611681E-01  0.24797637992E-01  0.00000000000E+00 0. -1.
     999901    1    3    3    0    0  0.75303232564E-02  0.13022907650E+00 -0.57317347900E-01  0.89146037293E+00  0.88000000000E+00 0.  1.
        -11    1    4    4    0    0 -0.17863225998E-01 -0.74232301053E-01  0.19098842810E-01  0.78705503494E-01  0.51100000000E-03 0. -1.
         11    1    4    4    0    0 -0.53996933185E-02 -0.40756149657E-01  0.26593893409E-01  0.48966485584E-01  0.51100000000E-03 0.  1.
</event>
<event>
 8    1  0.1086235E+005  0.1043930E+01  0.7957747E-01            NaN
         13   -1    0    0    0    0  0.00000000000E+00  0.00000000000E+00  0.74505805969E-08  0.10566000000E+00  0.10566000000E+00 0. -1.
     999900   -1    0    0    0    0 -0.00000000000E+00 -0.00000000000E+00 -0.74505805969E-08  0.93827000000E+00  0.93827000000E+00 0.  1.
     999902    2    1    2    0    0  0.16165010360E-01 -0.14267390297E-02  0.17359383599E-01  0.10201667649E+01  0.10198899631E+01 0.  0.
     999903    2    3    3    0    0 -0.12104253312E+00  0.68699364064E-03  0.40632161597E-01  0.12922793419E+00  0.19927860728E-01 0.  0.
         14    1    1    2    0    0 -0.16165010360E-01  0.14267390297E-02 -0.17359383599E-01  0.23763235115E-01  0.00000000000E+00 0.  1.
     999901    1    3    3    0    0  0.13720754348E+00 -0.21137326704E-02 -0.23272777998E-01  0.89093883070E+00  0.88000000000E+00 0. -1.
        -11    1    4    4    0    0 -0.75401411699E-01 -0.85057654296E-02  0.29019875458E-01  0.81241216291E-01  0.51100000000E-03 0. -1.
         11    1    4    4    0    0 -0.45641121421E-01  0.91927590702E-02  0.11612286139E-01  0.47986717894E-01  0.51100000000E-03 0.  1.
</event>
<event>
 8    1  0.1086235E+005  0.1043930E+01  0.7957747E-01            NaN
         13   -1    0    0    0    0  0.00000000000E+00  0.00000000000E+00  0.74505805969E-08  0.10566000000E+00  0.10566000000E+00 0. -1.
     999900   -1    0    0    0    0 -0.00000000000E+00 -0.00000000000E+00 -0.74505805969E-08  0.93827000000E+00  0.93827000000E+00 0.  1.
     999902    2    1    2    0    0 -0.21804663126E-01  0.69775970589E-02  0.87148852231E-02  0.10194334815E+01  0.10191391189E+01 0.  0.
     999903    2    3    3    0    0  0.41464631579E-01  0.93365512198E-01 -0.75990853466E-01  0.12890502169E+00  0.20136043994E-01 0.  0.
         14    1    1    2    0    0  0.21804663126E-01 -0.69775970589E-02 -0.87148852231E-02  0.24496518512E-01  0.00000000000E+00 0.  1.
     999901    1    3    3    0    0 -0.63269294705E-01 -0.86387915139E-01  0.84705738689E-01  0.89052845979E+00  0.88000000000E+00 0. -1.
        -11    1    4    4    0    0  0.18884418129E-01  0.37658892969E-01 -0.19538876831E-01  0.46441816249E-01  0.51100000000E-03 0.  1.
         11    1    4    4    0    0  0.22580213450E-01  0.55706619229E-01 -0.56451976635E-01  0.82463205446E-01  0.51100000000E-03 0. -1.
</event>
<event>
 8    1  0.1086235E+005  0.1043930E+01  0.7957747E-01            NaN
         13   -1    0    0    0    0  0.00000000000E+00  0.00000000000E+00  0.74505805969E-08  0.10566000000E+00  0.10566000000E+00 0.  1.
     999900   -1    0    0    0    0 -0.00000000000E+00 -0.00000000000E+00 -0.74505805969E-08  0.93827000000E+00  0.93827000000E+00 0. -1.
     999902    2    1    2    0    0  0.14180131158E-01 -0.19128316131E-01 -0.50053057577E-03  0.10201136374E+01  0.10198355819E+01 0.  0.
     999903    2    3    3    0    0  0.18437895626E-01  0.66487199030E-01  0.10747671060E+00  0.12937954147E+00  0.20671690788E-01 0.  0.
         14    1    1    2    0    0 -0.14180131158E-01  0.19128316131E-01  0.50053057577E-03  0.23816362621E-01  0.00000000000E+00 0. -1.
     999901    1    3    3    0    0 -0.42577644684E-02 -0.85615515161E-01 -0.10797724118E+00  0.89073409590E+00  0.88000000000E+00 0. -1.
        -11    1    4    4    0    0  0.47528772112E-02  0.45891098020E-01  0.80464593649E-01  0.92754485991E-01  0.51100000000E-03 0. -1.
         11    1    4    4    0    0  0.13685018415E-01  0.20596101010E-01  0.27012116954E-01  0.36625055483E-01  0.51100000000E-03 0.  1.
</event>
<event>
 8    1  0.1086235E+005  0.1043930E+01  0.7957747E-01            NaN
         13   -1    0    0    0    0  0.00000000000E+00  0.00000000000E+00  0.74505805969E-08  0.10566000000E+00  0.10566000000E+00 0.  1.
     999900   -1    0    0    0    0 -0.00000000000E+00 -0.00000000000E+00 -0.74505805969E-08  0.93827000000E+00  0.93827000000E+00 0. -1.
     999902    2    1    2    0    0 -0.21837005829E-01 -0.15315427691E-04 -0.88181570552E-02  0.10203797356E+01  0.10201079305E+01 0.  0.
     999903    2    3    3    0    0  0.41321883558E-01  0.10125802195E+00  0.65761916995E-01  0.12919652123E+00  0.20160017442E-01 0.  0.
         14    1    1    2    0    0  0.21837005829E-01  0.15315427691E-04  0.88181570552E-02  0.23550264372E-01  0.00000000000E+00 0. -1.
     999901    1    3    3    0    0 -0.63158889387E-01 -0.10127333737E+00 -0.74580074050E-01  0.89118321439E+00  0.88000000000E+00 0.  1.
        -11    1    4    4    0    0  0.39799049863E-01  0.84813095297E-01  0.61704094690E-01  0.11218236014E+00  0.51100000000E-03 0.  1.
         11    1    4    4    0    0  0.15228336956E-02  0.16444926649E-01  0.40578223043E-02  0.17014161096E-01  0.51100000000E-03 0. -1.
</event>
<event>
 8    1  0.1086235E+005  0.1043930E+01  0.7957747E-01            NaN
         13   -1    0    0    0    0  0.00000000000E+00  0.00000000000E+00  0.74505805969E-08  0.10566000000E+00  0.10566000000E+00 0.  1.
     999900   -1    0    0    0    0 -0.00000000000E+00 -0.00000000000E+00 -0.74505805969E-08  0.93827000000E+00  0.93827000000E+00 0.  1.
     999902    2    1    2    0    0 -0.17293058064E-01  0.17190309281E-01 -0.50890171555E-02  0.10190210722E+01  0.10187165900E+01 0.  0.
     999903    2    3    3    0    0 -0.89067359236E-01  0.93493096423E-01 -0.23241184535E-01  0.13262208366E+00  0.19352282977E-01 0.  0.
         14    1    1    2    0    0  0.17293058064E-01 -0.17190309281E-01  0.50890171555E-02  0.24908927836E-01  0.00000000000E+00 0. -1.
     999901    1    3    3    0    0  0.71774301172E-01 -0.76302787143E-01  0.18152167380E-01  0.88639898850E+00  0.88000000000E+00 0.  1.
        -11    1    4    4    0    0 -0.24705614242E-01  0.14542971235E-01 -0.63847565604E-02  0.29375017017E-01  0.51100000000E-03 0. -1.
         11    1    4    4    0    0 -0.64361744994E-01  0.78950125188E-01 -0.16856427975E-01  0.10324706665E+00  0.51100000000E-03 0.  1.
</event>
<event>
 8    1  0.1086235E+005  0.1043930E+01  0.7957747E-01            NaN
         13   -1    0    0    0    0  0.00000000000E+00  0.00000000000E+00  0.74505805969E-08  0.10566000000E+00  0.10566000000E+00 0.  1.
     999900   -1    0    0    0    0 -0.00000000000E+00 -0.00000000000E+00 -0.74505805969E-08  0.93827000000E+00  0.93827000000E+00 0.  1.
     999902    2    1    2    0    0  0.14538923162E-01  0.95695766666E-02 -0.13426997813E-01  0.10219472487E+01  0.10217107897E+01 0.  0.
     999903    2    3    3    0    0  0.26998925756E-01  0.10999465927E+00 -0.69636826682E-01  0.13436627001E+00  0.19422662674E-01 0.  0.
         14    1    1    2    0    0 -0.14538923162E-01 -0.95695766666E-02  0.13426997813E-01  0.21982751296E-01  0.00000000000E+00 0.  1.
     999901    1    3    3    0    0 -0.12460002594E-01 -0.10042508260E+00  0.56209828869E-01  0.88758097870E+00  0.88000000000E+00 0. -1.
        -11    1    4    4    0    0  0.16984607424E-01  0.50279832161E-01 -0.22566365525E-01  0.57671833554E-01  0.51100000000E-03 0.  1.
         11    1    4    4    0    0  0.10014318331E-01  0.59714827110E-01 -0.47070461157E-01  0.76694436454E-01  0.51100000000E-03 0. -1.
</event>
<event>
 8    1  0.1086235E+005  0.1043930E+01  0.7957747E-01            NaN
         13   -1    0    0    0    0  0.00000000000E+00  0.00000000000E+00  0.74505805969E-08  0.10566000000E+00  0.10566000000E+00 0. -1.
     999900   -1    0    0    0    0 -0.00000000000E+00 -0.00000000000E+00 -0.74505805969E-08  0.93827000000E+00  0.93827000000E+00 0.  1.
     999902    2    1    2    0    0 -0.22624613717E-01 -0.14144096936E-02 -0.37072188736E-02  0.10209600811E+01  0.10207016558E+01 0.  0.
     999903    2    3    3    0    0 -0.16596522577E-01  0.10226223664E+00  0.77811494521E-01  0.13111150666E+00  0.20064617957E-01 0.  0.
         14    1    1    2    0    0  0.22624613717E-01  0.14144096936E-02  0.37072188736E-02  0.22969918859E-01  0.00000000000E+00 0. -1.
     999901    1    3    3    0    0 -0.60280911399E-02 -0.10367664633E+00 -0.81518713395E-01  0.88984857448E+00  0.88000000000E+00 0.  1.
        -11    1    4    4    0    0  0.16591809373E-03  0.24343916580E-01  0.28075400973E-01  0.37163733183E-01  0.51100000000E-03 0.  1.
         11    1    4    4    0    0 -0.16762440671E-01  0.77918320061E-01  0.49736093548E-01  0.93947773474E-01  0.51100000000E-03 0. -1.
</event>
<event>
 8    1  0.1086235E+005  0.1043930E+01  0.7957747E-01            NaN
         13   -1    0    0    0    0  0.00000000000E+00  0.00000000000E+00  0.74505805969E-08  0.10566000000E+00  0.10566000000E+00 0.  1.
     999900   -1    0    0    0    0 -0.00000000000E+00 -0.00000000000E+00 -0.74505805969E-08  0.93827000000E+00  0.93827000000E+00 0.  1.
     999902    2    1    2    0    0  0.69308313569E-02 -0.19203321496E-01  0.11789694711E-01  0.10203545704E+01  0.10200821773E+01 0.  0.
     999903    2    3    3    0    0  0.77595886380E-01  0.50050349805E-01  0.90902868973E-01  0.13128285488E+00  0.21111544193E-01 0.  0.
         14    1    1    2    0    0 -0.69308313569E-02  0.19203321496E-01 -0.11789694711E-01  0.23575429607E-01  0.00000000000E+00 0.  1.
     999901    1    3    3    0    0 -0.70665055023E-01 -0.69253671301E-01 -0.79113174263E-01  0.88907171552E+00  0.88000000000E+00 0.  1.
        -11    1    4    4    0    0  0.56489508221E-01  0.24740916477E-01  0.61922524064E-01  0.87394722922E-01  0.51100000000E-03 0. -1.
         11    1    4    4    0    0  0.21106378159E-01  0.25309433328E-01  0.28980344910E-01  0.43888131955E-01  0.51100000000E-03 0.  1.
</event>
<event>
 8    1  0.1086235E+005  0.1043930E+01  0.7957747E-01            NaN
         13   -1    0    0    0    0  0.00000000000E+00  0.00000000000E+00  0.74505805969E-08  0.10566000000E+00  0.10566000000E+00 0.  1.
     999900   -1    0    0    0    0 -0.00000000000E+00 -0.00000000000E+00 -0.74505805969E-08  0.93827000000E+00  0.93827000000E+00 0. -1.
     999902    2    1    2    0    0 -0.14549022172E-01 -0.26448842369E-02  0.16547899740E-01  0.10217376039E+01  0.10214965633E+01 0.  0.
     999903    2    3    3    0    0 -0.74037416595E-02 -0.10970709132E+00 -0.68533177568E-01  0.13114669842E+00  0.20302679669E-01 0.  0.
         14    1    1    2    0    0  0.14549022172E-01  0.26448842369E-02 -0.16547899740E-01  0.22192396098E-01  0.00000000000E+00 0.  1.
     999901    1    3    3    0    0 -0.71452805121E-02  0.10706220708E+00  0.85081077308E-01  0.89059090549E+00  0.88000000000E+00 0.  1.
        -11    1    4    4    0    0 -0.52794485982E-02 -0.32621705133E-01 -0.10649795396E-01  0.34723586886E-01  0.51100000000E-03 0. -1.
         11    1    4    4    0    0 -0.21242930613E-02 -0.77085386185E-01 -0.57883382172E-01  0.96423111530E-01  0.51100000000E-03 0.  1.
</event>
<event>
 8    1  0.1086235E+005  0.1043930E+01  0.7957747E-01            NaN
         13   -1    0    0    0    0  0.00000000000E+00  0.00000000000E+00  0.74505805969E-08  0.10566000000E+00  0.10566000000E+00 0.  1.
     999900   -1    0    0    0    0 -0.00000000000E+00 -0.00000000000E+00 -0.74505805969E-08  0.93827000000E+00  0.93827000000E+00 0. -1.
     999902    2    1    2    0    0 -0.14196674292E-01 -0.10574018841E-01  0.15364319882E-01  0.10204903379E+01  0.10202211093E+01 0.  0.
     999903    2    3    3    0    0 -0.39646509397E-01 -0.11581580265E+00 -0.44531015977E-01  0.13183349835E+00  0.20295665879E-01 0.  0.
         14    1    1    2    0    0  0.14196674292E-01  0.10574018841E-01 -0.15364319882E-01  0.23439662132E-01  0.00000000000E+00 0. -1.
     999901    1    3    3    0    0  0.25449835105E-01  0.10524178380E+00  0.59895335859E-01  0.88865683952E+00  0.88000000000E+00 0.  1.
        -11    1    4    4    0    0  0.94527922903E-03 -0.16496364914E-01 -0.31150821486E-02  0.16822261025E-01  0.51100000000E-03 0.  1.
         11    1    4    4    0    0 -0.40591788626E-01 -0.99319437731E-01 -0.41415933828E-01  0.11501123732E+00  0.51100000000E-03 0. -1.
</event>
<event>
 8    1  0.1086235E+005  0.1043930E+01  0.7957747E-01            NaN
         13   -1    0    0    0    0  0.00000000000E+00  0.00000000000E+00  0.74505805969E-08  0.10566000000E+00  0.10566000000E+00 0. -1.
     999900   -1    0    0    0    0 -0.00000000000E+00 -0.00000000000E+00 -0.74505805969E-08  0.93827000000E+00  0.93827000000E+00 0. -1.
     999902    2    1    2    0    0 -0.11322882310E-01 -0.13335705853E-01  0.15840948405E-01  0.10203294839E+01  0.10200565040E+01 0.  0.
     999903    2    3    3    0    0 -0.27824529050E-01  0.50230619773E-01  0.11780380196E+00  0.13201118192E+00  0.15871257573E-01 0.  0.
         14    1    1    2    0    0  0.11322882310E-01  0.13335705853E-01 -0.15840948405E-01  0.23600516113E-01  0.00000000000E+00 0.  1.
     999901    1    3    3    0    0  0.16501646740E-01 -0.63566325627E-01 -0.10196285355E+00  0.88831830196E+00  0.88000000000E+00 0. -1.
        -11    1    4    4    0    0 -0.14520617790E-01  0.14662374110E-01  0.53297317333E-01  0.57155040997E-01  0.51100000000E-03 0.  1.
         11    1    4    4    0    0 -0.13303911259E-01  0.35568245664E-01  0.64506484627E-01  0.74856140926E-01  0.51100000000E-03 0. -1.
</event>
<event>
 8    1  0.1086235E+005  0.1043930E+01  0.7957747E-01            NaN
         13   -1    0    0    0    0  0.00000000000E+00  0.00000000000E+00  0.74505805969E-08  0.10566000000E+00  0.10566000000E+00 0. -1.
     999900   -1    0    0    0    0 -0.00000000000E+00 -0.00000000000E+00 -0.74505805969E-08  0.93827000000E+00  0.93827000000E+00 0. -1.
     999902    2    1    2    0    0  0.15139988994E-01  0.16122159223E-01  0.58865700965E-02  0.10210434321E+01  0.10207869000E+01 0.  0.
     999903    2    3    3    0    0  0.43725356683E-01 -0.90811844235E-01 -0.79614719377E-01  0.12999771222E+00  0.20055018572E-01 0.  0.
         14    1    1    2    0    0 -0.15139988994E-01 -0.16122159223E-01 -0.58865700965E-02  0.22886567943E-01  0.00000000000E+00 0.  1.
     999901    1    3    3    0    0 -0.28585367689E-01  0.10693400346E+00  0.85501289474E-01  0.89104571984E+00  0.88000000000E+00 0.  1.
        -11    1    4    4    0    0  0.40778397804E-01 -0.66802535368E-01 -0.64941745470E-01  0.10170126786E+00  0.51100000000E-03 0.  1.
         11    1    4    4    0    0  0.29469588793E-02 -0.24009308866E-01 -0.14672973907E-01  0.28296444355E-01  0.51100000000E-03 0. -1.
</event>
<event>
 8    1  0.1086235E+005  0.1043930E+01  0.7957747E-01            NaN
         13   -1    0    0    0    0  0.00000000000E+00  0.00000000000E+00  0.74505805969E-08  0.10566000000E+00  0.10566000000E+00 0.  1.
     999900   -1    0    0    0    0 -0.00000000000E+00 -0.00000000000E+00 -0.74505805969E-08  0.93827000000E+00  0.93827000000E+00 0.  1.
     999902    2    1    2    0    0  0.10262351290E-02 -0.72560133672E-02  0.22512914271E-01  0.10202543966E+01  0.10199796564E+01 0.  0.
     999903    2    3    3    0    0 -0.23640830884E-01 -0.11802598365E+00  0.51907448741E-01  0.13248050131E+00  0.19174939105E-01 0.  0.
         14    1    1    2    0    0 -0.10262351290E-02  0.72560133672E-02 -0.22512914271E-01  0.23675603424E-01  0.00000000000E+00 0. -1.
     999901    1    3    3    0    0  0.24667066013E-01  0.11076997029E+00 -0.29394534470E-01  0.88777389527E+00  0.88000000000E+00 0. -1.
        -11    1    4    4    0    0 -0.46715422037E-02 -0.69507821321E-01  0.32652485595E-01  0.76938978859E-01  0.51100000000E-03 0.  1.
         11    1    4    4    0    0 -0.18969288680E-01 -0.48518162332E-01  0.19254963147E-01  0.55541522449E-01  0.51100000000E-03 0. -1.
</event>
<event>
 8    1  0.1086235E+005  0.1043930E+01  0.7957747E-01            NaN
         13   -1    0    0    0    0  0.00000000000E+00  0.00000000000E+00  0.74505805969E-08  0.10566000000E+00  0.10566000000E+00 0. -1.
     999900   -1    0    0    0    0 -0.00000000000E+00 -0.00000000000E+00 -0.74505805969E-08  0.93827000000E+00  0.93827000000E+00 0.  1.
     999902    2    1    2    0    0  0.20342243831E-02  0.23664201284E-01  0.11501866717E-02  0.10201506934E+01  0.10198735127E+01 0.  0.
     999903    2    3    3    0    0 -0.62865787389E-01  0.10274933030E+00  0.51833957530E-01  0.13277517327E+00  0.20807579934E-01 0.  0.
         14    1    1    2    0    0 -0.20342243831E-02 -0.23664201284E-01 -0.11501866717E-02  0.23779306563E-01  0.00000000000E+00 0.  1.
     999901    1    3    3    0    0  0.64900011772E-01 -0.79085129017E-01 -0.50683770858E-01  0.88737552017E+00  0.88000000000E+00 0.  1.
        -11    1    4    4    0    0 -0.57886997910E-02  0.20940142572E-01  0.38084913671E-02  0.22062736541E-01  0.51100000000E-03 0.  1.
         11    1    4    4    0    0 -0.57077087598E-01  0.81809187729E-01  0.48025466163E-01  0.11071243673E+00  0.51100000000E-03 0. -1.
</event>
<event>
 8    1  0.1086235E+005  0.1043930E+01  0.7957747E-01            NaN
         13   -1    0    0    0    0  0.00000000000E+00  0.00000000000E+00  0.74505805969E-08  0.10566000000E+00  0.10566000000E+00 0.  1.
     999900   -1    0    0    0    0 -0.00000000000E+00 -0.00000000000E+00 -0.74505805969E-08  0.93827000000E+00  0.93827000000E+00 0.  1.
     999902    2    1    2    0    0  0.63280413186E-03  0.21235783782E-01 -0.10317822687E-01  0.10203118625E+01  0.10200384700E+01 0.  0.
     999903    2    3    3    0    0  0.44370400803E-01  0.11942046924E+00  0.31737302711E-01  0.13277490925E+00  0.19797454428E-01 0.  0.
         14    1    1    2    0    0 -0.63280413186E-03 -0.21235783782E-01  0.10317822687E-01  0.23618137499E-01  0.00000000000E+00 0. -1.
     999901    1    3    3    0    0 -0.43737596671E-01 -0.98184685455E-01 -0.42055125398E-01  0.88753695325E+00  0.88000000000E+00 0. -1.
        -11    1    4    4    0    0  0.30979701254E-01  0.89649598019E-01  0.32063450217E-01  0.10012551261E+00  0.51100000000E-03 0. -1.
         11    1    4    4    0    0  0.13390699549E-01  0.29770871218E-01 -0.32614750539E-03  0.32649396636E-01  0.51100000000E-03 0.  1.
</event>
<event>
 8    1  0.1086235E+005  0.1043930E+01  0.7957747E-01            NaN
         13   -1    0    0    0    0  0.00000000000E+00  0.00000000000E+00  0.74505805969E-08  0.10566000000E+00  0.10566000000E+00 0. -1.
     999900   -1    0    0    0    0 -0.00000000000E+00 -0.00000000000E+00 -0.74505805969E-08  0.93827000000E+00  0.93827000000E+00 0. -1.
     999902    2    1    2    0    0 -0.85053487342E-02 -0.13600203920E-01  0.16950080954E-01  0.10205930819E+01  0.10203262356E+01 0.  0.
     999903    2    3    3    0    0  0.10993475928E+00  0.64447180719E-01  0.22149055052E-02  0.12911308835E+00  0.20644451452E-01 0.  0.
         14    1    1    2    0    0  0.85053487342E-02  0.13600203920E-01 -0.16950080954E-01  0.23336918136E-01  0.00000000000E+00 0.  1.
     999901    1    3    3    0    0 -0.11844010802E+00 -0.78047384639E-01  0.14735175449E-01  0.89147999351E+00  0.88000000000E+00 0. -1.
        -11    1    4    4    0    0  0.51758149931E-01  0.31883587309E-01  0.11271792270E-01  0.61828663627E-01  0.51100000000E-03 0.  1.
         11    1    4    4    0    0  0.58176609353E-01  0.32563593410E-01 -0.90568867643E-02  0.67284424725E-01  0.51100000000E-03 0. -1.
</event>
<event>
 8    1  0.1086235E+005  0.1043930E+01  0.7957747E-01            NaN
         13   -1    0    0    0    0  0.00000000000E+00  0.00000000000E+00  0.74505805969E-08  0.10566000000E+00  0.10566000000E+00 0. -1.
     999900   -1    0    0    0    0 -0.00000000000E+00 -0.00000000000E+00 -0.74505805969E-08  0.93827000000E+00  0.93827000000E+00 0. -1.
     999902    2    1    2    0    0 -0.13075697365E-01 -0.93381620087E-02 -0.17028029358E-01  0.10205178469E+01  0.10202492572E+01 0.  0.
     999903    2    3    3    0    0  0.78443840077E-01 -0.76850995972E-01  0.65396703974E-01  0.12937944843E+00  0.20069906729E-01 0.  0.
         14    1    1    2    0    0  0.13075697365E-01  0.93381620087E-02  0.17028029358E-01  0.23412153149E-01  0.00000000000E+00 0. -1.
     999901    1    3    3    0    0 -0.91519537443E-01  0.67512833963E-01 -0.82424733332E-01  0.89113839843E+00  0.88000000000E+00 0.  1.
        -11    1    4    4    0    0  0.71511438129E-02 -0.14083137344E-01  0.40842584907E-02  0.16322251796E-01  0.51100000000E-03 0. -1.
         11    1    4    4    0    0  0.71292696265E-01 -0.62767858628E-01  0.61312445483E-01  0.11305719663E+00  0.51100000000E-03 0.  1.
</event>
<event>
 8    1  0.1086235E+005  0.1043930E+01  0.7957747E-01            NaN
         13   -1    0    0    0    0  0.00000000000E+00  0.00000000000E+00  0.74505805969E-08  0.10566000000E+00  0.10566000000E+00 0.  1.
     999900   -1    0    0    0    0 -0.00000000000E+00 -0.00000000000E+00 -0.74505805969E-08  0.93827000000E+00  0.93827000000E+00 0.  1.
     999902    2    1    2    0    0 -0.19381894583E-01  0.13401526740E-01 -0.43307657441E-03  0.10203620915E+01  0.10200898742E+01 0.  0.
     999903    2    3    3    0    0  0.62867430990E-01  0.26954449274E-01 -0.10846256306E+00  0.12984594721E+00  0.20420240103E-01 0.  0.
         14    1    1    2    0    0  0.19381894583E-01 -0.13401526740E-01  0.43307657441E-03  0.23567908518E-01  0.00000000000E+00 0. -1.
     999901    1    3    3    0    0 -0.82249325573E-01 -0.13552922534E-01  0.10802948648E+00  0.89051614428E+00  0.88000000000E+00 0. -1.
        -11    1    4    4    0    0  0.51672858304E-01  0.14239920077E-01 -0.90249866353E-01  0.10496741926E+00  0.51100000000E-03 0.  1.
         11    1    4    4    0    0  0.11194572686E-01  0.12714529198E-01 -0.18212696704E-01  0.24878527942E-01  0.51100000000E-03 0. -1.
</event>
<event>
 8    1  0.1086235E+005  0.1043930E+01  0.7957747E-01            NaN
         13   -1    0    0    0    0  0.00000000000E+00  0.00000000000E+00  0.74505805969E-08  0.10566000000E+00  0.10566000000E+00 0. -1.
     999900   -1    0    0    0    0 -0.00000000000E+00 -0.00000000000E+00 -0.74505805969E-08  0.93827000000E+00  0.93827000000E+00 0. -1.
     999902    2    1    2    0    0 -0.10049673131E-01 -0.15324073709E-01 -0.15071480348E-01  0.10202029546E+01  0.10199270051E+01 0.  0.
     999903    2    3    3    0    0 -0.11566138239E+00  0.15983132328E-02 -0.60808613601E-01  0.13254756779E+00  0.22159879449E-01 0.  0.
         14    1    1    2    0    0  0.10049673131E-01  0.15324073709E-01  0.15071480348E-01  0.23727045432E-01  0.00000000000E+00 0. -1.
     999901    1    3    3    0    0  0.10561170926E+00 -0.16922386941E-01  0.45737133253E-01  0.88765538678E+00  0.88000000000E+00 0.  1.
        -11    1    4    4    0    0 -0.88358084131E-01 -0.58317424860E-02 -0.52952818026E-01  0.10317665584E+00  0.51100000000E-03 0. -1.
         11    1    4    4    0    0 -0.27303298262E-01  0.74300557189E-02 -0.78557955751E-02  0.29370911955E-01  0.51100000000E-03 0.  1.
</event>
<event>
 8    1  0.1086235E+005  0.1043930E+01  0.7957747E-01            NaN
         13   -1    0    0    0    0  0.00000000000E+00  0.00000000000E+00  0.74505805969E-08  0.10566000000E+00  0.10566000000E+00 0.  1.
     999900   -1    0    0    0    0 -0.00000000000E+00 -0.00000000000E+00 -0.74505805969E-08  0.93827000000E+00  0.93827000000E+00 0. -1.
     999902    2    1    2    0    0  0.14951350126E-01 -0.42926542923E-02  0.14536799962E-01  0.10226394316E+01  0.10224177809E+01 0.  0.
     999903    2    3    3    0    0  0.87421232397E-01  0.94309157930E-01  0.31864357036E-01  0.13400314744E+00  0.20120067898E-01 0.  0.
         14    1    1    2    0    0 -0.14951350126E-01  0.42926542923E-02 -0.14536799962E-01  0.21290568442E-01  0.00000000000E+00 0. -1.
     999901    1    3    3    0    0 -0.72469882271E-01 -0.98601812222E-01 -0.17327557074E-01  0.88863628411E+00  0.88000000000E+00 0. -1.
        -11    1    4    4    0    0  0.30759314237E-01  0.22951567300E-01  0.33567230726E-02  0.38528412434E-01  0.51100000000E-03 0.  1.
         11    1    4    4    0    0  0.56661918160E-01  0.71357590630E-01  0.28507633963E-01  0.95474735010E-01  0.51100000000E-03 0. -1.
</event>
<event>
 8    1  0.1086235E+005  0.1043930E+01  0.7957747E-01            NaN
         13   -1    0    0    0    0  0.00000000000E+00  0.00000000000E+00  0.74505805969E-08  0.10566000000E+00  0.10566000000E+00 0. -1.
     999900   -1    0    0    0    0 -0.00000000000E+00 -0.00000000000E+00 -0.74505805969E-08  0.93827000000E+00  0.93827000000E+00 0.  1.
     999902    2    1    2    0    0 -0.12074375750E-01 -0.16939206790E-01  0.11449107780E-01  0.10201853302E+01  0.10199089658E+01 0.  0.
     999903    2    3    3    0    0 -0.63637017964E-01  0.59219431254E-01  0.96442244951E-01  0.13131937988E+00  0.19673886930E-01 0.  0.
         14    1    1    2    0    0  0.12074375750E-01  0.16939206790E-01 -0.11449107780E-01  0.23744669831E-01  0.00000000000E+00 0.  1.
     999901    1    3    3    0    0  0.51562642215E-01 -0.76158638044E-01 -0.84993137171E-01  0.88886595029E+00  0.88000000000E+00 0. -1.
        -11    1    4    4    0    0 -0.20884176278E-01  0.23332873933E-01  0.21998948876E-01  0.38272531892E-01  0.51100000000E-03 0. -1.
         11    1    4    4    0    0 -0.42752841687E-01  0.35886557321E-01  0.74443296075E-01  0.93046847986E-01  0.51100000000E-03 0.  1.
</event>
<event>
 8    1  0.1086235E+005  0.1043930E+01  0.7957747E-01            NaN
         13   -1    0    0    0    0  0.00000000000E+00  0.00000000000E+00  0.74505805969E-08  0.10566000000E+00  0.10566000000E+00 0. -1.
     999900   -1    0    0    0    0 -0.00000000000E+00 -0.00000000000E+00 -0.74505805969E-08  0.93827000000E+00  0.93827000000E+00 0. -1.
     999902    2    1    2    0    0  0.13112070042E-02  0.21785123817E-01 -0.88239109464E-02  0.10203891358E+01  0.10201175502E+01 0.  0.
     999903    2    3    3    0    0 -0.44773851538E-01  0.10380128614E+00 -0.67884056806E-01  0.13340628120E+00  0.20238228878E-01 0.  0.
         14    1    1    2    0    0 -0.13112070042E-02 -0.21785123817E-01  0.88239109464E-02  0.23540864214E-01  0.00000000000E+00 0. -1.
     999901    1    3    3    0    0  0.46085058542E-01 -0.82016162327E-01  0.59060145860E-01  0.88698285459E+00  0.88000000000E+00 0. -1.
        -11    1    4    4    0    0 -0.15433526263E-01  0.15916632750E-01 -0.12335828762E-01  0.25376499428E-01  0.51100000000E-03 0. -1.
         11    1    4    4    0    0 -0.29340325275E-01  0.87884653394E-01 -0.55548228044E-01  0.10802978177E+00  0.51100000000E-03 0.  1.
</event>
<event>
 8    1  0.1086235E+005  0.1043930E+01  0.7957747E-01            NaN
         13   -1    0    0    0    0  0.00000000000E+00  0.00000000000E+00  0.74505805969E-08  0.10566000000E+00  0.10566000000E+00 0.  1.
     999900   -1    0    0    0    0 -0.00000000000E+00 -0.00000000000E+00 -0.74505805969E-08  0.93827000000E+00  0.93827000000E+00 0.  1.
     999902    2    1    2    0    0 -0.17562871992E-01 -0.13902917882E-01  0.56401021143E-02  0.10208311613E+01  0.10205697935E+01 0.  0.
     999903    2    3    3    0    0  0.75005299443E-01  0.96462557262E-01  0.34904882142E-01  0.12863957210E+00  0.19974203703E-01 0.  0.
         14    1    1    2    0    0  0.17562871992E-01  0.13902917882E-01 -0.56401021143E-02  0.23098838717E-01  0.00000000000E+00 0. -1.
     999901    1    3    3    0    0 -0.92568171435E-01 -0.11036547514E+00 -0.29264780028E-01  0.89219158919E+00  0.88000000000E+00 0.  1.
        -11    1    4    4    0    0  0.15252157249E-01  0.86380398943E-02  0.36524576466E-02  0.17912163516E-01  0.51100000000E-03 0.  1.
         11    1    4    4    0    0  0.59753142194E-01  0.87824517368E-01  0.31252424496E-01  0.11072740858E+00  0.51100000000E-03 0. -1.
</event>
<event>
 8    1  0.1086235E+005  0.1043930E+01  0.7957747E-01            NaN
         13   -1    0    0    0    0  0.00000000000E+00  0.00000000000E+00  0.74505805969E-08  0.10566000000E+00  0.10566000000E+00 0.  1.
     999900   -1    0    0    0    0 -0.00000000000E+00 -0.00000000000E+00 -0.74505805969E-08  0.93827000000E+00  0.93827000000E+00 0. -1.
     999902    2    1    2    0    0  0.56710561282E-02 -0.23072150364E-01 -0.11915461722E-02  0.10201412467E+01  0.10198638431E+01 0.  0.
     999903    2    3    3    0    0 -0.96087676692E-01  0.25885530643E-01  0.79983673154E-01  0.12921975161E+00  0.19936246515E-01 0.  0.
         14    1    1    2    0    0 -0.56710561282E-02  0.23072150364E-01  0.11915461722E-02  0.23788753274E-01  0.00000000000E+00 0.  1.
     999901    1    3    3    0    0  0.10175873282E+00 -0.48957681007E-01 -0.81175219326E-01  0.89092149512E+00  0.88000000000E+00 0.  1.
        -11    1    4    4    0    0 -0.43437538327E-01  0.15497852245E-02  0.35467459671E-01  0.56101901809E-01  0.51100000000E-03 0.  1.
         11    1    4    4    0    0 -0.52650138366E-01  0.24335745418E-01  0.44516213483E-01  0.73117849796E-01  0.51100000000E-03 0. -1.
</event>
<event>
 8    1  0.1086235E+005  0.1043930E+01  0.7957747E-01            NaN
         13   -1    0    0    0    0  0.00000000000E+00  0.00000000000E+00  0.74505805969E-08  0.10566000000E+00  0.10566000000E+00 0. -1.
     999900   -1    0    0    0    0 -0.00000000000E+00 -0.00000000000E+00 -0.74505805969E-08  0.93827000000E+00  0.93827000000E+00 0. -1.
     999902    2    1    2    0    0 -0.22833267329E-01  0.82007383190E-02  0.38486880657E-02  0.10193653383E+01  0.10190693157E+01 0.  0.
     999903    2    3    3    0    0  0.11949564689E+00 -0.13582253302E-01 -0.34895079124E-01  0.12682228719E+00  0.20063368389E-01 0.  0.
         14    1    1    2    0    0  0.22833267329E-01 -0.82007383190E-02 -0.38486880657E-02  0.24564661726E-01  0.00000000000E+00 0. -1.
     999901    1    3    3    0    0 -0.14232891421E+00  0.21782991621E-01  0.38743767190E-01  0.89254305109E+00  0.88000000000E+00 0. -1.
        -11    1    4    4    0    0  0.56291320459E-01  0.18601233991E-02 -0.22133411652E-01  0.60517120308E-01  0.51100000000E-03 0. -1.
         11    1    4    4    0    0  0.63204326428E-01 -0.15442376701E-01 -0.12761667472E-01  0.66305166880E-01  0.51100000000E-03 0.  1.
</event>
<event>
 8    1  0.1086235E+005  0.1043930E+01  0.7957747E-01            NaN
         13   -1    0    0    0    0  0.00000000000E+00  0.00000000000E+00  0.74505805969E-08  0.10566000000E+00  0.10566000000E+00 0. -1.
     999900   -1    0    0    0    0 -0.00000000000E+00 -0.00000000000E+00 -0.74505805969E-08  0.93827000000E+00  0.93827000000E+00 0.  1.
     999902    2    1    2    0    0  0.20359649170E-01 -0.13086424682E-01 -0.47993892610E-02  0.10192560469E+01  0.10189573520E+01 0.  0.
     999903    2    3    3    0    0  0.85785328370E-01 -0.52869286191E-01  0.82302738991E-01  0.13164691200E+00  0.20071985680E-01 0.  0.
         14    1    1    2    0    0 -0.20359649170E-01  0.13086424682E-01  0.47993892610E-02  0.24673953119E-01  0.00000000000E+00 0.  1.
     999901    1    3    3    0    0 -0.65425679200E-01  0.39782861510E-01 -0.87102128252E-01  0.88760913488E+00  0.88000000000E+00 0.  1.
        -11    1    4    4    0    0  0.35927863566E-01 -0.31658449837E-01  0.46165905605E-01  0.66517823084E-01  0.51100000000E-03 0.  1.
         11    1    4    4    0    0  0.49857464804E-01 -0.21210836354E-01  0.36136833386E-01  0.65129088921E-01  0.51100000000E-03 0. -1.
</event>
<event>
 8    1  0.1086235E+005  0.1043930E+01  0.7957747E-01            NaN
         13   -1    0    0    0    0  0.00000000000E+00  0.00000000000E+00  0.74505805969E-08  0.10566000000E+00  0.10566000000E+00 0. -1.
     999900   -1    0    0    0    0 -0.00000000000E+00 -0.00000000000E+00 -0.74505805969E-08  0.93827000000E+00  0.93827000000E+00 0. -1.
     999902    2    1    2    0    0 -0.12457335456E-01 -0.16710380004E-01  0.10842648025E-01  0.10204356385E+01  0.10201651373E+01 0.  0.
     999903    2    3    3    0    0 -0.11507942870E+00  0.23572419493E-01 -0.56362135727E-01  0.13101420806E+00  0.13751308983E-01 0.  0.
         14    1    1    2    0    0  0.12457335456E-01  0.16710380004E-01 -0.10842648025E-01  0.23494361510E-01  0.00000000000E+00 0.  1.
     999901    1    3    3    0    0  0.10262209324E+00 -0.40282799497E-01  0.67204783752E-01  0.88942143043E+00  0.88000000000E+00 0.  1.
        -11    1    4    4    0    0 -0.72064777921E-02 -0.34974924569E-03 -0.63194750607E-03  0.72605871218E-02  0.51100000000E-03 0.  1.
         11    1    4    4    0    0 -0.10787295091E+00  0.23922168739E-01 -0.55730188221E-01  0.12375362093E+00  0.51100000000E-03 0. -1.
</event>
<event>
 8    1  0.1086235E+005  0.1043930E+01  0.7957747E-01            NaN
         13   -1    0    0    0    0  0.00000000000E+00  0.00000000000E+00  0.74505805969E-08  0.10566000000E+00  0.10566000000E+00 0.  1.
     999900   -1    0    0    0    0 -0.00000000000E+00 -0.00000000000E+00 -0.74505805969E-08  0.93827000000E+00  0.93827000000E+00 0. -1.
     999902    2    1    2    0    0 -0.71807529425E-03 -0.16318950252E-02 -0.23971587960E-01  0.10198922018E+01  0.10196088895E+01 0.  0.
     999903    2    3    3    0    0  0.90726351539E-01 -0.87990455656E-01 -0.28125497965E-01  0.13093936887E+00  0.19505987114E-01 0.  0.
         14    1    1    2    0    0  0.71807529425E-03  0.16318950252E-02  0.23971587960E-01  0.24037798211E-01  0.00000000000E+00 0.  1.
     999901    1    3    3    0    0 -0.91444426833E-01  0.86358560631E-01  0.41539100051E-02  0.88895283292E+00  0.88000000000E+00 0. -1.
        -11    1    4    4    0    0  0.37292732970E-01 -0.41581006288E-01 -0.21507773663E-01  0.59854602707E-01  0.51100000000E-03 0. -1.
         11    1    4    4    0    0  0.53433618568E-01 -0.46409449369E-01 -0.66177243019E-02  0.71084766160E-01  0.51100000000E-03 0.  1.
</event>
<event>
 8    1  0.1086235E+005  0.1043930E+01  0.7957747E-01            NaN
         13   -1    0    0    0    0  0.00000000000E+00  0.00000000000E+00  0.74505805969E-08  0.10566000000E+00  0.10566000000E+00 0. -1.
     999900   -1    0    0    0    0 -0.00000000000E+00 -0.00000000000E+00 -0.74505805969E-08  0.93827000000E+00  0.93827000000E+00 0.  1.
     999902    2    1    2    0    0  0.13998092813E-01 -0.86938355473E-02 -0.17324178981E-01  0.10200206596E+01  0.10197404030E+01 0.  0.
     999903    2    3    3    0    0 -0.13242348525E-01  0.24742885868E-01  0.12306144235E+00  0.12785017220E+00  0.20346442987E-01 0.  0.
         14    1    1    2    0    0 -0.13998092813E-01  0.86938355473E-02  0.17324178981E-01  0.23909340357E-01  0.00000000000E+00 0. -1.
     999901    1    3    3    0    0  0.27240441338E-01 -0.33436721415E-01 -0.14038562134E+00  0.89217048744E+00  0.88000000000E+00 0.  1.
        -11    1    4    4    0    0 -0.16569026464E-01  0.19716591512E-01  0.72737861963E-01  0.77164333100E-01  0.51100000000E-03 0. -1.
         11    1    4    4    0    0  0.33266779393E-02  0.50262943555E-02  0.50323580392E-01  0.50685839103E-01  0.51100000000E-03 0.  1.
</event>
<event>
 8    1  0.1086235E+005  0.1043930E+01  0.7957747E-01            NaN
         13   -1    0    0    0    0  0.00000000000E+00  0.00000000000E+00  0.74505805969E-08  0.10566000000E+00  0.10566000000E+00 0. -1.
     999900   -1    0    0    0    0 -0.00000000000E+00 -0.00000000000E+00 -0.74505805969E-08  0.93827000000E+00  0.93827000000E+00 0. -1.
     999902    2    1    2    0    0  0.14148166280E-01  0.59802943231E-02 -0.17596005207E-01  0.10205729041E+01  0.10203055908E+01 0.  0.
     999903    2    3    3    0    0  0.93899708291E-01  0.64932827528E-01 -0.65410179449E-01  0.13371220203E+00  0.23812477598E-01 0.  0.
         14    1    1    2    0    0 -0.14148166280E-01 -0.59802943231E-02  0.17596005207E-01  0.23357095892E-01  0.00000000000E+00 0. -1.
     999901    1    3    3    0    0 -0.79751542011E-01 -0.58952533205E-01  0.47814174242E-01  0.88686070207E+00  0.88000000000E+00 0.  1.
        -11    1    4    4    0    0  0.28996204715E-01  0.17551623309E-01 -0.32220623878E-01  0.46768248767E-01  0.51100000000E-03 0. -1.
         11    1    4    4    0    0  0.64903503576E-01  0.47381204219E-01 -0.33189555571E-01  0.86943953267E-01  0.51100000000E-03 0.  1.
</event>
<event>
 8    1  0.1086235E+005  0.1043930E+01  0.7957747E-01            NaN
         13   -1    0    0    0    0  0.00000000000E+00  0.00000000000E+00  0.74505805969E-08  0.10566000000E+00  0.10566000000E+00 0. -1.
     999900   -1    0    0    0    0 -0.00000000000E+00 -0.00000000000E+00 -0.74505805969E-08  0.93827000000E+00  0.93827000000E+00 0.  1.
     999902    2    1    2    0    0 -0.13427750801E-01  0.44511508841E-04 -0.20421621506E-01  0.10194892738E+01  0.10191962668E+01 0.  0.
     999903    2    3    3    0    0  0.16899908589E-01  0.11441543833E+00  0.52233664745E-01  0.12860248724E+00  0.20826534806E-01 0.  0.
         14    1    1    2    0    0  0.13427750801E-01 -0.44511508841E-04  0.20421621506E-01  0.24440726213E-01  0.00000000000E+00 0. -1.
     999901    1    3    3    0    0 -0.30327659391E-01 -0.11437092682E+00 -0.72655286251E-01  0.89088678655E+00  0.88000000000E+00 0.  1.
        -11    1    4    4    0    0 -0.26232270147E-02  0.24733336692E-01  0.17723664712E-01  0.30545190714E-01  0.51100000000E-03 0. -1.
         11    1    4    4    0    0  0.19523135604E-01  0.89682101641E-01  0.34510000032E-01  0.98057296525E-01  0.51100000000E-03 0.  1.
</event>
<event>
 8    1  0.1086235E+005  0.1043930E+01  0.7957747E-01            NaN
         13   -1    0    0    0    0  0.00000000000E+00  0.00000000000E+00  0.74505805969E-08  0.10566000000E+00  0.10566000000E+00 0.  1.
     999900   -1    0    0    0    0 -0.00000000000E+00 -0.00000000000E+00 -0.74505805969E-08  0.93827000000E+00  0.93827000000E+00 0.  1.
     999902    2    1    2    0    0 -0.11582192058E-01  0.14172152906E-01 -0.15539588029E-01  0.10199200877E+01  0.10196374402E+01 0.  0.
     999903    2    3    3    0    0 -0.15640647338E-01 -0.12515062236E+00 -0.19517522101E-01  0.12894133898E+00  0.18374632044E-01 0.  0.
         14    1    1    2    0    0  0.11582192058E-01 -0.14172152906E-01  0.15539588029E-01  0.24009912265E-01  0.00000000000E+00 0.  1.
     999901    1    3    3    0    0  0.40584552803E-02  0.13932277527E+00  0.39779340722E-02  0.89097874875E+00  0.88000000000E+00 0.  1.
        -11    1    4    4    0    0 -0.41946219123E-03 -0.57099887851E-01 -0.15105167911E-01  0.59067760748E-01  0.51100000000E-03 0. -1.
         11    1    4    4    0    0 -0.15221185147E-01 -0.68050734512E-01 -0.44123541903E-02  0.69873578236E-01  0.51100000000E-03 0.  1.
</event>
<event>
 8    1  0.1086235E+005  0.1043930E+01  0.7957747E-01            NaN
         13   -1    0    0    0    0  0.00000000000E+00  0.00000000000E+00  0.74505805969E-08  0.10566000000E+00  0.10566000000E+00 0. -1.
     999900   -1    0    0    0    0 -0.00000000000E+00 -0.00000000000E+00 -0.74505805969E-08  0.93827000000E+00  0.93827000000E+00 0. -1.
     999902    2    1    2    0    0 -0.11919325564E-01 -0.20410463841E-01  0.37067432605E-02  0.10200051739E+01  0.10197245499E+01 0.  0.
     999903    2    3    3    0    0  0.12683160062E+00 -0.41550137152E-03 -0.95670190269E-02  0.12881057634E+00  0.20352129310E-01 0.  0.
         14    1    1    2    0    0  0.11919325564E-01  0.20410463841E-01 -0.37067432605E-02  0.23924826054E-01  0.00000000000E+00 0. -1.
     999901    1    3    3    0    0 -0.13875092618E+00 -0.19994962470E-01  0.13273762287E-01  0.89119459761E+00  0.88000000000E+00 0.  1.
        -11    1    4    4    0    0  0.21308495696E-01  0.54207118235E-02 -0.70483992749E-02  0.23094959598E-01  0.51100000000E-03 0.  1.
         11    1    4    4    0    0  0.10552310492E+00 -0.58362131950E-02 -0.25186197520E-02  0.10571561674E+00  0.51100000000E-03 0. -1.
</event>
<event>
 8    1  0.1086235E+005  0.1043930E+01  0.7957747E-01            NaN
         13   -1    0    0    0    0  0.00000000000E+00  0.00000000000E+00  0.74505805969E-08  0.10566000000E+00  0.10566000000E+00 0.  1.
     999900   -1    0    0    0    0 -0.00000000000E+00 -0.00000000000E+00 -0.74505805969E-08  0.93827000000E+00  0.93827000000E+00 0.  1.
     999902    2    1    2    0    0 -0.46249097352E-02  0.18909213495E-01  0.14070065349E-01  0.10199109475E+01  0.10196280821E+01 0.  0.
     999903    2    3    3    0    0  0.57562984591E-01  0.26068805602E-01  0.11423156035E+00  0.13201967089E+00  0.19679032023E-01 0.  0.
         14    1    1    2    0    0  0.46249097352E-02 -0.18909213495E-01 -0.14070065349E-01  0.24019052520E-01  0.00000000000E+00 0. -1.
     999901    1    3    3    0    0 -0.62187894326E-01 -0.71595921075E-02 -0.10016149500E+00  0.88789127659E+00  0.88000000000E+00 0.  1.
        -11    1    4    4    0    0  0.15560683469E-01  0.15304262925E-01  0.28057608926E-01  0.35550610028E-01  0.51100000000E-03 0. -1.
         11    1    4    4    0    0  0.42002301123E-01  0.10764542677E-01  0.86173951426E-01  0.96469060864E-01  0.51100000000E-03 0.  1.
</event>
<event>
 8    1  0.1086235E+005  0.1043930E+01  0.7957747E-01            NaN
         13   -1    0    0    0    0  0.00000000000E+00  0.00000000000E+00  0.74505805969E-08  0.10566000000E+00  0.10566000000E+00 0.  1.
     999900   -1    0    0    0    0 -0.00000000000E+00 -0.00000000000E+00 -0.74505805969E-08  0.93827000000E+00  0.93827000000E+00 0. -1.
     999902    2    1    2    0    0  0.11223393469E-01 -0.18097981357E-02 -0.20963290850E-01  0.10200825789E+01  0.10198037891E+01 0.  0.
     999903    2    3    3    0    0 -0.72863877204E-01 -0.43948542987E-01  0.93178056376E-01  0.12774038553E+00  0.19870502600E-01 0.  0.
         14    1    1    2    0    0 -0.11223393469E-01  0.18097981357E-02  0.20963290850E-01  0.23847421108E-01  0.00000000000E+00 0.  1.
     999901    1    3    3    0    0  0.84087270673E-01  0.42138744851E-01 -0.11414134723E+00  0.89234219336E+00  0.88000000000E+00 0. -1.
        -11    1    4    4    0    0 -0.33443333223E-01 -0.31725305332E-01  0.49895825280E-01  0.67932363693E-01  0.51100000000E-03 0.  1.
         11    1    4    4    0    0 -0.39420543981E-01 -0.12223237655E-01  0.43282231096E-01  0.59808021838E-01  0.51100000000E-03 0. -1.
</event>
<event>
 8    1  0.1086235E+005  0.1043930E+01  0.7957747E-01            NaN
         13   -1    0    0    0    0  0.00000000000E+00  0.00000000000E+00  0.74505805969E-08  0.10566000000E+00  0.10566000000E+00 0.  1.
     999900   -1    0    0    0    0 -0.00000000000E+00 -0.00000000000E+00 -0.74505805969E-08  0.93827000000E+00  0.93827000000E+00 0. -1.
     999902    2    1    2    0    0 -0.91269944581E-02 -0.72101815532E-02 -0.21239648996E-01  0.10197140665E+01  0.10194264888E+01 0.  0.
     999903    2    3    3    0    0 -0.20582999157E-01 -0.12461266208E+00 -0.31306246714E-01  0.13178618718E+00  0.20869658421E-01 0.  0.
         14    1    1    2    0    0  0.91269944581E-02  0.72101815532E-02  0.21239648996E-01  0.24215933501E-01  0.00000000000E+00 0.  1.
     999901    1    3    3    0    0  0.11456004699E-01  0.11740248053E+00  0.10066597718E-01  0.88792787932E+00  0.88000000000E+00 0.  1.
        -11    1    4    4    0    0 -0.16546829421E-02 -0.70689737880E-01 -0.20500293022E-01  0.73622687754E-01  0.51100000000E-03 0. -1.
         11    1    4    4    0    0 -0.18928316215E-01 -0.53922924204E-01 -0.10805953692E-01  0.58163499428E-01  0.51100000000E-03 0.  1.
</event>
<event>
 8    1  0.1086235E+005  0.1043930E+01  0.7957747E-01            NaN
         13   -1    0    0    0    0  0.00000000000E+00  0.00000000000E+00  0.74505805969E-08  0.10566000000E+00  0.10566000000E+00 0.  1.
     999900   -1    0    0    0    0 -0.00000000000E+00 -0.00000000000E+00 -0.74505805969E-08  0.93827000000E+00  0.93827000000E+00 0.  1.
     999902    2    1    2    0    0 -0.29004493628E-02  0.17143883622E-01 -0.17763895476E-01  0.10190727810E+01  0.10187695773E+01 0.  0.
     999903    2    3    3    0    0  0.83065012220E-01  0.97927189682E-01 -0.17611177156E-01  0.13120115380E+00  0.20348426577E-01 0.  0.
         14    1    1    2    0    0  0.29004493628E-02 -0.17143883622E-01  0.17763895476E-01  0.24857218964E-01  0.00000000000E+00 0.  1.
     999901    1    3    3    0    0 -0.85965461583E-01 -0.80783306061E-01 -0.15271831987E-03  0.88787162723E+00  0.88000000000E+00 0.  1.
        -11    1    4    4    0    0  0.84219023123E-01  0.96078209184E-01 -0.17103052178E-01  0.12890555322E+00  0.51100000000E-03 0.  1.
         11    1    4    4    0    0 -0.11540109031E-02  0.18489804988E-02 -0.50812497823E-03  0.22956005844E-02  0.51100000000E-03 0. -1.
</event>
<event>
 8    1  0.1086235E+005  0.1043930E+01  0.7957747E-01            NaN
         13   -1    0    0    0    0  0.00000000000E+00  0.00000000000E+00  0.74505805969E-08  0.10566000000E+00  0.10566000000E+00 0. -1.
     999900   -1    0    0    0    0 -0.00000000000E+00 -0.00000000000E+00 -0.74505805969E-08  0.93827000000E+00  0.93827000000E+00 0. -1.
     999902    2    1    2    0    0 -0.42232813668E-02  0.43917796215E-02  0.22842845785E-01  0.10202885229E+01  0.10200145835E+01 0.  0.
     999903    2    3    3    0    0 -0.85885011003E-01 -0.21922190866E-01  0.96579117480E-01  0.13304667266E+00  0.22739252537E-01 0.  0.
         14    1    1    2    0    0  0.42232813668E-02 -0.43917796215E-02 -0.22842845785E-01  0.23641477054E-01  0.00000000000E+00 0.  1.
     999901    1    3    3    0    0  0.81661729637E-01  0.26313970488E-01 -0.73736271695E-01  0.88724185028E+00  0.88000000000E+00 0. -1.
        -11    1    4    4    0    0 -0.25884392348E-01 -0.17655145985E-01  0.34347468390E-01  0.46494253977E-01  0.51100000000E-03 0.  1.
         11    1    4    4    0    0 -0.60000618655E-01 -0.42670448810E-02  0.62231649090E-01  0.86552418686E-01  0.51100000000E-03 0. -1.
</event>
<event>
 8    1  0.1086235E+005  0.1043930E+01  0.7957747E-01            NaN
         13   -1    0    0    0    0  0.00000000000E+00  0.00000000000E+00  0.74505805969E-08  0.10566000000E+00  0.10566000000E+00 0.  1.
     999900   -1    0    0    0    0 -0.00000000000E+00 -0.00000000000E+00 -0.74505805969E-08  0.93827000000E+00  0.93827000000E+00 0. -1.
     999902    2    1    2    0    0 -0.10923388611E-02  0.22483551093E-01 -0.82878125813E-02  0.10199426885E+01  0.10196605792E+01 0.  0.
     999903    2    3    3    0    0  0.12533187874E+00 -0.25519968661E-01  0.11559841924E-02  0.12956265394E+00  0.20634833821E-01 0.  0.
         14    1    1    2    0    0  0.10923388611E-02 -0.22483551093E-01  0.82878125813E-02  0.23987311465E-01  0.00000000000E+00 0.  1.
     999901    1    3    3    0    0 -0.12642421760E+00  0.48003519754E-01 -0.94437967737E-02  0.89038003459E+00  0.88000000000E+00 0.  1.
        -11    1    4    4    0    0  0.99439469066E-01 -0.25765466119E-01 -0.53351255424E-02  0.10286297652E+00  0.51100000000E-03 0. -1.
         11    1    4    4    0    0  0.25892409678E-01  0.24549745823E-03  0.64911097347E-02  0.26699677424E-01  0.51100000000E-03 0.  1.
</event>
<event>
 8    1  0.1086235E+005  0.1043930E+01  0.7957747E-01            NaN
         13   -1    0    0    0    0  0.00000000000E+00  0.00000000000E+00  0.74505805969E-08  0.10566000000E+00  0.10566000000E+00 0. -1.
     999900   -1    0    0    0    0 -0.00000000000E+00 -0.00000000000E+00 -0.74505805969E-08  0.93827000000E+00  0.93827000000E+00 0. -1.
     999902    2    1    2    0    0  0.18817843426E-01 -0.14032404838E-01 -0.20033491173E-02  0.10203708611E+01  0.10200988487E+01 0.  0.
     999903    2    3    3    0    0 -0.10411507149E+00 -0.24529350123E-01 -0.69623705027E-01  0.12919455985E+00  0.20053350451E-01 0.  0.
         14    1    1    2    0    0 -0.18817843426E-01  0.14032404838E-01  0.20033491173E-02  0.23559138873E-01  0.00000000000E+00 0. -1.
     999901    1    3    3    0    0  0.12293291491E+00  0.10496945285E-01  0.67620355909E-01  0.89117630128E+00  0.88000000000E+00 0.  1.
        -11    1    4    4    0    0 -0.65273232439E-01 -0.53141664307E-02 -0.41860076821E-01  0.77726201441E-01  0.51100000000E-03 0.  1.
         11    1    4    4    0    0 -0.38841839047E-01 -0.19215183692E-01 -0.27763628206E-01  0.51468358406E-01  0.51100000000E-03 0. -1.
</event>
<event>
 8    1  0.1086235E+005  0.1043930E+01  0.7957747E-01            NaN
         13   -1    0    0    0    0  0.00000000000E+00  0.00000000000E+00  0.74505805969E-08  0.10566000000E+00  0.10566000000E+00 0. -1.
     999900   -1    0    0    0    0 -0.00000000000E+00 -0.00000000000E+00 -0.74505805969E-08  0.93827000000E+00  0.93827000000E+00 0.  1.
     999902    2    1    2    0    0  0.13352239224E-01 -0.49559158623E-02 -0.18371000098E-01  0.10206848491E+01  0.10204201214E+01 0.  0.
     999903    2    3    3    0    0  0.88542992282E-01  0.33413139116E-01 -0.92147798524E-01  0.13357220143E+00  0.19849858292E-01 0.  0.
         14    1    1    2    0    0 -0.13352239224E-01  0.49559158623E-02  0.18371000098E-01  0.23245150869E-01  0.00000000000E+00 0. -1.
     999901    1    3    3    0    0 -0.75190753059E-01 -0.38369054978E-01  0.73776798426E-01  0.88711264770E+00  0.88000000000E+00 0. -1.
        -11    1    4    4    0    0  0.60852724553E-01  0.31087157311E-01 -0.71846754896E-01  0.99154842268E-01  0.51100000000E-03 0. -1.
         11    1    4    4    0    0  0.27690267730E-01  0.23259818049E-02 -0.20301043628E-01  0.34417359162E-01  0.51100000000E-03 0.  1.
</event>
<event>
 8    1  0.1086235E+005  0.1043930E+01  0.7957747E-01            NaN
         13   -1    0    0    0    0  0.00000000000E+00  0.00000000000E+00  0.74505805969E-08  0.10566000000E+00  0.10566000000E+00 0. -1.
     999900   -1    0    0    0    0 -0.00000000000E+00 -0.00000000000E+00 -0.74505805969E-08  0.93827000000E+00  0.93827000000E+00 0. -1.
     999902    2    1    2    0    0 -0.11541182973E-02  0.23631995827E-01  0.59566614279E-02  0.10195315363E+01  0.10192395540E+01 0.  0.
     999903    2    3    3    0    0  0.58215501447E-01  0.83381413160E-01  0.81480927809E-01  0.13228937125E+00  0.22799813156E-01 0.  0.
         14    1    1    2    0    0  0.11541182973E-02 -0.23631995827E-01 -0.59566614279E-02  0.24398463705E-01  0.00000000000E+00 0.  1.
     999901    1    3    3    0    0 -0.59369619744E-01 -0.59749417333E-01 -0.75524266381E-01  0.88724216504E+00  0.88000000000E+00 0. -1.
        -11    1    4    4    0    0  0.33234711796E-01  0.35819503033E-01  0.27242250764E-01  0.55946261836E-01  0.51100000000E-03 0. -1.
         11    1    4    4    0    0  0.24980789650E-01  0.47561910127E-01  0.54238677045E-01  0.76343109415E-01  0.51100000000E-03 0.  1.
</event>
<event>
 7    1  0.1086235E+005  0.1043930E+01  0.7957747E-01            NaN
         13   -1    0    0    0    0  0.00000000000E+00  0.00000000000E+00  0.74505805969E-08  0.10566000000E+00  0.10566000000E+00 0.  1.
     999900   -1    0    0    0    0 -0.00000000000E+00 -0.00000000000E+00 -0.74505805969E-08  0.93827000000E+00  0.93827000000E+00 0. -1.
     999903    2    1    2    0    0  0.70328735245E-01  0.59146794915E-01  0.21128382483E-01  0.96352133087E-01  0.19820460490E-01 0.  0.
         14    1    1    2    0    0  0.13531466411E-01 -0.51720291902E-01  0.31400537497E-01  0.62000668809E-01  0.00000000000E+00 0.  1.
     999901    1    1    2    0    0 -0.83860201656E-01 -0.74265030136E-02 -0.52528919980E-01  0.88557719810E+00  0.88000000000E+00 0. -1.
        -11    1    3    3    0    0  0.40330862898E-01  0.44470385909E-01  0.84577216242E-02  0.60629925788E-01  0.51100000000E-03 0.  1.
         11    1    3    3    0    0  0.29997872348E-01  0.14676409007E-01  0.12670660859E-01  0.35722207299E-01  0.51100000000E-03 0. -1.
</event>
<event>
 8    1  0.1086235E+005  0.1043930E+01  0.7957747E-01            NaN
         13   -1    0    0    0    0  0.00000000000E+00  0.00000000000E+00  0.74505805969E-08  0.10566000000E+00  0.10566000000E+00 0. -1.
     999900   -1    0    0    0    0 -0.00000000000E+00 -0.00000000000E+00 -0.74505805969E-08  0.93827000000E+00  0.93827000000E+00 0. -1.
     999902    2    1    2    0    0  0.63449697871E-02  0.22268640514E-01 -0.32906492141E-02  0.10205424100E+01  0.10202743902E+01 0.  0.
     999903    2    3    3    0    0  0.78325846654E-02 -0.35140668766E-01 -0.12374246726E+00  0.13048247820E+00  0.20427014705E-01 0.  0.
         14    1    1    2    0    0 -0.63449697871E-02 -0.22268640514E-01  0.32906492141E-02  0.23387589961E-01  0.00000000000E+00 0. -1.
     999901    1    3    3    0    0 -0.14876148784E-02  0.57409309280E-01  0.12045181805E+00  0.89005993184E+00  0.88000000000E+00 0.  1.
        -11    1    4    4    0    0  0.12775316665E-02 -0.14233479525E-01 -0.20855474634E-01  0.25287071198E-01  0.51100000000E-03 0. -1.
         11    1    4    4    0    0  0.65550529989E-02 -0.20907189241E-01 -0.10288699263E+00  0.10519540700E+00  0.51100000000E-03 0.  1.
</event>
<event>
 8    1  0.1086235E+005  0.1043930E+01  0.7957747E-01            NaN
         13   -1    0    0    0    0  0.00000000000E+00  0.00000000000E+00  0.74505805969E-08  0.10566000000E+00  0.10566000000E+00 0. -1.
     999900   -1    0    0    0    0 -0.00000000000E+00 -0.00000000000E+00 -0.74505805969E-08  0.93827000000E+00  0.93827000000E+00 0. -1.
     999902    2    1    2    0    0  0.32331340301E-04 -0.13215341905E-01 -0.18884548681E-01  0.10208806511E+01  0.10206204149E+01 0.  0.
     999903    2    3    3    0    0  0.84550898242E-01  0.57793577306E-01  0.73155330554E-01  0.12922096592E+00  0.29281456139E-01 0.  0.
         14    1    1    2    0    0 -0.32331340301E-04  0.13215341905E-01  0.18884548681E-01  0.23049348925E-01  0.00000000000E+00 0. -1.
     999901    1    3    3    0    0 -0.84518566902E-01 -0.71008919211E-01 -0.92039879236E-01  0.89165968515E+00  0.88000000000E+00 0. -1.
        -11    1    4    4    0    0  0.55392052994E-01  0.53385645774E-01  0.55263250811E-01  0.94723781178E-01  0.51100000000E-03 0.  1.
         11    1    4    4    0    0  0.29158845248E-01  0.44079315323E-02  0.17892079744E-01  0.34497184742E-01  0.51100000000E-03 0. -1.
</event>
<event>
 8    1  0.1086235E+005  0.1043930E+01  0.7957747E-01            NaN
         13   -1    0    0    0    0  0.00000000000E+00  0.00000000000E+00  0.74505805969E-08  0.10566000000E+00  0.10566000000E+00 0. -1.
     999900   -1    0    0    0    0 -0.00000000000E+00 -0.00000000000E+00 -0.74505805969E-08  0.93827000000E+00  0.93827000000E+00 0. -1.
     999902    2    1    2    0    0  0.60386457757E-02 -0.18325431002E-01 -0.14565775137E-01  0.10197546309E+01  0.10194680274E+01 0.  0.
     999903    2    3    3    0    0  0.26945054809E-01 -0.89370977532E-01 -0.92085770037E-01  0.13324806174E+00  0.23707579151E-01 0.  0.
         14    1    1    2    0    0 -0.60386457757E-02  0.18325431002E-01  0.14565775137E-01  0.24175369067E-01  0.00000000000E+00 0. -1.
     999901    1    3    3    0    0 -0.20906409033E-01  0.71045546531E-01  0.77519994900E-01  0.88650656920E+00  0.88000000000E+00 0.  1.
        -11    1    4    4    0    0  0.24581674587E-02 -0.35691947078E-01 -0.23654289332E-01  0.42892239371E-01  0.51100000000E-03 0. -1.
         11    1    4    4    0    0  0.24486887350E-01 -0.53679030454E-01 -0.68431480706E-01  0.90355822364E-01  0.51100000000E-03 0.  1.
</event>
<event>
 8    1  0.1086235E+005  0.1043930E+01  0.7957747E-01            NaN
         13   -1    0    0    0    0  0.00000000000E+00  0.00000000000E+00  0.74505805969E-08  0.10566000000E+00  0.10566000000E+00 0.  1.
     999900   -1    0    0    0    0 -0.00000000000E+00 -0.00000000000E+00 -0.74505805969E-08  0.93827000000E+00  0.93827000000E+00 0. -1.
     999902    2    1    2    0    0  0.15192941613E-01  0.12590889887E-02 -0.18366921718E-01  0.10200604673E+01  0.10197811541E+01 0.  0.
     999903    2    3    3    0    0  0.12240984816E+00 -0.38587211964E-01 -0.24741857326E-01  0.13263507177E+00  0.22511306168E-01 0.  0.
         14    1    1    2    0    0 -0.15192941613E-01 -0.12590889887E-02  0.18366921718E-01  0.23869532742E-01  0.00000000000E+00 0.  1.
     999901    1    3    3    0    0 -0.10721690655E+00  0.39846300953E-01  0.63749356081E-02  0.88742539549E+00  0.88000000000E+00 0.  1.
        -11    1    4    4    0    0  0.14211848545E-01  0.86321885489E-03  0.20472228638E-02  0.14393541201E-01  0.51100000000E-03 0. -1.
         11    1    4    4    0    0  0.10819799962E+00 -0.39450430819E-01 -0.26789080190E-01  0.11824153057E+00  0.51100000000E-03 0.  1.
</event>
<event>
 8    1  0.1086235E+005  0.1043930E+01  0.7957747E-01            NaN
         13   -1    0    0    0    0  0.00000000000E+00  0.00000000000E+00  0.74505805969E-08  0.10566000000E+00  0.10566000000E+00 0. -1.
     999900   -1    0    0    0    0 -0.00000000000E+00 -0.00000000000E+00 -0.74505805969E-08  0.93827000000E+00  0.93827000000E+00 0.  1.
     999902    2    1    2    0    0 -0.64425501246E-02  0.11385527754E-02  0.23206389679E-01  0.10198190217E+01  0.10195339610E+01 0.  0.
     999903    2    3    3    0    0 -0.26652958641E-01 -0.65654345751E-01 -0.10450879875E+00  0.12786559168E+00  0.20165495240E-01 0.  0.
         14    1    1    2    0    0  0.64425501246E-02 -0.11385527754E-02 -0.23206389679E-01  0.24110978339E-01  0.00000000000E+00 0.  1.
     999901    1    3    3    0    0  0.20210408516E-01  0.66792898526E-01  0.12771518843E+00  0.89195342998E+00  0.88000000000E+00 0. -1.
        -11    1    4    4    0    0 -0.20754465728E-01 -0.35770724370E-01 -0.45712935123E-01  0.61645974144E-01  0.51100000000E-03 0. -1.
         11    1    4    4    0    0 -0.58984929128E-02 -0.29883621380E-01 -0.58795863627E-01  0.66219617532E-01  0.51100000000E-03 0.  1.
</event>
<event>
 8    1  0.1086235E+005  0.1043930E+01  0.7957747E-01            NaN
         13   -1    0    0    0    0  0.00000000000E+00  0.00000000000E+00  0.74505805969E-08  0.10566000000E+00  0.10566000000E+00 0.  1.
     999900   -1    0    0    0    0 -0.00000000000E+00 -0.00000000000E+00 -0.74505805969E-08  0.93827000000E+00  0.93827000000E+00 0. -1.
     999902    2    1    2    0    0  0.19775652349E-01  0.38842023208E-02  0.11985444138E-01  0.10204818801E+01  0.10202124550E+01 0.  0.
     999903    2    3    3    0    0  0.70580156161E-01  0.98243872402E-01  0.52056485870E-01  0.13307524656E+00  0.19123980181E-01 0.  0.
         14    1    1    2    0    0 -0.19775652349E-01 -0.38842023208E-02 -0.11985444138E-01  0.23448119854E-01  0.00000000000E+00 0. -1.
     999901    1    3    3    0    0 -0.50804503812E-01 -0.94359670081E-01 -0.40071041732E-01  0.88740663359E+00  0.88000000000E+00 0.  1.
        -11    1    4    4    0    0  0.13981433189E-01  0.13880414914E-01  0.15618892773E-01  0.25146715982E-01  0.51100000000E-03 0.  1.
         11    1    4    4    0    0  0.56598722972E-01  0.84363457488E-01  0.36437593096E-01  0.10792853058E+00  0.51100000000E-03 0. -1.
</event>
<event>
 8    1  0.1086235E+005  0.1043930E+01  0.7957747E-01            NaN
         13   -1    0    0    0    0  0.00000000000E+00  0.00000000000E+00  0.74505805969E-08  0.10566000000E+00  0.10566000000E+00 0.  1.
     999900   -1    0    0    0    0 -0.00000000000E+00 -0.00000000000E+00 -0.74505805969E-08  0.93827000000E+00  0.93827000000E+00 0. -1.
     999902    2    1    2    0    0  0.18259989923E-01  0.93945583044E-02  0.11947071792E-01  0.10201725279E+01  0.10198958619E+01 0.  0.
     999903    2    3    3    0    0  0.97719399048E-01 -0.61975801830E-01  0.62147393738E-01  0.13229438402E+00  0.15793179894E-01 0.  0.
         14    1    1    2    0    0 -0.18259989923E-01 -0.93945583044E-02 -0.11947071792E-01  0.23757472132E-01  0.00000000000E+00 0. -1.
     999901    1    3    3    0    0 -0.79459409125E-01  0.71370360135E-01 -0.50200321946E-01  0.88787814385E+00  0.88000000000E+00 0. -1.
        -11    1    4    4    0    0  0.59105172829E-01 -0.32124813889E-01  0.28789542171E-01  0.73174612961E-01  0.51100000000E-03 0. -1.
         11    1    4    4    0    0  0.38614226219E-01 -0.29850987941E-01  0.33357851567E-01  0.59119771056E-01  0.51100000000E-03 0.  1.
</event>
<event>
 8    1  0.1086235E+005  0.1043930E+01  0.7957747E-01            NaN
         13   -1    0    0    0    0  0.00000000000E+00  0.00000000000E+00  0.74505805969E-08  0.10566000000E+00  0.10566000000E+00 0. -1.
     999900   -1    0    0    0    0 -0.00000000000E+00 -0.00000000000E+00 -0.74505805969E-08  0.93827000000E+00  0.93827000000E+00 0. -1.
     999902    2    1    2    0    0  0.16676953467E-01 -0.12229606654E-01  0.11320382813E-01  0.10203538442E+01  0.10200814341E+01 0.  0.
     999903    2    3    3    0    0 -0.24247634899E-01 -0.10924416480E+00  0.67622109571E-01  0.13229048448E+00  0.20144161435E-01 0.  0.
         14    1    1    2    0    0 -0.16676953467E-01  0.12229606654E-01 -0.11320382813E-01  0.23576155813E-01  0.00000000000E+00 0.  1.
     999901    1    3    3    0    0  0.40924588366E-01  0.97014558142E-01 -0.56301726759E-01  0.88806335971E+00  0.88000000000E+00 0. -1.
        -11    1    4    4    0    0 -0.16195948636E-01 -0.41028940453E-01  0.34660514667E-01  0.56100758506E-01  0.51100000000E-03 0.  1.
         11    1    4    4    0    0 -0.80516862622E-02 -0.68215224343E-01  0.32961594905E-01  0.76189725971E-01  0.51100000000E-03 0. -1.
</event>
<event>
 8    1  0.1086235E+005  0.1043930E+01  0.7957747E-01            NaN
         13   -1    0    0    0    0  0.00000000000E+00  0.00000000000E+00  0.74505805969E-08  0.10566000000E+00  0.10566000000E+00 0.  1.
     999900   -1    0    0    0    0 -0.00000000000E+00 -0.00000000000E+00 -0.74505805969E-08  0.93827000000E+00  0.93827000000E+00 0. -1.
     999902    2    1    2    0    0 -0.19954571921E-01 -0.10651816694E-01  0.40633105206E-02  0.10209483414E+01  0.10206896488E+01 0.  0.
     999903    2    3    3    0    0  0.53498402838E-01 -0.11297158714E+00  0.36211916300E-01  0.13139890052E+00  0.18157906464E-01 0.  0.
         14    1    1    2    0    0  0.19954571921E-01  0.10651816694E-01 -0.40633105206E-02  0.22981658596E-01  0.00000000000E+00 0.  1.
     999901    1    3    3    0    0 -0.73452974759E-01  0.10231977045E+00 -0.32148605780E-01  0.88954944089E+00  0.88000000000E+00 0. -1.
        -11    1    4    4    0    0  0.41492905028E-01 -0.81426723481E-01  0.34209787354E-01  0.97583518774E-01  0.51100000000E-03 0. -1.
         11    1    4    4    0    0  0.12005497810E-01 -0.31544863664E-01  0.20021289467E-02  0.33815381745E-01  0.51100000000E-03 0.  1.
</event>
<event>
 8    1  0.1086235E+005  0.1043930E+01  0.7957747E-01            NaN
         13   -1    0    0    0    0  0.00000000000E+00  0.00000000000E+00  0.74505805969E-08  0.10566000000E+00  0.10566000000E+00 0. -1.
     999900   -1    0    0    0    0 -0.00000000000E+00 -0.00000000000E+00 -0.74505805969E-08  0.93827000000E+00  0.93827000000E+00 0.  1.
     999902    2    1    2    0    0 -0.24401857320E-01 -0.21897158627E-02  0.36909200218E-02  0.10191536325E+01  0.10188524222E+01 0.  0.
     999903    2    3    3    0    0 -0.37291064384E-02  0.17816687099E-01 -0.12626973713E+00  0.12914386221E+00  0.20068633660E-01 0.  0.
         14    1    1    2    0    0  0.24401857320E-01  0.21897158627E-02 -0.36909200218E-02  0.24776367507E-01  0.00000000000E+00 0. -1.
     999901    1    3    3    0    0 -0.20672750882E-01 -0.20006402962E-01  0.12996065716E+00  0.89000977028E+00  0.88000000000E+00 0. -1.
        -11    1    4    4    0    0  0.16234349928E-02  0.80781442529E-02 -0.10322515407E+00  0.10355474644E+00  0.51100000000E-03 0. -1.
         11    1    4    4    0    0 -0.53525414312E-02  0.97385428459E-02 -0.23044583061E-01  0.25589115772E-01  0.51100000000E-03 0.  1.
</event>
<event>
 8    1  0.1086235E+005  0.1043930E+01  0.7957747E-01            NaN
         13   -1    0    0    0    0  0.00000000000E+00  0.00000000000E+00  0.74505805969E-08  0.10566000000E+00  0.10566000000E+00 0.  1.
     999900   -1    0    0    0    0 -0.00000000000E+00 -0.00000000000E+00 -0.74505805969E-08  0.93827000000E+00  0.93827000000E+00 0. -1.
     999902    2    1    2    0    0  0.10200343794E-01  0.15405352187E-01 -0.12238709598E-01  0.10217679175E+01  0.10215275421E+01 0.  0.
     999903    2    3    3    0    0  0.75635857186E-01  0.99165972122E-01  0.43326194140E-01  0.13363216974E+00  0.20633098934E-01 0.  0.
         14    1    1    2    0    0 -0.10200343794E-01 -0.15405352187E-01  0.12238709598E-01  0.22162082532E-01  0.00000000000E+00 0.  1.
     999901    1    3    3    0    0 -0.65435513392E-01 -0.83760619935E-01 -0.55564903738E-01  0.88813574773E+00  0.88000000000E+00 0. -1.
        -11    1    4    4    0    0  0.50499045093E-01  0.55390464813E-01  0.17699188179E-01  0.77018046786E-01  0.51100000000E-03 0.  1.
         11    1    4    4    0    0  0.25136812093E-01  0.43775507309E-01  0.25627005960E-01  0.56614122954E-01  0.51100000000E-03 0. -1.
</event>
<event>
 8    1  0.1086235E+005  0.1043930E+01  0.7957747E-01            NaN
         13   -1    0    0    0    0  0.00000000000E+00  0.00000000000E+00  0.74505805969E-08  0.10566000000E+00  0.10566000000E+00 0. -1.
     999900   -1    0    0    0    0 -0.00000000000E+00 -0.00000000000E+00 -0.74505805969E-08  0.93827000000E+00  0.93827000000E+00 0. -1.
     999902    2    1    2    0    0  0.18894444867E-01 -0.13634860147E-01 -0.24848277681E-02  0.10204974622E+01  0.10202283992E+01 0.  0.
     999903    2    3    3    0    0  0.16411267896E-01 -0.12477877881E+00 -0.37409600112E-01  0.13281571939E+00  0.20036561070E-01 0.  0.
         14    1    1    2    0    0 -0.18894444867E-01  0.13634860147E-01  0.24848277681E-02  0.23432537786E-01  0.00000000000E+00 0. -1.
     999901    1    3    3    0    0  0.24831769712E-02  0.11114391867E+00  0.34924772344E-01  0.88768174283E+00  0.88000000000E+00 0.  1.
        -11    1    4    4    0    0  0.80291013664E-02 -0.11107626767E+00 -0.32699211540E-01  0.11606852832E+00  0.51100000000E-03 0.  1.
         11    1    4    4    0    0  0.83821665293E-02 -0.13702511140E-01 -0.47103885720E-02  0.16747191071E-01  0.51100000000E-03 0. -1.
</event>
<event>
 8    1  0.1086235E+005  0.1043930E+01  0.7957747E-01            NaN
         13   -1    0    0    0    0  0.00000000000E+00  0.00000000000E+00  0.74505805969E-08  0.10566000000E+00  0.10566000000E+00 0. -1.
     999900   -1    0    0    0    0 -0.00000000000E+00 -0.00000000000E+00 -0.74505805969E-08  0.93827000000E+00  0.93827000000E+00 0.  1.
     999902    2    1    2    0    0 -0.22484828882E-01 -0.92849325563E-02 -0.10699981050E-02  0.10195800021E+01  0.10192891927E+01 0.  0.
     999903    2    3    3    0    0  0.43931556833E-01 -0.10298742864E+00  0.62585742763E-01  0.12983658547E+00  0.20104019152E-01 0.  0.
         14    1    1    2    0    0  0.22484828882E-01  0.92849325563E-02  0.10699981050E-02  0.24349997914E-01  0.00000000000E+00 0.  1.
     999901    1    3    3    0    0 -0.66416385715E-01  0.93702496084E-01 -0.63655740868E-01  0.88974341661E+00  0.88000000000E+00 0. -1.
        -11    1    4    4    0    0  0.18171454793E-01 -0.41232320553E-01  0.14148200924E-01  0.47230696986E-01  0.51100000000E-03 0.  1.
         11    1    4    4    0    0  0.25760102040E-01 -0.61755108087E-01  0.48437541839E-01  0.82605888485E-01  0.51100000000E-03 0. -1.
</event>
<event>
 8    1  0.1086235E+005  0.1043930E+01  0.7957747E-01            NaN
         13   -1    0    0    0    0  0.00000000000E+00  0.00000000000E+00  0.74505805969E-08  0.10566000000E+00  0.10566000000E+00 0.  1.
     999900   -1    0    0    0    0 -0.00000000000E+00 -0.00000000000E+00 -0.74505805969E-08  0.93827000000E+00  0.93827000000E+00 0. -1.
     999902    2    1    2    0    0 -0.20762896660E-02 -0.13383167314E-01 -0.21959994054E-01  0.10181295836E+01  0.10178026270E+01 0.  0.
     999903    2    3    3    0    0  0.50238186638E-01  0.50913995316E-02 -0.11923906277E+00  0.13103244618E+00  0.20043705158E-01 0.  0.
         14    1    1    2    0    0  0.20762896660E-02  0.13383167314E-01  0.21959994054E-01  0.25800416372E-01  0.00000000000E+00 0.  1.
     999901    1    3    3    0    0 -0.52314476304E-01 -0.18474566846E-01  0.97279068717E-01  0.88709713744E+00  0.88000000000E+00 0.  1.
        -11    1    4    4    0    0  0.38500366156E-01  0.61103799587E-02 -0.67345670345E-01  0.77815906938E-01  0.51100000000E-03 0. -1.
         11    1    4    4    0    0  0.11737820482E-01 -0.10189804271E-02 -0.51893392426E-01  0.53216539246E-01  0.51100000000E-03 0.  1.
</event>
<event>
 8    1  0.1086235E+005  0.1043930E+01  0.7957747E-01            NaN
         13   -1    0    0    0    0  0.00000000000E+00  0.00000000000E+00  0.74505805969E-08  0.10566000000E+00  0.10566000000E+00 0. -1.
     999900   -1    0    0    0    0 -0.00000000000E+00 -0.00000000000E+00 -0.74505805969E-08  0.93827000000E+00  0.93827000000E+00 0.  1.
     999902    2    1    2    0    0  0.12564075300E-01 -0.13240089982E-01  0.14292686007E-01  0.10207473159E+01  0.10204840253E+01 0.  0.
     999903    2    3    3    0    0 -0.11893114255E+00  0.29051236689E-01  0.37719954389E-01  0.12966461176E+00  0.20038102794E-01 0.  0.
         14    1    1    2    0    0 -0.12564075300E-01  0.13240089982E-01 -0.14292686007E-01  0.23182684145E-01  0.00000000000E+00 0.  1.
     999901    1    3    3    0    0  0.13149521785E+00 -0.42291326670E-01 -0.23427268382E-01  0.89108270409E+00  0.88000000000E+00 0.  1.
        -11    1    4    4    0    0 -0.63672458202E-01  0.11424837456E-01  0.29430259130E-01  0.71071162350E-01  0.51100000000E-03 0. -1.
         11    1    4    4    0    0 -0.55258684346E-01  0.17626399233E-01  0.82896952592E-02  0.58593449413E-01  0.51100000000E-03 0.  1.
</event>
<event>
 8    1  0.1086235E+005  0.1043930E+01  0.7957747E-01            NaN
         13   -1    0    0    0    0  0.00000000000E+00  0.00000000000E+00  0.74505805969E-08  0.10566000000E+00  0.10566000000E+00 0. -1.
     999900   -1    0    0    0    0 -0.00000000000E+00 -0.00000000000E+00 -0.74505805969E-08  0.93827000000E+00  0.93827000000E+00 0. -1.
     999902    2    1    2    0    0 -0.41262014828E-02 -0.12834129817E-02  0.22723664239E-01  0.10207991201E+01  0.10205370185E+01 0.  0.
     999903    2    3    3    0    0 -0.81742275597E-02  0.12146965756E+00 -0.40890907173E-01  0.12999526037E+00  0.20124754058E-01 0.  0.
         14    1    1    2    0    0  0.41262014828E-02  0.12834129817E-02 -0.22723664239E-01  0.23130879880E-01  0.00000000000E+00 0.  1.
     999901    1    3    3    0    0  0.40480260769E-02 -0.12275307054E+00  0.63614571412E-01  0.89080385975E+00  0.88000000000E+00 0.  1.
        -11    1    4    4    0    0 -0.10683175572E-01  0.11395073305E+00 -0.33775243594E-01  0.11933116946E+00  0.51100000000E-03 0. -1.
         11    1    4    4    0    0  0.25089480125E-02  0.75189245128E-02 -0.71156635785E-02  0.10664090919E-01  0.51100000000E-03 0.  1.
</event>
<event>
 8    1  0.1086235E+005  0.1043930E+01  0.7957747E-01            NaN
         13   -1    0    0    0    0  0.00000000000E+00  0.00000000000E+00  0.74505805969E-08  0.10566000000E+00  0.10566000000E+00 0. -1.
     999900   -1    0    0    0    0 -0.00000000000E+00 -0.00000000000E+00 -0.74505805969E-08  0.93827000000E+00  0.93827000000E+00 0.  1.
     999902    2    1    2    0    0 -0.63497942881E-02  0.27455386690E-03 -0.23619431407E-01  0.10194703842E+01  0.10191769186E+01 0.  0.
     999903    2    3    3    0    0 -0.56138795211E-01 -0.73938779025E-01 -0.91830526967E-01  0.13231802015E+00  0.21370666885E-01 0.  0.
         14    1    1    2    0    0  0.63497942881E-02 -0.27455386690E-03  0.23619431407E-01  0.24459615846E-01  0.00000000000E+00 0. -1.
     999901    1    3    3    0    0  0.49789000923E-01  0.74213332892E-01  0.68211095559E-01  0.88715236400E+00  0.88000000000E+00 0. -1.
        -11    1    4    4    0    0 -0.30676585347E-01 -0.55279494126E-01 -0.54907283247E-01  0.83737364623E-01  0.51100000000E-03 0.  1.
         11    1    4    4    0    0 -0.25462209864E-01 -0.18659284899E-01 -0.36923243719E-01  0.48580655532E-01  0.51100000000E-03 0. -1.
</event>
<event>
 8    1  0.1086235E+005  0.1043930E+01  0.7957747E-01            NaN
         13   -1    0    0    0    0  0.00000000000E+00  0.00000000000E+00  0.74505805969E-08  0.10566000000E+00  0.10566000000E+00 0. -1.
     999900   -1    0    0    0    0 -0.00000000000E+00 -0.00000000000E+00 -0.74505805969E-08  0.93827000000E+00  0.93827000000E+00 0. -1.
     999902    2    1    2    0    0 -0.45241791231E-02  0.69523450653E-02 -0.12535816274E-01  0.10288983671E+01  0.10287885593E+01 0.  0.
     999903    2    3    3    0    0 -0.17081207024E-01 -0.73750168475E-01  0.11163088153E+00  0.13643663485E+00  0.20558371411E-01 0.  0.
         14    1    1    2    0    0  0.45241791231E-02 -0.69523450653E-02  0.12535816274E-01  0.15031632922E-01  0.00000000000E+00 0. -1.
     999901    1    3    3    0    0  0.12557027901E-01  0.80702513540E-01 -0.12416669781E+00  0.89246173222E+00  0.88000000000E+00 0. -1.
        -11    1    4    4    0    0  0.65445021675E-03 -0.26912841104E-01  0.27235689808E-01  0.38298475710E-01  0.51100000000E-03 0.  1.
         11    1    4    4    0    0 -0.17735657240E-01 -0.46837327371E-01  0.84395191724E-01  0.98138159144E-01  0.51100000000E-03 0. -1.
</event>
<event>
 8    1  0.1086235E+005  0.1043930E+01  0.7957747E-01            NaN
         13   -1    0    0    0    0  0.00000000000E+00  0.00000000000E+00  0.74505805969E-08  0.10566000000E+00  0.10566000000E+00 0. -1.
     999900   -1    0    0    0    0 -0.00000000000E+00 -0.00000000000E+00 -0.74505805969E-08  0.93827000000E+00  0.93827000000E+00 0.  1.
     999902    2    1    2    0    0 -0.12200884319E-01 -0.19932159247E-01 -0.29330890020E-02  0.10203767505E+01  0.10201048757E+01 0.  0.
     999903    2    3    3    0    0 -0.13299294532E-01  0.20565854947E-01  0.12615264581E+00  0.13003725201E+00  0.19883944325E-01 0.  0.
         14    1    1    2    0    0  0.12200884319E-01  0.19932159247E-01  0.29330890020E-02  0.23553249489E-01  0.00000000000E+00 0. -1.
     999901    1    3    3    0    0  0.10984102136E-02 -0.40498014194E-01 -0.12908573481E+00  0.89033949850E+00  0.88000000000E+00 0.  1.
        -11    1    4    4    0    0  0.18758648958E-02  0.13242766707E-01  0.74811540010E-01  0.75999456438E-01  0.51100000000E-03 0. -1.
         11    1    4    4    0    0 -0.15175159428E-01  0.73230882399E-02  0.51341105795E-01  0.54037795573E-01  0.51100000000E-03 0.  1.
</event>
<event>
 8    1  0.1086235E+005  0.1043930E+01  0.7957747E-01            NaN
         13   -1    0    0    0    0  0.00000000000E+00  0.00000000000E+00  0.74505805969E-08  0.10566000000E+00  0.10566000000E+00 0. -1.
     999900   -1    0    0    0    0 -0.00000000000E+00 -0.00000000000E+00 -0.74505805969E-08  0.93827000000E+00  0.93827000000E+00 0.  1.
     999902    2    1    2    0    0  0.87409747890E-02  0.17523934483E-01  0.12547398886E-01  0.10206720951E+01  0.10204070735E+01 0.  0.
     999903    2    3    3    0    0 -0.57102636437E-01  0.53956085199E-01  0.10517657613E+00  0.13261643966E+00  0.18789297023E-01 0.  0.
         14    1    1    2    0    0 -0.87409747890E-02 -0.17523934483E-01 -0.12547398886E-01  0.23257904867E-01  0.00000000000E+00 0.  1.
     999901    1    3    3    0    0  0.65843611226E-01 -0.36432150716E-01 -0.92629177245E-01  0.88805565548E+00  0.88000000000E+00 0.  1.
        -11    1    4    4    0    0 -0.34602730345E-01  0.37364118991E-01  0.53525074773E-01  0.73882481589E-01  0.51100000000E-03 0. -1.
         11    1    4    4    0    0 -0.22499906092E-01  0.16591966208E-01  0.51651501358E-01  0.58733958068E-01  0.51100000000E-03 0.  1.
</event>
<event>
 8    1  0.1086235E+005  0.1043930E+01  0.7957747E-01            NaN
         13   -1    0    0    0    0  0.00000000000E+00  0.00000000000E+00  0.74505805969E-08  0.10566000000E+00  0.10566000000E+00 0.  1.
     999900   -1    0    0    0    0 -0.00000000000E+00 -0.00000000000E+00 -0.74505805969E-08  0.93827000000E+00  0.93827000000E+00 0. -1.
     999902    2    1    2    0    0  0.98678169085E-02  0.16516891071E-01  0.12361003148E-01  0.10210613337E+01  0.10208052073E+01 0.  0.
     999903    2    3    3    0    0  0.70784938881E-02 -0.11600974185E+00 -0.50361899565E-01  0.12892611337E+00  0.24026162842E-01 0.  0.
         14    1    1    2    0    0 -0.98678169085E-02 -0.16516891071E-01 -0.12361003148E-01  0.22868666337E-01  0.00000000000E+00 0. -1.
     999901    1    3    3    0    0  0.27893230204E-02  0.13252663293E+00  0.62722902713E-01  0.89213522029E+00  0.88000000000E+00 0.  1.
        -11    1    4    4    0    0  0.76915182172E-02 -0.22223331976E-01 -0.25715377163E-02  0.23662414581E-01  0.51100000000E-03 0.  1.
         11    1    4    4    0    0 -0.61302432909E-03 -0.93786409878E-01 -0.47790361849E-01  0.10526369879E+00  0.51100000000E-03 0. -1.
</event>
<event>
 8    1  0.1086235E+005  0.1043930E+01  0.7957747E-01            NaN
         13   -1    0    0    0    0  0.00000000000E+00  0.00000000000E+00  0.74505805969E-08  0.10566000000E+00  0.10566000000E+00 0. -1.
     999900   -1    0    0    0    0 -0.00000000000E+00 -0.00000000000E+00 -0.74505805969E-08  0.93827000000E+00  0.93827000000E+00 0.  1.
     999902    2    1    2    0    0  0.22278252220E-01 -0.87497265138E-02  0.62571833075E-02  0.10191907482E+01  0.10188904508E+01 0.  0.
     999903    2    3    3    0    0  0.62097870887E-01 -0.79628201984E-01  0.82783763228E-01  0.13213625285E+00  0.20249487454E-01 0.  0.
         14    1    1    2    0    0 -0.22278252220E-01  0.87497265138E-02 -0.62571833075E-02  0.24739251787E-01  0.00000000000E+00 0.  1.
     999901    1    3    3    0    0 -0.39819618667E-01  0.70878475470E-01 -0.76526579920E-01  0.88705449537E+00  0.88000000000E+00 0.  1.
        -11    1    4    4    0    0  0.41966271279E-01 -0.57440721580E-01  0.46101456020E-01  0.84771515198E-01  0.51100000000E-03 0.  1.
         11    1    4    4    0    0  0.20131599608E-01 -0.22187480404E-01  0.36682307207E-01  0.47364737648E-01  0.51100000000E-03 0. -1.
</event>
<event>
 8    1  0.1086235E+005  0.1043930E+01  0.7957747E-01            NaN
         13   -1    0    0    0    0  0.00000000000E+00  0.00000000000E+00  0.74505805969E-08  0.10566000000E+00  0.10566000000E+00 0.  1.
     999900   -1    0    0    0    0 -0.00000000000E+00 -0.00000000000E+00 -0.74505805969E-08  0.93827000000E+00  0.93827000000E+00 0. -1.
     999902    2    1    2    0    0 -0.13913051155E-01  0.19523474057E-02  0.19175732454E-01  0.10201583074E+01  0.10198813062E+01 0.  0.
     999903    2    3    3    0    0 -0.58019993794E-01  0.11621340991E+00 -0.12062711339E-02  0.13144213290E+00  0.20092358965E-01 0.  0.
         14    1    1    2    0    0  0.13913051155E-01 -0.19523474057E-02 -0.19175732454E-01  0.23771692577E-01  0.00000000000E+00 0. -1.
     999901    1    3    3    0    0  0.44106942639E-01 -0.11426106250E+00  0.20382003588E-01  0.88871617453E+00  0.88000000000E+00 0.  1.
        -11    1    4    4    0    0 -0.39204722422E-01  0.77660606572E-01 -0.10245683417E-01  0.87598032072E-01  0.51100000000E-03 0. -1.
         11    1    4    4    0    0 -0.18815271372E-01  0.38552803335E-01  0.90394122834E-02  0.43844100825E-01  0.51100000000E-03 0.  1.
</event>
<event>
 8    1  0.1086235E+005  0.1043930E+01  0.7957747E-01            NaN
         13   -1    0    0    0    0  0.00000000000E+00  0.00000000000E+00  0.74505805969E-08  0.10566000000E+00  0.10566000000E+00 0. -1.
     999900   -1    0    0    0    0 -0.00000000000E+00 -0.00000000000E+00 -0.74505805969E-08  0.93827000000E+00  0.93827000000E+00 0. -1.
     999902    2    1    2    0    0 -0.15092648185E-01 -0.16737748545E-01  0.69460924954E-02  0.10203463519E+01  0.10200737667E+01 0.  0.
     999903    2    3    3    0    0 -0.12510736840E+00  0.34578195341E-01 -0.12533387521E-01  0.13179921479E+00  0.19142674771E-01 0.  0.
         14    1    1    2    0    0  0.15092648185E-01  0.16737748545E-01 -0.69460924954E-02  0.23583648075E-01  0.00000000000E+00 0.  1.
     999901    1    3    3    0    0  0.11001472021E+00 -0.51315943886E-01  0.19479480016E-01  0.88854713713E+00  0.88000000000E+00 0. -1.
        -11    1    4    4    0    0 -0.85189235285E-01  0.21100586438E-01 -0.17106720020E-01  0.89416673766E-01  0.51100000000E-03 0.  1.
         11    1    4    4    0    0 -0.39918133112E-01  0.13477608903E-01  0.45733324994E-02  0.42382541029E-01  0.51100000000E-03 0. -1.
</event>
<event>
 8    1  0.1086235E+005  0.1043930E+01  0.7957747E-01            NaN
         13   -1    0    0    0    0  0.00000000000E+00  0.00000000000E+00  0.74505805969E-08  0.10566000000E+00  0.10566000000E+00 0. -1.
     999900   -1    0    0    0    0 -0.00000000000E+00 -0.00000000000E+00 -0.74505805969E-08  0.93827000000E+00  0.93827000000E+00 0. -1.
     999902    2    1    2    0    0  0.63342131983E-02 -0.15920892905E-01  0.13210420325E-01  0.10222940971E+01  0.10220651196E+01 0.  0.
     999903    2    3    3    0    0  0.91785812162E-01  0.81897086710E-01  0.43543419501E-01  0.13224329873E+00  0.21459090167E-01 0.  0.
         14    1    1    2    0    0 -0.63342131983E-02  0.15920892905E-01 -0.13210420325E-01  0.21635902868E-01  0.00000000000E+00 0.  1.
     999901    1    3    3    0    0 -0.85451598964E-01 -0.97817979615E-01 -0.30332999175E-01  0.89005079840E+00  0.88000000000E+00 0. -1.
        -11    1    4    4    0    0  0.51587248200E-01  0.50603466969E-01  0.36021922950E-01  0.80745248159E-01  0.51100000000E-03 0.  1.
         11    1    4    4    0    0  0.40198563962E-01  0.31293619741E-01  0.75214965507E-02  0.51498050569E-01  0.51100000000E-03 0. -1.
</event>
<event>
 8    1  0.1086235E+005  0.1043930E+01  0.7957747E-01            NaN
         13   -1    0    0    0    0  0.00000000000E+00  0.00000000000E+00  0.74505805969E-08  0.10566000000E+00  0.10566000000E+00 0. -1.
     999900   -1    0    0    0    0 -0.00000000000E+00 -0.00000000000E+00 -0.74505805969E-08  0.93827000000E+00  0.93827000000E+00 0. -1.
     999902    2    1    2    0    0  0.17618053660E-01  0.10335661649E-01 -0.12967304584E-01  0.10197355233E+01  0.10194484610E+01 0.  0.
     999903    2    3    3    0    0 -0.58410808985E-01 -0.99770848237E-01 -0.53884963851E-01  0.12868104327E+00  0.17005199303E-01 0.  0.
         14    1    1    2    0    0 -0.17618053660E-01 -0.10335661649E-01  0.12967304584E-01  0.24194476739E-01  0.00000000000E+00 0. -1.
     999901    1    3    3    0    0  0.76028862645E-01  0.11010650989E+00  0.40917659267E-01  0.89105447999E+00  0.88000000000E+00 0.  1.
        -11    1    4    4    0    0 -0.46146246171E-01 -0.67259781299E-01 -0.43320114658E-01  0.92359339923E-01  0.51100000000E-03 0. -1.
         11    1    4    4    0    0 -0.12264562814E-01 -0.32511066938E-01 -0.10564849193E-01  0.36321703346E-01  0.51100000000E-03 0.  1.
</event>
<event>
 8    1  0.1086235E+005  0.1043930E+01  0.7957747E-01            NaN
         13   -1    0    0    0    0  0.00000000000E+00  0.00000000000E+00  0.74505805969E-08  0.10566000000E+00  0.10566000000E+00 0.  1.
     999900   -1    0    0    0    0 -0.00000000000E+00 -0.00000000000E+00 -0.74505805969E-08  0.93827000000E+00  0.93827000000E+00 0.  1.
     999902    2    1    2    0    0 -0.11531096093E-01  0.15171984651E-01 -0.14544690224E-01  0.10199570296E+01  0.10196752615E+01 0.  0.
     999903    2    3    3    0    0 -0.91480867870E-01 -0.39240306859E-01 -0.84952396632E-01  0.13186361753E+00  0.16203489280E-01 0.  0.
         14    1    1    2    0    0  0.11531096093E-01 -0.15171984651E-01  0.14544690224E-01  0.23972970385E-01  0.00000000000E+00 0.  1.
     999901    1    3    3    0    0  0.79949771777E-01  0.54412291510E-01  0.70407706408E-01  0.88809341209E+00  0.88000000000E+00 0.  1.
        -11    1    4    4    0    0 -0.40989407013E-01 -0.22560026138E-01 -0.31118536981E-01  0.56193511471E-01  0.51100000000E-03 0.  1.
         11    1    4    4    0    0 -0.50491460857E-01 -0.16680280721E-01 -0.53833859651E-01  0.75670106055E-01  0.51100000000E-03 0. -1.
</event>
<event>
 8    1  0.1086235E+005  0.1043930E+01  0.7957747E-01            NaN
         13   -1    0    0    0    0  0.00000000000E+00  0.00000000000E+00  0.74505805969E-08  0.10566000000E+00  0.10566000000E+00 0.  1.
     999900   -1    0    0    0    0 -0.00000000000E+00 -0.00000000000E+00 -0.74505805969E-08  0.93827000000E+00  0.93827000000E+00 0.  1.
     999902    2    1    2    0    0  0.16726529156E-01  0.15044591174E-01 -0.51425392018E-02  0.10208526906E+01  0.10205918154E+01 0.  0.
     999903    2    3    3    0    0  0.16914193841E-01 -0.12895070177E-01 -0.12842492734E+00  0.13181995376E+00  0.20764524049E-01 0.  0.
         14    1    1    2    0    0 -0.16726529156E-01 -0.15044591174E-01  0.51425392018E-02  0.23077309433E-01  0.00000000000E+00 0.  1.
     999901    1    3    3    0    0 -0.18766468477E-03  0.27939661350E-01  0.12328238814E+00  0.88903273681E+00  0.88000000000E+00 0. -1.
        -11    1    4    4    0    0  0.12270101687E-01 -0.77904573380E-02 -0.12017623793E+00  0.12105302930E+00  0.51100000000E-03 0. -1.
         11    1    4    4    0    0  0.46440921540E-02 -0.51046128386E-02 -0.82486894123E-02  0.10766924454E-01  0.51100000000E-03 0.  1.
</event>
<event>
 8    1  0.1086235E+005  0.1043930E+01  0.7957747E-01            NaN
         13   -1    0    0    0    0  0.00000000000E+00  0.00000000000E+00  0.74505805969E-08  0.10566000000E+00  0.10566000000E+00 0. -1.
     999900   -1    0    0    0    0 -0.00000000000E+00 -0.00000000000E+00 -0.74505805969E-08  0.93827000000E+00  0.93827000000E+00 0.  1.
     999902    2    1    2    0    0 -0.86732606048E-02  0.16004466034E-01 -0.18521190855E-01  0.10179607318E+01  0.10176294259E+01 0.  0.
     999903    2    3    3    0    0  0.10937861840E+00  0.38754467509E-01  0.49362476104E-01  0.12719589133E+00  0.16629786777E-01 0.  0.
         14    1    1    2    0    0  0.86732606048E-02 -0.16004466034E-01  0.18521190855E-01  0.25969268246E-01  0.00000000000E+00 0. -1.
     999901    1    3    3    0    0 -0.11805187900E+00 -0.22750001475E-01 -0.67883666959E-01  0.89076484043E+00  0.88000000000E+00 0.  1.
        -11    1    4    4    0    0  0.80446451560E-02  0.15613290606E-02  0.83822218288E-02  0.11733576944E-01  0.51100000000E-03 0.  1.
         11    1    4    4    0    0  0.10133397324E+00  0.37193138449E-01  0.40980254275E-01  0.11546231438E+00  0.51100000000E-03 0. -1.
</event>
<event>
 8    1  0.1086235E+005  0.1043930E+01  0.7957747E-01            NaN
         13   -1    0    0    0    0  0.00000000000E+00  0.00000000000E+00  0.74505805969E-08  0.10566000000E+00  0.10566000000E+00 0.  1.
     999900   -1    0    0    0    0 -0.00000000000E+00 -0.00000000000E+00 -0.74505805969E-08  0.93827000000E+00  0.93827000000E+00 0.  1.
     999902    2    1    2    0    0  0.64297199535E-02 -0.19455470829E-01  0.12808972066E-01  0.10197654307E+01  0.10194790862E+01 0.  0.
     999903    2    3    3    0    0  0.78974508314E-02  0.53765887982E-01 -0.11396016174E+00  0.12767018080E+00  0.18963548249E-01 0.  0.
         14    1    1    2    0    0 -0.64297199535E-02  0.19455470829E-01 -0.12808972066E-01  0.24164569296E-01  0.00000000000E+00 0. -1.
     999901    1    3    3    0    0 -0.14677308779E-02 -0.73221358811E-01  0.12676913380E+00  0.89209524991E+00  0.88000000000E+00 0. -1.
        -11    1    4    4    0    0 -0.47658149178E-02  0.31257623149E-01 -0.66493420493E-01  0.73630075965E-01  0.51100000000E-03 0.  1.
         11    1    4    4    0    0  0.12663265749E-01  0.22508264833E-01 -0.47466741243E-01  0.54040104834E-01  0.51100000000E-03 0. -1.
</event>
<event>
 8    1  0.1086235E+005  0.1043930E+01  0.7957747E-01            NaN
         13   -1    0    0    0    0  0.00000000000E+00  0.00000000000E+00  0.74505805969E-08  0.10566000000E+00  0.10566000000E+00 0.  1.
     999900   -1    0    0    0    0 -0.00000000000E+00 -0.00000000000E+00 -0.74505805969E-08  0.93827000000E+00  0.93827000000E+00 0. -1.
     999902    2    1    2    0    0  0.95602655999E-02 -0.17112169713E-01  0.90103438246E-02  0.10223566061E+01  0.10221289638E+01 0.  0.
     999903    2    3    3    0    0  0.20498067362E-01 -0.71738014139E-01  0.11050089578E+00  0.13477339839E+00  0.19669964606E-01 0.  0.
         14    1    1    2    0    0 -0.95602655999E-02  0.17112169713E-01 -0.90103438246E-02  0.21573393949E-01  0.00000000000E+00 0.  1.
     999901    1    3    3    0    0 -0.10937801762E-01  0.54625844426E-01 -0.10149055195E+00  0.88758320766E+00  0.88000000000E+00 0. -1.
        -11    1    4    4    0    0  0.12050296347E-01 -0.35228795859E-01  0.38254500887E-01  0.53384882306E-01  0.51100000000E-03 0.  1.
         11    1    4    4    0    0  0.84477710153E-02 -0.36509218280E-01  0.72246394892E-01  0.81388516084E-01  0.51100000000E-03 0. -1.
</event>
<event>
 8    1  0.1086235E+005  0.1043930E+01  0.7957747E-01            NaN
         13   -1    0    0    0    0  0.00000000000E+00  0.00000000000E+00  0.74505805969E-08  0.10566000000E+00  0.10566000000E+00 0.  1.
     999900   -1    0    0    0    0 -0.00000000000E+00 -0.00000000000E+00 -0.74505805969E-08  0.93827000000E+00  0.93827000000E+00 0.  1.
     999902    2    1    2    0    0 -0.52311244136E-02  0.18011936810E-01  0.27369121511E-01  0.10107507393E+01  0.10102060154E+01 0.  0.
     999903    2    3    3    0    0 -0.70058576226E-01  0.77359729010E-02 -0.95008534804E-01  0.11986102404E+00  0.19287146450E-01 0.  0.
         14    1    1    2    0    0  0.52311244136E-02 -0.18011936810E-01 -0.27369121511E-01  0.33179260730E-01  0.00000000000E+00 0. -1.
     999901    1    3    3    0    0  0.64827451812E-01  0.10275963909E-01  0.12237765632E+00  0.89088971523E+00  0.88000000000E+00 0. -1.
        -11    1    4    4    0    0 -0.54119361420E-01 -0.32884125050E-03 -0.61799669962E-01  0.82149094612E-01  0.51100000000E-03 0.  1.
         11    1    4    4    0    0 -0.15939214805E-01  0.80648141515E-02 -0.33208864842E-01  0.37711929425E-01  0.51100000000E-03 0. -1.
</event>
<event>
 7    1  0.1086235E+005  0.1043930E+01  0.7957747E-01            NaN
         13   -1    0    0    0    0  0.00000000000E+00  0.00000000000E+00  0.74505805969E-08  0.10566000000E+00  0.10566000000E+00 0.  1.
     999900   -1    0    0    0    0 -0.00000000000E+00 -0.00000000000E+00 -0.74505805969E-08  0.93827000000E+00  0.93827000000E+00 0. -1.
     999903    2    1    2    0    0  0.57629159165E-01  0.18050563601E-01 -0.85429515386E-02  0.65188815685E-01  0.23014274637E-01 0.  0.
         14    1    1    2    0    0  0.22104915317E-01  0.69372723624E-01 -0.50896174343E-01  0.88834805268E-01  0.00000000000E+00 0. -1.
     999901    1    1    2    0    0 -0.79734074482E-01 -0.87423287225E-01  0.59439125882E-01  0.88990637905E+00  0.88000000000E+00 0. -1.
        -11    1    3    3    0    0  0.18421050016E-01 -0.41675620357E-03 -0.11532536104E-01  0.21743258252E-01  0.51100000000E-03 0.  1.
         11    1    3    3    0    0  0.39208109149E-01  0.18467319804E-01  0.29895845656E-02  0.43445557433E-01  0.51100000000E-03 0. -1.
</event>
<event>
 7    1  0.1086235E+005  0.1043930E+01  0.7957747E-01            NaN
         13   -1    0    0    0    0  0.00000000000E+00  0.00000000000E+00  0.74505805969E-08  0.10566000000E+00  0.10566000000E+00 0.  1.
     999900   -1    0    0    0    0 -0.00000000000E+00 -0.00000000000E+00 -0.74505805969E-08  0.93827000000E+00  0.93827000000E+00 0.  1.
     999902    2    1    2    0    0  0.68712509861E-02  0.11879990876E-02  0.22452706801E-01  0.10204193753E+01  0.10201484951E+01 0.  0.
         14    1    1    2    0    0 -0.68712509861E-02 -0.11879990876E-02 -0.22452706801E-01  0.23510624718E-01  0.00000000000E+00 0. -1.
     999901    1    3    3    0    0  0.70318309103E-01  0.28337494609E-01  0.11850711889E+00  0.89117429015E+00  0.88000000000E+00 0. -1.
        -11    1    3    3    0    0 -0.45776526202E-01  0.64477195685E-02 -0.37826546001E-01  0.59734179011E-01  0.51100000000E-03 0.  1.
         11    1    3    3    0    0 -0.17670531915E-01 -0.33597215090E-01 -0.58227866086E-01  0.69510906122E-01  0.51100000000E-03 0. -1.
</event>
<event>
 8    1  0.1086235E+005  0.1043930E+01  0.7957747E-01            NaN
         13   -1    0    0    0    0  0.00000000000E+00  0.00000000000E+00  0.74505805969E-08  0.10566000000E+00  0.10566000000E+00 0. -1.
     999900   -1    0    0    0    0 -0.00000000000E+00 -0.00000000000E+00 -0.74505805969E-08  0.93827000000E+00  0.93827000000E+00 0.  1.
     999902    2    1    2    0    0 -0.56663529558E-02  0.18210036386E-01 -0.12967667697E-01  0.10208676197E+01  0.10206070858E+01 0.  0.
     999903    2    3    3    0    0 -0.98860905282E-01 -0.82365933758E-01  0.24892036522E-02  0.13011531671E+00  0.19135670121E-01 0.  0.
         14    1    1    2    0    0  0.56663529558E-02 -0.18210036386E-01  0.12967667697E-01  0.23062380330E-01  0.00000000000E+00 0. -1.
     999901    1    3    3    0    0  0.93194552326E-01  0.10057597014E+00 -0.15456871349E-01  0.89075230296E+00  0.88000000000E+00 0.  1.
        -11    1    4    4    0    0 -0.42020919636E-01 -0.47332034476E-01 -0.49505138754E-04  0.63295677154E-01  0.51100000000E-03 0.  1.
         11    1    4    4    0    0 -0.56839985646E-01 -0.35033899282E-01  0.25387087909E-02  0.66819639557E-01  0.51100000000E-03 0. -1.
</event>
<event>
 8    1  0.1086235E+005  0.1043930E+01  0.7957747E-01            NaN
         13   -1    0    0    0    0  0.00000000000E+00  0.00000000000E+00  0.74505805969E-08  0.10566000000E+00  0.10566000000E+00 0.  1.
     999900   -1    0    0    0    0 -0.00000000000E+00 -0.00000000000E+00 -0.74505805969E-08  0.93827000000E+00  0.93827000000E+00 0.  1.
     999902    2    1    2    0    0 -0.61893213120E-02 -0.16898216214E-01  0.16232776902E-01  0.10196944795E+01  0.10194064307E+01 0.  0.
     999903    2    3    3    0    0  0.11944372345E+00 -0.25408312224E-01  0.42035188117E-01  0.13035660886E+00  0.17706016869E-01 0.  0.
         14    1    1    2    0    0  0.61893213120E-02  0.16898216214E-01 -0.16232776902E-01  0.24235520533E-01  0.00000000000E+00 0. -1.
     999901    1    3    3    0    0 -0.12563304476E+00  0.85100960096E-02 -0.25802411214E-01  0.88933787061E+00  0.88000000000E+00 0.  1.
        -11    1    4    4    0    0  0.29504005109E-01 -0.98715851504E-02  0.18099615704E-01  0.35997107112E-01  0.51100000000E-03 0. -1.
         11    1    4    4    0    0  0.89939718337E-01 -0.15536727074E-01  0.23935572412E-01  0.94359501749E-01  0.51100000000E-03 0.  1.
</event>
<event>
 8    1  0.1086235E+005  0.1043930E+01  0.7957747E-01            NaN
         13   -1    0    0    0    0  0.00000000000E+00  0.00000000000E+00  0.74505805969E-08  0.10566000000E+00  0.10566000000E+00 0. -1.
     999900   -1    0    0    0    0 -0.00000000000E+00 -0.00000000000E+00 -0.74505805969E-08  0.93827000000E+00  0.93827000000E+00 0.  1.
     999902    2    1    2    0    0 -0.92122703568E-02  0.70142342984E-02 -0.20214891084E-01  0.10206339224E+01  0.10203680201E+01 0.  0.
     999903    2    3    3    0    0  0.18135913145E-01  0.12202430353E+00  0.38512541681E-01  0.13078890755E+00  0.20091801186E-01 0.  0.
         14    1    1    2    0    0  0.92122703568E-02 -0.70142342984E-02  0.20214891084E-01  0.23296077556E-01  0.00000000000E+00 0. -1.
     999901    1    3    3    0    0 -0.27348183501E-01 -0.11501006923E+00 -0.58727432765E-01  0.88984501489E+00  0.88000000000E+00 0.  1.
        -11    1    4    4    0    0  0.17818357053E-01  0.83445507512E-01  0.18446138759E-01  0.87299299700E-01  0.51100000000E-03 0.  1.
         11    1    4    4    0    0  0.31755609142E-03  0.38578796019E-01  0.20066402922E-01  0.43489607855E-01  0.51100000000E-03 0. -1.
</event>
<event>
 8    1  0.1086235E+005  0.1043930E+01  0.7957747E-01            NaN
         13   -1    0    0    0    0  0.00000000000E+00  0.00000000000E+00  0.74505805969E-08  0.10566000000E+00  0.10566000000E+00 0. -1.
     999900   -1    0    0    0    0 -0.00000000000E+00 -0.00000000000E+00 -0.74505805969E-08  0.93827000000E+00  0.93827000000E+00 0.  1.
     999902    2    1    2    0    0  0.16132111905E-01 -0.15135716111E-01  0.78226673955E-02  0.10204666443E+01  0.10201968648E+01 0.  0.
     999903    2    3    3    0    0 -0.10337954225E+00  0.33213106591E-01 -0.65137262675E-01  0.12808567432E+00  0.19303802005E-01 0.  0.
         14    1    1    2    0    0 -0.16132111905E-01  0.15135716111E-01 -0.78226673955E-02  0.23463355725E-01  0.00000000000E+00 0.  1.
     999901    1    3    3    0    0  0.11951165416E+00 -0.48348822702E-01  0.72959930071E-01  0.89238096995E+00  0.88000000000E+00 0. -1.
        -11    1    4    4    0    0 -0.53205700686E-01  0.94656123570E-02 -0.24779701527E-01  0.59453672145E-01  0.51100000000E-03 0. -1.
         11    1    4    4    0    0 -0.50173841568E-01  0.23747494234E-01 -0.40357561148E-01  0.68632002178E-01  0.51100000000E-03 0.  1.
</event>
<event>
 8    1  0.1086235E+005  0.1043930E+01  0.7957747E-01            NaN
         13   -1    0    0    0    0  0.00000000000E+00  0.00000000000E+00  0.74505805969E-08  0.10566000000E+00  0.10566000000E+00 0. -1.
     999900   -1    0    0    0    0 -0.00000000000E+00 -0.00000000000E+00 -0.74505805969E-08  0.93827000000E+00  0.93827000000E+00 0.  1.
     999902    2    1    2    0    0 -0.87884248067E-02 -0.25703419310E-02  0.20908107394E-01  0.10211047503E+01  0.10208496065E+01 0.  0.
     999903    2    3    3    0    0  0.12562645788E-01  0.44228751489E-02 -0.12633713390E+00  0.12858812057E+00  0.19911088730E-01 0.  0.
         14    1    1    2    0    0  0.87884248067E-02  0.25703419310E-02 -0.20908107394E-01  0.22825249681E-01  0.00000000000E+00 0.  1.
     999901    1    3    3    0    0 -0.21351070594E-01 -0.69932170799E-02  0.14724524130E+00  0.89251662975E+00  0.88000000000E+00 0. -1.
        -11    1    4    4    0    0  0.17257704073E-01  0.68761942973E-02 -0.10148089549E+00  0.10316852073E+00  0.51100000000E-03 0.  1.
         11    1    4    4    0    0 -0.46950582856E-02 -0.24533191485E-02 -0.24856238409E-01  0.25419599840E-01  0.51100000000E-03 0. -1.
</event>
<event>
 8    1  0.1086235E+005  0.1043930E+01  0.7957747E-01            NaN
         13   -1    0    0    0    0  0.00000000000E+00  0.00000000000E+00  0.74505805969E-08  0.10566000000E+00  0.10566000000E+00 0. -1.
     999900   -1    0    0    0    0 -0.00000000000E+00 -0.00000000000E+00 -0.74505805969E-08  0.93827000000E+00  0.93827000000E+00 0. -1.
     999902    2    1    2    0    0 -0.69664489618E-02 -0.25516494824E-02  0.22308748344E-01  0.10204199473E+01  0.10201490804E+01 0.  0.
     999903    2    3    3    0    0 -0.89432419982E-02 -0.90110073356E-01  0.95276701561E-01  0.13306730740E+00  0.20723212615E-01 0.  0.
         14    1    1    2    0    0  0.69664489618E-02  0.25516494824E-02 -0.22308748344E-01  0.23510052720E-01  0.00000000000E+00 0.  1.
     999901    1    3    3    0    0  0.19767930365E-02  0.87558423874E-01 -0.72967953217E-01  0.88735263988E+00  0.88000000000E+00 0. -1.
        -11    1    4    4    0    0 -0.31335589678E-02 -0.71044171740E-01  0.62364166508E-01  0.94586700520E-01  0.51100000000E-03 0.  1.
         11    1    4    4    0    0 -0.58096830305E-02 -0.19065901616E-01  0.32912535053E-01  0.38480606882E-01  0.51100000000E-03 0. -1.
</event>
<event>
 8    1  0.1086235E+005  0.1043930E+01  0.7957747E-01            NaN
         13   -1    0    0    0    0  0.00000000000E+00  0.00000000000E+00  0.74505805969E-08  0.10566000000E+00  0.10566000000E+00 0.  1.
     999900   -1    0    0    0    0 -0.00000000000E+00 -0.00000000000E+00 -0.74505805969E-08  0.93827000000E+00  0.93827000000E+00 0.  1.
     999902    2    1    2    0    0 -0.26793825733E-02  0.11509379180E-01  0.20355993260E-01  0.10203925541E+01  0.10201210482E+01 0.  0.
     999903    2    3    3    0    0 -0.73811443964E-01  0.10378391418E+00 -0.25586726752E-01  0.13152524478E+00  0.20615026704E-01 0.  0.
         14    1    1    2    0    0  0.26793825733E-02 -0.11509379180E-01 -0.20355993260E-01  0.23537445946E-01  0.00000000000E+00 0. -1.
     999901    1    3    3    0    0  0.71132061391E-01 -0.92274535003E-01  0.45942720012E-01  0.88886730927E+00  0.88000000000E+00 0. -1.
        -11    1    4    4    0    0 -0.37233972710E-01  0.51218221711E-01 -0.23196851485E-01  0.67439083615E-01  0.51100000000E-03 0.  1.
         11    1    4    4    0    0 -0.36577471254E-01  0.52565692473E-01 -0.23898752674E-02  0.64086161168E-01  0.51100000000E-03 0. -1.
</event>
<event>
 8    1  0.1086235E+005  0.1043930E+01  0.7957747E-01            NaN
         13   -1    0    0    0    0  0.00000000000E+00  0.00000000000E+00  0.74505805969E-08  0.10566000000E+00  0.10566000000E+00 0.  1.
     999900   -1    0    0    0    0 -0.00000000000E+00 -0.00000000000E+00 -0.74505805969E-08  0.93827000000E+00  0.93827000000E+00 0. -1.
     999902    2    1    2    0    0  0.42934514653E-02 -0.29277663372E-02  0.24461207386E-01  0.10189228769E+01  0.10186159594E+01 0.  0.
     999903    2    3    3    0    0 -0.54487532143E-01  0.38808664929E-01  0.11169125224E+00  0.13167645423E+00  0.19716722316E-01 0.  0.
         14    1    1    2    0    0 -0.42934514653E-02  0.29277663372E-02 -0.24461207386E-01  0.25007123146E-01  0.00000000000E+00 0. -1.
     999901    1    3    3    0    0  0.58780983609E-01 -0.41736431267E-01 -0.87230044857E-01  0.88724642262E+00  0.88000000000E+00 0. -1.
        -11    1    4    4    0    0 -0.26688641811E-01  0.18489528682E-01  0.72899604355E-01  0.79804509326E-01  0.51100000000E-03 0. -1.
         11    1    4    4    0    0 -0.27798890332E-01  0.20319136247E-01  0.38791647889E-01  0.51871944907E-01  0.51100000000E-03 0.  1.
</event>
<event>
 8    1  0.1086235E+005  0.1043930E+01  0.7957747E-01            NaN
         13   -1    0    0    0    0  0.00000000000E+00  0.00000000000E+00  0.74505805969E-08  0.10566000000E+00  0.10566000000E+00 0. -1.
     999900   -1    0    0    0    0 -0.00000000000E+00 -0.00000000000E+00 -0.74505805969E-08  0.93827000000E+00  0.93827000000E+00 0.  1.
     999902    2    1    2    0    0  0.57806075662E-02  0.20353643517E-01 -0.10922892478E-01  0.10201183262E+01  0.10198403815E+01 0.  0.
     999903    2    3    3    0    0  0.85129942600E-01 -0.94366263439E-01 -0.69582122634E-02  0.12912298801E+00  0.21730865412E-01 0.  0.
         14    1    1    2    0    0 -0.57806075662E-02 -0.20353643517E-01  0.10922892478E-01  0.23811673783E-01  0.00000000000E+00 0.  1.
     999901    1    3    3    0    0 -0.79349335033E-01  0.11471990696E+00 -0.39646802151E-02  0.89099533821E+00  0.88000000000E+00 0.  1.
        -11    1    4    4    0    0  0.72929521778E-01 -0.75302459643E-01  0.18069442142E-02  0.10484608597E+00  0.51100000000E-03 0. -1.
         11    1    4    4    0    0  0.12200420821E-01 -0.19063803796E-01 -0.87651564776E-02  0.24276902036E-01  0.51100000000E-03 0.  1.
</event>
<event>
 8    1  0.1086235E+005  0.1043930E+01  0.7957747E-01            NaN
         13   -1    0    0    0    0  0.00000000000E+00  0.00000000000E+00  0.74505805969E-08  0.10566000000E+00  0.10566000000E+00 0.  1.
     999900   -1    0    0    0    0 -0.00000000000E+00 -0.00000000000E+00 -0.74505805969E-08  0.93827000000E+00  0.93827000000E+00 0. -1.
     999902    2    1    2    0    0 -0.29335271525E-02  0.24038773977E-01 -0.32064116170E-02  0.10195015471E+01  0.10192088379E+01 0.  0.
     999903    2    3    3    0    0  0.87354123775E-02 -0.89357444756E-01  0.88215286467E-01  0.12745177637E+00  0.20023939931E-01 0.  0.
         14    1    1    2    0    0  0.29335271525E-02 -0.24038773977E-01  0.32064116170E-02  0.24428452905E-01  0.00000000000E+00 0.  1.
     999901    1    3    3    0    0 -0.11668939530E-01  0.11339621873E+00 -0.91421698084E-01  0.89204977073E+00  0.88000000000E+00 0. -1.
        -11    1    4    4    0    0  0.19859438965E-02 -0.71335466028E-01  0.77761945606E-01  0.10554560148E+00  0.51100000000E-03 0. -1.
         11    1    4    4    0    0  0.67494684810E-02 -0.18021978728E-01  0.10453340861E-01  0.21906174888E-01  0.51100000000E-03 0.  1.
</event>
<event>
 8    1  0.1086235E+005  0.1043930E+01  0.7957747E-01            NaN
         13   -1    0    0    0    0  0.00000000000E+00  0.00000000000E+00  0.74505805969E-08  0.10566000000E+00  0.10566000000E+00 0. -1.
     999900   -1    0    0    0    0 -0.00000000000E+00 -0.00000000000E+00 -0.74505805969E-08  0.93827000000E+00  0.93827000000E+00 0. -1.
     999902    2    1    2    0    0 -0.71157544430E-02  0.47342438274E-02 -0.22318814446E-01  0.10200307008E+01  0.10197506823E+01 0.  0.
     999903    2    3    3    0    0 -0.10256752642E+00  0.84145255982E-02  0.75824484620E-01  0.12943725120E+00  0.20340791882E-01 0.  0.
         14    1    1    2    0    0  0.71157544430E-02 -0.47342438274E-02  0.22318814446E-01  0.23899299241E-01  0.00000000000E+00 0. -1.
     999901    1    3    3    0    0  0.95451771972E-01 -0.36802817708E-02 -0.98143299066E-01  0.89059344956E+00  0.88000000000E+00 0. -1.
        -11    1    4    4    0    0 -0.22963707745E-02  0.29200432404E-02  0.61775735302E-02  0.72265833546E-02  0.51100000000E-03 0. -1.
         11    1    4    4    0    0 -0.10027115564E+00  0.54944823578E-02  0.69646911090E-01  0.12221066785E+00  0.51100000000E-03 0.  1.
</event>
<event>
 8    1  0.1086235E+005  0.1043930E+01  0.7957747E-01            NaN
         13   -1    0    0    0    0  0.00000000000E+00  0.00000000000E+00  0.74505805969E-08  0.10566000000E+00  0.10566000000E+00 0.  1.
     999900   -1    0    0    0    0 -0.00000000000E+00 -0.00000000000E+00 -0.74505805969E-08  0.93827000000E+00  0.93827000000E+00 0.  1.
     999902    2    1    2    0    0  0.12748018477E-01  0.19708301857E-01 -0.12832194078E-02  0.10204230693E+01  0.10201522752E+01 0.  0.
     999903    2    3    3    0    0  0.12006251031E+00 -0.34517492263E-01  0.35543366440E-01  0.13148379451E+00  0.20449784010E-01 0.  0.
         14    1    1    2    0    0 -0.12748018477E-01 -0.19708301857E-01  0.12832194078E-02  0.23506930664E-01  0.00000000000E+00 0.  1.
     999901    1    3    3    0    0 -0.10731449183E+00  0.54225794120E-01 -0.36826585848E-01  0.88893927483E+00  0.88000000000E+00 0.  1.
        -11    1    4    4    0    0  0.91511539632E-01 -0.35121263198E-01  0.28037723863E-01  0.10195214610E+00  0.51100000000E-03 0.  1.
         11    1    4    4    0    0  0.28550970680E-01  0.60377093572E-03  0.75056425766E-02  0.29531648406E-01  0.51100000000E-03 0. -1.
</event>
<event>
 8    1  0.1086235E+005  0.1043930E+01  0.7957747E-01            NaN
         13   -1    0    0    0    0  0.00000000000E+00  0.00000000000E+00  0.74505805969E-08  0.10566000000E+00  0.10566000000E+00 0.  1.
     999900   -1    0    0    0    0 -0.00000000000E+00 -0.00000000000E+00 -0.74505805969E-08  0.93827000000E+00  0.93827000000E+00 0.  1.
     999902    2    1    2    0    0 -0.15155978565E-01 -0.32031058311E-02 -0.17382814501E-01  0.10206464046E+01  0.10203807904E+01 0.  0.
     999903    2    3    3    0    0 -0.37571202917E-01  0.85194141912E-01  0.88014443769E-01  0.12967777570E+00  0.20003652019E-01 0.  0.
         14    1    1    2    0    0  0.15155978565E-01  0.32031058311E-02  0.17382814501E-01  0.23283595366E-01  0.00000000000E+00 0.  1.
     999901    1    3    3    0    0  0.22415224352E-01 -0.88397247743E-01 -0.10539725827E+00  0.89096862893E+00  0.88000000000E+00 0.  1.
        -11    1    4    4    0    0 -0.16496130242E-01  0.16597254598E-01  0.19598387197E-01  0.30527840980E-01  0.51100000000E-03 0.  1.
         11    1    4    4    0    0 -0.21075072675E-01  0.68596887314E-01  0.68416056572E-01  0.99149934721E-01  0.51100000000E-03 0. -1.
</event>
<event>
 8    1  0.1086235E+005  0.1043930E+01  0.7957747E-01            NaN
         13   -1    0    0    0    0  0.00000000000E+00  0.00000000000E+00  0.74505805969E-08  0.10566000000E+00  0.10566000000E+00 0.  1.
     999900   -1    0    0    0    0 -0.00000000000E+00 -0.00000000000E+00 -0.74505805969E-08  0.93827000000E+00  0.93827000000E+00 0.  1.
     999902    2    1    2    0    0  0.19233154479E-01  0.33504819899E-02 -0.15724835960E-01  0.10188618843E+01  0.10185534491E+01 0.  0.
     999903    2    3    3    0    0  0.94845511513E-01 -0.39507996045E-01 -0.80790462269E-01  0.13218967121E+00  0.19759999346E-01 0.  0.
         14    1    1    2    0    0 -0.19233154479E-01 -0.33504819899E-02  0.15724835960E-01  0.25068115740E-01  0.00000000000E+00 0. -1.
     999901    1    3    3    0    0 -0.75612357034E-01  0.42858478035E-01  0.65065626310E-01  0.88667221305E+00  0.88000000000E+00 0. -1.
        -11    1    4    4    0    0  0.28577718104E-01 -0.16637838348E-01 -0.16037265640E-01  0.36755389362E-01  0.51100000000E-03 0. -1.
         11    1    4    4    0    0  0.66267793409E-01 -0.22870157697E-01 -0.64753196629E-01  0.95434281844E-01  0.51100000000E-03 0.  1.
</event>
<event>
 8    1  0.1086235E+005  0.1043930E+01  0.7957747E-01            NaN
         13   -1    0    0    0    0  0.00000000000E+00  0.00000000000E+00  0.74505805969E-08  0.10566000000E+00  0.10566000000E+00 0.  1.
     999900   -1    0    0    0    0 -0.00000000000E+00 -0.00000000000E+00 -0.74505805969E-08  0.93827000000E+00  0.93827000000E+00 0. -1.
     999902    2    1    2    0    0 -0.20566216284E-02  0.19619729002E-01 -0.99058326940E-02  0.10218553770E+01  0.10216169158E+01 0.  0.
     999903    2    3    3    0    0  0.10921704719E+00 -0.55270810966E-01  0.39344081335E-01  0.13033085330E+00  0.21329525202E-01 0.  0.
         14    1    1    2    0    0  0.20566216284E-02 -0.19619729002E-01  0.99058326940E-02  0.22074622986E-01  0.00000000000E+00 0.  1.
     999901    1    3    3    0    0 -0.11127366881E+00  0.74890539968E-01 -0.49249914029E-01  0.89152452371E+00  0.88000000000E+00 0. -1.
        -11    1    4    4    0    0  0.34906393813E-01 -0.70821196659E-02  0.13126499975E-01  0.37962861728E-01  0.51100000000E-03 0.  1.
         11    1    4    4    0    0  0.74310653373E-01 -0.48188691300E-01  0.26217581360E-01  0.92367991574E-01  0.51100000000E-03 0. -1.
</event>
<event>
 8    1  0.1086235E+005  0.1043930E+01  0.7957747E-01            NaN
         13   -1    0    0    0    0  0.00000000000E+00  0.00000000000E+00  0.74505805969E-08  0.10566000000E+00  0.10566000000E+00 0. -1.
     999900   -1    0    0    0    0 -0.00000000000E+00 -0.00000000000E+00 -0.74505805969E-08  0.93827000000E+00  0.93827000000E+00 0.  1.
     999902    2    1    2    0    0 -0.21963030294E-01  0.12040073496E-01  0.14296262170E-02  0.10188425151E+01  0.10185335972E+01 0.  0.
     999903    2    3    3    0    0  0.12018890451E+00  0.27594227253E-01  0.21589417025E-01  0.12707151226E+00  0.21777331242E-01 0.  0.
         14    1    1    2    0    0  0.21963030294E-01 -0.12040073496E-01 -0.14296262170E-02  0.25087484940E-01  0.00000000000E+00 0.  1.
     999901    1    3    3    0    0 -0.14215193480E+00 -0.15554153757E-01 -0.20159790808E-01  0.89177100280E+00  0.88000000000E+00 0.  1.
        -11    1    4    4    0    0  0.77629711539E-01  0.70149886751E-02  0.13388508823E-01  0.79089161516E-01  0.51100000000E-03 0. -1.
         11    1    4    4    0    0  0.42559192970E-01  0.20579238578E-01  0.82009082021E-02  0.47982350745E-01  0.51100000000E-03 0.  1.
</event>
<event>
 8    1  0.1086235E+005  0.1043930E+01  0.7957747E-01            NaN
         13   -1    0    0    0    0  0.00000000000E+00  0.00000000000E+00  0.74505805969E-08  0.10566000000E+00  0.10566000000E+00 0.  1.
     999900   -1    0    0    0    0 -0.00000000000E+00 -0.00000000000E+00 -0.74505805969E-08  0.93827000000E+00  0.93827000000E+00 0. -1.
     999902    2    1    2    0    0 -0.14365866434E-01 -0.17787915522E-01 -0.38596026336E-02  0.10207419731E+01  0.10204785599E+01 0.  0.
     999903    2    3    3    0    0 -0.12179735506E+00  0.26804245146E-01  0.38810455699E-01  0.13206277376E+00  0.19525918240E-01 0.  0.
         14    1    1    2    0    0  0.14365866434E-01  0.17787915522E-01  0.38596026336E-02  0.23188026856E-01  0.00000000000E+00 0. -1.
     999901    1    3    3    0    0  0.10743148863E+00 -0.44592160668E-01 -0.42670058333E-01  0.88867919939E+00  0.88000000000E+00 0.  1.
        -11    1    4    4    0    0 -0.37895728742E-01  0.20073780527E-03  0.74631471250E-02  0.38627532131E-01  0.51100000000E-03 0. -1.
         11    1    4    4    0    0 -0.83901626320E-01  0.26603507341E-01  0.31347308574E-01  0.93435241627E-01  0.51100000000E-03 0.  1.
</event>
<event>
 8    1  0.1086235E+005  0.1043930E+01  0.7957747E-01            NaN
         13   -1    0    0    0    0  0.00000000000E+00  0.00000000000E+00  0.74505805969E-08  0.10566000000E+00  0.10566000000E+00 0. -1.
     999900   -1    0    0    0    0 -0.00000000000E+00 -0.00000000000E+00 -0.74505805969E-08  0.93827000000E+00  0.93827000000E+00 0. -1.
     999902    2    1    2    0    0  0.19409086675E-02 -0.23046739922E-01  0.14484712373E-02  0.10207563638E+01  0.10204932811E+01 0.  0.
     999903    2    3    3    0    0  0.15305274442E-01 -0.11354654435E+00  0.65281320568E-01  0.13371439546E+00  0.22154448275E-01 0.  0.
         14    1    1    2    0    0 -0.19409086675E-02  0.23046739922E-01 -0.14484712373E-02  0.23173636236E-01  0.00000000000E+00 0. -1.
     999901    1    3    3    0    0 -0.13364365775E-01  0.90499804431E-01 -0.63832849331E-01  0.88704196830E+00  0.88000000000E+00 0. -1.
        -11    1    4    4    0    0  0.11242845466E-01 -0.39311482310E-01  0.33489195885E-01  0.52854343034E-01  0.51100000000E-03 0. -1.
         11    1    4    4    0    0  0.40624289762E-02 -0.74235062043E-01  0.31792124683E-01  0.80860052428E-01  0.51100000000E-03 0.  1.
</event>
<event>
 8    1  0.1086235E+005  0.1043930E+01  0.7957747E-01            NaN
         13   -1    0    0    0    0  0.00000000000E+00  0.00000000000E+00  0.74505805969E-08  0.10566000000E+00  0.10566000000E+00 0.  1.
     999900   -1    0    0    0    0 -0.00000000000E+00 -0.00000000000E+00 -0.74505805969E-08  0.93827000000E+00  0.93827000000E+00 0. -1.
     999902    2    1    2    0    0  0.11078771992E-03  0.10274099199E-01 -0.16265879688E-01  0.10246907633E+01  0.10245101327E+01 0.  0.
     999903    2    3    3    0    0 -0.48095484125E-01  0.45116693454E-01 -0.11817699363E+00  0.13681479998E+00  0.20094677138E-01 0.  0.
         14    1    1    2    0    0 -0.11078771992E-03 -0.10274099199E-01  0.16265879688E-01  0.19239236739E-01  0.00000000000E+00 0.  1.
     999901    1    3    3    0    0  0.48206271845E-01 -0.34842594255E-01  0.10191111394E+00  0.88787596328E+00  0.88000000000E+00 0.  1.
        -11    1    4    4    0    0  0.12520355961E-02  0.53930322040E-02 -0.85329914355E-02  0.10184569374E-01  0.51100000000E-03 0.  1.
         11    1    4    4    0    0 -0.49347519721E-01  0.39723661250E-01 -0.10964400220E+00  0.12663023061E+00  0.51100000000E-03 0. -1.
</event>
<event>
 8    1  0.1086235E+005  0.1043930E+01  0.7957747E-01            NaN
         13   -1    0    0    0    0  0.00000000000E+00  0.00000000000E+00  0.74505805969E-08  0.10566000000E+00  0.10566000000E+00 0.  1.
     999900   -1    0    0    0    0 -0.00000000000E+00 -0.00000000000E+00 -0.74505805969E-08  0.93827000000E+00  0.93827000000E+00 0. -1.
     999902    2    1    2    0    0  0.28873154119E-02 -0.70948158747E-02  0.22425959045E-01  0.10202319697E+01  0.10199567027E+01 0.  0.
     999903    2    3    3    0    0 -0.62895887920E-02  0.11184039068E+00  0.65441164161E-01  0.13114248778E+00  0.19182654153E-01 0.  0.
         14    1    1    2    0    0 -0.28873154119E-02  0.70948158747E-02 -0.22425959045E-01  0.23698030333E-01  0.00000000000E+00 0. -1.
     999901    1    3    3    0    0  0.91769042040E-02 -0.11893520655E+00 -0.43015205116E-01  0.88908948189E+00  0.88000000000E+00 0. -1.
        -11    1    4    4    0    0 -0.85799845027E-02  0.70715061769E-01  0.32036386356E-01  0.78107792612E-01  0.51100000000E-03 0.  1.
         11    1    4    4    0    0  0.22903957106E-02  0.41125328910E-01  0.33404777805E-01  0.53034695169E-01  0.51100000000E-03 0. -1.
</event>
<event>
 8    1  0.1086235E+005  0.1043930E+01  0.7957747E-01            NaN
         13   -1    0    0    0    0  0.00000000000E+00  0.00000000000E+00  0.74505805969E-08  0.10566000000E+00  0.10566000000E+00 0.  1.
     999900   -1    0    0    0    0 -0.00000000000E+00 -0.00000000000E+00 -0.74505805969E-08  0.93827000000E+00  0.93827000000E+00 0. -1.
     999902    2    1    2    0    0 -0.40699280728E-02 -0.47957786415E-03 -0.24776911092E-01  0.10188164651E+01  0.10185068974E+01 0.  0.
     999903    2    3    3    0    0  0.13412200158E-01 -0.76434787956E-01 -0.10461816608E+00  0.13177111978E+00  0.19912393403E-01 0.  0.
         14    1    1    2    0    0  0.40699280728E-02  0.47957786415E-03  0.24776911092E-01  0.25113534851E-01  0.00000000000E+00 0.  1.
     999901    1    3    3    0    0 -0.17482128231E-01  0.75955210092E-01  0.79841254986E-01  0.88704534537E+00  0.88000000000E+00 0.  1.
        -11    1    4    4    0    0  0.13381802922E-01 -0.52266057274E-01 -0.84811707515E-01  0.10051915362E+00  0.51100000000E-03 0. -1.
         11    1    4    4    0    0  0.30397236328E-04 -0.24168730681E-01 -0.19806458563E-01  0.31251966155E-01  0.51100000000E-03 0.  1.
</event>
<event>
 8    1  0.1086235E+005  0.1043930E+01  0.7957747E-01            NaN
         13   -1    0    0    0    0  0.00000000000E+00  0.00000000000E+00  0.74505805969E-08  0.10566000000E+00  0.10566000000E+00 0.  1.
     999900   -1    0    0    0    0 -0.00000000000E+00 -0.00000000000E+00 -0.74505805969E-08  0.93827000000E+00  0.93827000000E+00 0. -1.
     999902    2    1    2    0    0 -0.12808242644E-01  0.19828206014E-01  0.33315759688E-02  0.10200907837E+01  0.10198121880E+01 0.  0.
     999903    2    3    3    0    0  0.51913239561E-01 -0.48730445159E-01  0.10594550401E+00  0.12912570186E+00  0.19477071993E-01 0.  0.
         14    1    1    2    0    0  0.12808242644E-01 -0.19828206014E-01 -0.33315759688E-02  0.23839216258E-01  0.00000000000E+00 0.  1.
     999901    1    3    3    0    0 -0.64721482205E-01  0.68558651173E-01 -0.10261392804E+00  0.89096508188E+00  0.88000000000E+00 0. -1.
        -11    1    4    4    0    0  0.29042297788E-01 -0.15502901408E-01  0.55525379856E-01  0.64553264380E-01  0.51100000000E-03 0. -1.
         11    1    4    4    0    0  0.22870941772E-01 -0.33227543751E-01  0.50420124153E-01  0.64572437478E-01  0.51100000000E-03 0.  1.
</event>
<event>
 8    1  0.1086235E+005  0.1043930E+01  0.7957747E-01            NaN
         13   -1    0    0    0    0  0.00000000000E+00  0.00000000000E+00  0.74505805969E-08  0.10566000000E+00  0.10566000000E+00 0.  1.
     999900   -1    0    0    0    0 -0.00000000000E+00 -0.00000000000E+00 -0.74505805969E-08  0.93827000000E+00  0.93827000000E+00 0. -1.
     999902    2    1    2    0    0  0.13002055135E-02  0.13164982686E-01  0.20559472039E-01  0.10194821127E+01  0.10191889319E+01 0.  0.
     999903    2    3    3    0    0  0.11461701475E+00  0.11540435129E-01  0.59753413056E-01  0.13134951931E+00  0.20297392366E-01 0.  0.
         14    1    1    2    0    0 -0.13002055135E-02 -0.13164982686E-01 -0.20559472039E-01  0.24447887312E-01  0.00000000000E+00 0. -1.
     999901    1    3    3    0    0 -0.11331680924E+00  0.16245475570E-02 -0.39193941017E-01  0.88813259338E+00  0.88000000000E+00 0. -1.
        -11    1    4    4    0    0  0.73132180615E-01  0.36525986739E-02  0.47849153812E-01  0.87472624061E-01  0.51100000000E-03 0. -1.
         11    1    4    4    0    0  0.41484834137E-01  0.78878364554E-02  0.11904259243E-01  0.43876895247E-01  0.51100000000E-03 0.  1.
</event>
<event>
 8    1  0.1086235E+005  0.1043930E+01  0.7957747E-01            NaN
         13   -1    0    0    0    0  0.00000000000E+00  0.00000000000E+00  0.74505805969E-08  0.10566000000E+00  0.10566000000E+00 0.  1.
     999900   -1    0    0    0    0 -0.00000000000E+00 -0.00000000000E+00 -0.74505805969E-08  0.93827000000E+00  0.93827000000E+00 0. -1.
     999902    2    1    2    0    0  0.14055556099E-01  0.11211848337E-01 -0.77917873968E-02  0.10243346906E+01  0.10241472463E+01 0.  0.
     999903    2    3    3    0    0  0.43687675991E-01 -0.41902675521E-01  0.11648450314E+00  0.13352392978E+00  0.24403956686E-01 0.  0.
         14    1    1    2    0    0 -0.14055556099E-01 -0.11211848337E-01  0.77917873968E-02  0.19595309419E-01  0.00000000000E+00 0.  1.
     999901    1    3    3    0    0 -0.29632119892E-01  0.53114523858E-01 -0.12427629054E+00  0.89081076080E+00  0.88000000000E+00 0. -1.
        -11    1    4    4    0    0  0.43601020082E-02 -0.88621167680E-02  0.57118140304E-02  0.11420750573E-01  0.51100000000E-03 0.  1.
         11    1    4    4    0    0  0.39327573983E-01 -0.33040558753E-01  0.11077268911E+00  0.12210317920E+00  0.51100000000E-03 0. -1.
</event>
<event>
 8    1  0.1086235E+005  0.1043930E+01  0.7957747E-01            NaN
         13   -1    0    0    0    0  0.00000000000E+00  0.00000000000E+00  0.74505805969E-08  0.10566000000E+00  0.10566000000E+00 0.  1.
     999900   -1    0    0    0    0 -0.00000000000E+00 -0.00000000000E+00 -0.74505805969E-08  0.93827000000E+00  0.93827000000E+00 0.  1.
     999902    2    1    2    0    0 -0.18676749994E-01  0.28352353468E-02 -0.14122363661E-01  0.10203439722E+01  0.10200713313E+01 0.  0.
     999903    2    3    3    0    0  0.12568819924E+00  0.38096805306E-02 -0.17395361617E-01  0.12857443889E+00  0.20414471264E-01 0.  0.
         14    1    1    2    0    0  0.18676749994E-01 -0.28352353468E-02  0.14122363661E-01  0.23586027753E-01  0.00000000000E+00 0.  1.
     999901    1    3    3    0    0 -0.14436494923E+00 -0.97444518376E-03  0.32729979564E-02  0.89176953336E+00  0.88000000000E+00 0. -1.
        -11    1    4    4    0    0  0.75431528118E-01  0.15385853755E-02 -0.20449919212E-01  0.78171241489E-01  0.51100000000E-03 0.  1.
         11    1    4    4    0    0  0.50256671117E-01  0.22710951551E-02  0.30545575950E-02  0.50403197400E-01  0.51100000000E-03 0. -1.
</event>
<event>
 8    1  0.1086235E+005  0.1043930E+01  0.7957747E-01            NaN
         13   -1    0    0    0    0  0.00000000000E+00  0.00000000000E+00  0.74505805969E-08  0.10566000000E+00  0.10566000000E+00 0. -1.
     999900   -1    0    0    0    0 -0.00000000000E+00 -0.00000000000E+00 -0.74505805969E-08  0.93827000000E+00  0.93827000000E+00 0.  1.
     999902    2    1    2    0    0  0.10092425913E-01 -0.13015031193E-01  0.16457706647E-01  0.10206468686E+01  0.10203812651E+01 0.  0.
     999903    2    3    3    0    0 -0.85706689655E-02  0.34330617582E-01 -0.12180006277E+00  0.12839963140E+00  0.19979048593E-01 0.  0.
         14    1    1    2    0    0 -0.10092425913E-01  0.13015031193E-01 -0.16457706647E-01  0.23283131358E-01  0.00000000000E+00 0.  1.
     999901    1    3    3    0    0  0.18663094878E-01 -0.47345648775E-01  0.13825776941E+00  0.89224723725E+00  0.88000000000E+00 0. -1.
        -11    1    4    4    0    0 -0.11760321848E-01  0.12472743162E-01 -0.37221713739E-01  0.40982820628E-01  0.51100000000E-03 0. -1.
         11    1    4    4    0    0  0.31896528825E-02  0.21857874420E-01 -0.84578349028E-01  0.87416810769E-01  0.51100000000E-03 0.  1.
</event>
<event>
 8    1  0.1086235E+005  0.1043930E+01  0.7957747E-01            NaN
         13   -1    0    0    0    0  0.00000000000E+00  0.00000000000E+00  0.74505805969E-08  0.10566000000E+00  0.10566000000E+00 0.  1.
     999900   -1    0    0    0    0 -0.00000000000E+00 -0.00000000000E+00 -0.74505805969E-08  0.93827000000E+00  0.93827000000E+00 0.  1.
     999902    2    1    2    0    0 -0.10240252375E-01  0.19048951190E-01 -0.95545275273E-02  0.10202865166E+01  0.10200125302E+01 0.  0.
     999903    2    3    3    0    0 -0.27680212869E-01 -0.96993790562E-01  0.76438353916E-01  0.12834209806E+00  0.21327976775E-01 0.  0.
         14    1    1    2    0    0  0.10240252375E-01 -0.19048951190E-01  0.95545275273E-02  0.23643483382E-01  0.00000000000E+00 0.  1.
     999901    1    3    3    0    0  0.17439960494E-01  0.11604274175E+00 -0.85992881444E-01  0.89194441856E+00  0.88000000000E+00 0.  1.
        -11    1    4    4    0    0 -0.21939420535E-01 -0.80005103237E-01  0.51585014706E-01  0.97690478455E-01  0.51100000000E-03 0. -1.
         11    1    4    4    0    0 -0.57407923343E-02 -0.16988687325E-01  0.24853339210E-01  0.30651619607E-01  0.51100000000E-03 0.  1.
</event>
<event>
 8    1  0.1086235E+005  0.1043930E+01  0.7957747E-01            NaN
         13   -1    0    0    0    0  0.00000000000E+00  0.00000000000E+00  0.74505805969E-08  0.10566000000E+00  0.10566000000E+00 0.  1.
     999900   -1    0    0    0    0 -0.00000000000E+00 -0.00000000000E+00 -0.74505805969E-08  0.93827000000E+00  0.93827000000E+00 0. -1.
     999902    2    1    2    0    0 -0.14322996790E-01 -0.39309551229E-02  0.18913334428E-01  0.10198818220E+01  0.10195982621E+01 0.  0.
     999903    2    3    3    0    0  0.69544440380E-03  0.66461287394E-01 -0.10755777119E+00  0.12793139630E+00  0.19498247342E-01 0.  0.
         14    1    1    2    0    0  0.14322996790E-01  0.39309551229E-02 -0.18913334428E-01  0.24048177985E-01  0.00000000000E+00 0. -1.
     999901    1    3    3    0    0 -0.15018441194E-01 -0.70392242517E-01  0.12647110562E+00  0.89195042572E+00  0.88000000000E+00 0.  1.
        -11    1    4    4    0    0 -0.36839160335E-02  0.40089800666E-01 -0.48019126805E-01  0.62664671187E-01  0.51100000000E-03 0.  1.
         11    1    4    4    0    0  0.43793604373E-02  0.26371486728E-01 -0.59538644387E-01  0.65266725110E-01  0.51100000000E-03 0. -1.
</event>
<event>
 8    1  0.1086235E+005  0.1043930E+01  0.7957747E-01            NaN
         13   -1    0    0    0    0  0.00000000000E+00  0.00000000000E+00  0.74505805969E-08  0.10566000000E+00  0.10566000000E+00 0. -1.
     999900   -1    0    0    0    0 -0.00000000000E+00 -0.00000000000E+00 -0.74505805969E-08  0.93827000000E+00  0.93827000000E+00 0.  1.
     999902    2    1    2    0    0 -0.10940981619E-01  0.19919119141E-01  0.50522803240E-02  0.10206490653E+01  0.10203835125E+01 0.  0.
     999903    2    3    3    0    0 -0.57404108890E-01  0.11767555971E+00 -0.18652270679E-01  0.13370089901E+00  0.19627891439E-01 0.  0.
         14    1    1    2    0    0  0.10940981619E-01 -0.19919119141E-01 -0.50522803240E-02  0.23280934746E-01  0.00000000000E+00 0.  1.
     999901    1    3    3    0    0  0.46463127271E-01 -0.97756440573E-01  0.23704551003E-01  0.88694816625E+00  0.88000000000E+00 0. -1.
        -11    1    4    4    0    0 -0.39604027169E-01  0.73332553532E-01 -0.20681815042E-01  0.85872818575E-01  0.51100000000E-03 0. -1.
         11    1    4    4    0    0 -0.17800081721E-01  0.44343006182E-01  0.20295443627E-02  0.47828080433E-01  0.51100000000E-03 0.  1.
</event>
<event>
 8    1  0.1086235E+005  0.1043930E+01  0.7957747E-01            NaN
         13   -1    0    0    0    0  0.00000000000E+00  0.00000000000E+00  0.74505805969E-08  0.10566000000E+00  0.10566000000E+00 0.  1.
     999900   -1    0    0    0    0 -0.00000000000E+00 -0.00000000000E+00 -0.74505805969E-08  0.93827000000E+00  0.93827000000E+00 0. -1.
     999902    2    1    2    0    0 -0.19452916391E-01 -0.17300254476E-01 -0.25865613842E-01  0.10072319791E+01  0.10065632195E+01 0.  0.
     999903    2    3    3    0    0  0.70388738321E-02 -0.36905205274E-01  0.10737015152E+00  0.11659291737E+00  0.25573795628E-01 0.  0.
         14    1    1    2    0    0  0.19452916391E-01  0.17300254476E-01  0.25865613842E-01  0.36698020934E-01  0.00000000000E+00 0.  1.
     999901    1    3    3    0    0 -0.26491790223E-01  0.19604950798E-01 -0.13323576536E+00  0.89063906169E+00  0.88000000000E+00 0. -1.
        -11    1    4    4    0    0  0.29195865432E-02 -0.35586304792E-01  0.66411033742E-01  0.75402888525E-01  0.51100000000E-03 0. -1.
         11    1    4    4    0    0  0.41192872890E-02 -0.13189004823E-02  0.40959117778E-01  0.41190028846E-01  0.51100000000E-03 0.  1.
</event>
<event>
 8    1  0.1155398E+005  0.1043930E+01  0.7957747E-01            NaN
         13   -1    0    0    0    0  0.00000000000E+00  0.00000000000E+00  0.74505805969E-08  0.10566000000E+00  0.10566000000E+00 0. -1.
     999900   -1    0    0    0    0 -0.00000000000E+00 -0.00000000000E+00 -0.74505805969E-08  0.93827000000E+00  0.93827000000E+00 0.  1.
     999902    2    1    2    0    0  0.26769843588E-01 -0.14057242503E-01  0.11640056464E-01  0.10115305940E+01  0.10110115831E+01 0.  0.
     999903    2    3    3    0    0  0.32759616776E-01 -0.97524787442E-01 -0.66679745634E-01  0.12409794879E+00  0.19231114359E-01 0.  0.
         14    1    1    2    0    0 -0.26769843588E-01  0.14057242503E-01 -0.11640056464E-01  0.32399405967E-01  0.00000000000E+00 0.  1.
     999901    1    3    3    0    0 -0.59897731872E-02  0.83467544939E-01  0.78319802097E-01  0.88743264524E+00  0.88000000000E+00 0. -1.
        -11    1    4    4    0    0  0.14323937676E-01 -0.21043864660E-01 -0.21831818888E-01  0.33539661109E-01  0.51100000000E-03 0.  1.
         11    1    4    4    0    0  0.18435679099E-01 -0.76480922782E-01 -0.44847926746E-01  0.90558287681E-01  0.51100000000E-03 0. -1.
</event>
<event>
 8    1  0.1086235E+005  0.1043930E+01  0.7957747E-01            NaN
         13   -1    0    0    0    0  0.00000000000E+00  0.00000000000E+00  0.74505805969E-08  0.10566000000E+00  0.10566000000E+00 0.  1.
     999900   -1    0    0    0    0 -0.00000000000E+00 -0.00000000000E+00 -0.74505805969E-08  0.93827000000E+00  0.93827000000E+00 0.  1.
     999902    2    1    2    0    0  0.71986377777E-02 -0.15759134033E-01  0.50646930410E-02  0.10258794652E+01  0.10257206517E+01 0.  0.
     999903    2    3    3    0    0 -0.25646427826E-01 -0.70728757741E-02  0.13216565653E+00  0.13609920898E+00  0.18640522746E-01 0.  0.
         14    1    1    2    0    0 -0.71986377777E-02  0.15759134033E-01 -0.50646930410E-02  0.18050534810E-01  0.00000000000E+00 0. -1.
     999901    1    3    3    0    0  0.32845065604E-01 -0.86862582593E-02 -0.12710096349E+00  0.88978025621E+00  0.88000000000E+00 0.  1.
        -11    1    4    4    0    0 -0.21916082485E-01 -0.26296060423E-02  0.64320564494E-01  0.68004600118E-01  0.51100000000E-03 0.  1.
         11    1    4    4    0    0 -0.37303453413E-02 -0.44432697317E-02  0.67845092034E-01  0.68094608864E-01  0.51100000000E-03 0. -1.
</event>
<event>
 8    1  0.1086235E+005  0.1043930E+01  0.7957747E-01            NaN
         13   -1    0    0    0    0  0.00000000000E+00  0.00000000000E+00  0.74505805969E-08  0.10566000000E+00  0.10566000000E+00 0.  1.
     999900   -1    0    0    0    0 -0.00000000000E+00 -0.00000000000E+00 -0.74505805969E-08  0.93827000000E+00  0.93827000000E+00 0.  1.
     999902    2    1    2    0    0 -0.20276960960E-01 -0.21211935671E-02  0.11561007046E-01  0.10204926048E+01  0.10202234290E+01 0.  0.
     999903    2    3    3    0    0 -0.78200662233E-02 -0.10193852083E+00  0.80871296667E-01  0.13205431813E+00  0.21108312281E-01 0.  0.
         14    1    1    2    0    0  0.20276960960E-01  0.21211935671E-02 -0.11561007046E-01  0.23437395159E-01  0.00000000000E+00 0.  1.
     999901    1    3    3    0    0 -0.12456894736E-01  0.99817327262E-01 -0.69310289621E-01  0.88843828671E+00  0.88000000000E+00 0.  1.
        -11    1    4    4    0    0 -0.71938608186E-02 -0.41467095027E-01  0.21328835006E-01  0.47185293548E-01  0.51100000000E-03 0. -1.
         11    1    4    4    0    0 -0.62620540465E-03 -0.60471425802E-01  0.59542461661E-01  0.84869024582E-01  0.51100000000E-03 0.  1.
</event>
<event>
 8    1  0.1086235E+005  0.1043930E+01  0.7957747E-01            NaN
         13   -1    0    0    0    0  0.00000000000E+00  0.00000000000E+00  0.74505805969E-08  0.10566000000E+00  0.10566000000E+00 0. -1.
     999900   -1    0    0    0    0 -0.00000000000E+00 -0.00000000000E+00 -0.74505805969E-08  0.93827000000E+00  0.93827000000E+00 0.  1.
     999902    2    1    2    0    0  0.23258711461E-01 -0.49386121848E-02  0.54383780999E-03  0.10201465329E+01  0.10198692540E+01 0.  0.
     999903    2    3    3    0    0 -0.11942904952E+00 -0.40853766363E-01  0.27717548531E-02  0.12792758046E+00  0.20626563491E-01 0.  0.
         14    1    1    2    0    0 -0.23258711461E-01  0.49386121848E-02 -0.54383780999E-03  0.23783467130E-01  0.00000000000E+00 0.  1.
     999901    1    3    3    0    0  0.14268776098E+00  0.35915154178E-01 -0.22279170431E-02  0.89221895241E+00  0.88000000000E+00 0.  1.
        -11    1    4    4    0    0 -0.34041168595E-01 -0.33572556390E-02  0.53854236090E-02  0.34631434178E-01  0.51100000000E-03 0. -1.
         11    1    4    4    0    0 -0.85387880923E-01 -0.37496510724E-01 -0.26136687560E-02  0.93296146278E-01  0.51100000000E-03 0.  1.
</event>
<event>
 8    1  0.1086235E+005  0.1043930E+01  0.7957747E-01            NaN
         13   -1    0    0    0    0  0.00000000000E+00  0.00000000000E+00  0.74505805969E-08  0.10566000000E+00  0.10566000000E+00 0.  1.
     999900   -1    0    0    0    0 -0.00000000000E+00 -0.00000000000E+00 -0.74505805969E-08  0.93827000000E+00  0.93827000000E+00 0. -1.
     999902    2    1    2    0    0  0.19844950407E-01 -0.31961763567E-02 -0.11248158972E-01  0.10208961406E+01  0.10206362580E+01 0.  0.
     999903    2    3    3    0    0  0.78676941345E-01 -0.92239752651E-01 -0.52086164557E-01  0.13350800433E+00  0.20326967650E-01 0.  0.
         14    1    1    2    0    0 -0.19844950407E-01  0.31961763567E-02  0.11248158972E-01  0.23033859430E-01  0.00000000000E+00 0.  1.
     999901    1    3    3    0    0 -0.58831990938E-01  0.89043576294E-01  0.40838005585E-01  0.88738813624E+00  0.88000000000E+00 0.  1.
        -11    1    4    4    0    0  0.36608147147E-01 -0.52662457399E-01 -0.18778018044E-01  0.66830875646E-01  0.51100000000E-03 0.  1.
         11    1    4    4    0    0  0.42068794198E-01 -0.39577295251E-01 -0.33308146513E-01  0.66677128686E-01  0.51100000000E-03 0. -1.
</event>
<event>
 8    1  0.1086235E+005  0.1043930E+01  0.7957747E-01            NaN
         13   -1    0    0    0    0  0.00000000000E+00  0.00000000000E+00  0.74505805969E-08  0.10566000000E+00  0.10566000000E+00 0. -1.
     999900   -1    0    0    0    0 -0.00000000000E+00 -0.00000000000E+00 -0.74505805969E-08  0.93827000000E+00  0.93827000000E+00 0.  1.
     999902    2    1    2    0    0  0.19592102236E-01  0.12971138828E-01 -0.67024540417E-03  0.10204236149E+01  0.10201528335E+01 0.  0.
     999903    2    3    3    0    0  0.38822942266E-01 -0.40328332667E-02 -0.12366961931E+00  0.13149853015E+00  0.21776227910E-01 0.  0.
         14    1    1    2    0    0 -0.19592102236E-01 -0.12971138828E-01  0.67024540417E-03  0.23506385120E-01  0.00000000000E+00 0. -1.
     999901    1    3    3    0    0 -0.19230840031E-01  0.17003972095E-01  0.12299937391E+00  0.88892508473E+00  0.88000000000E+00 0. -1.
        -11    1    4    4    0    0  0.43286690413E-02 -0.84525682404E-02 -0.34478363589E-01  0.35765932986E-01  0.51100000000E-03 0. -1.
         11    1    4    4    0    0  0.34494273225E-01  0.44197349737E-02 -0.89191255720E-01  0.95732597168E-01  0.51100000000E-03 0.  1.
</event>
<event>
 8    1  0.1086235E+005  0.1043930E+01  0.7957747E-01            NaN
         13   -1    0    0    0    0  0.00000000000E+00  0.00000000000E+00  0.74505805969E-08  0.10566000000E+00  0.10566000000E+00 0. -1.
     999900   -1    0    0    0    0 -0.00000000000E+00 -0.00000000000E+00 -0.74505805969E-08  0.93827000000E+00  0.93827000000E+00 0. -1.
     999902    2    1    2    0    0  0.86699653208E-02 -0.15858168537E-01 -0.13873714082E-01  0.10211455810E+01  0.10208913594E+01 0.  0.
     999903    2    3    3    0    0 -0.12283624269E+00 -0.28716991244E-01 -0.29702626848E-01  0.13114008293E+00  0.20051613536E-01 0.  0.
         14    1    1    2    0    0 -0.86699653208E-02  0.15858168537E-01  0.13873714082E-01  0.22784419028E-01  0.00000000000E+00 0. -1.
     999901    1    3    3    0    0  0.13150620801E+00  0.12858822707E-01  0.15828912766E-01  0.89000549804E+00  0.88000000000E+00 0. -1.
        -11    1    4    4    0    0 -0.63793695900E-01 -0.12475252745E-01 -0.25266137313E-01  0.69741711933E-01  0.51100000000E-03 0. -1.
         11    1    4    4    0    0 -0.59042546788E-01 -0.16241738499E-01 -0.44364895345E-02  0.61398370997E-01  0.51100000000E-03 0.  1.
</event>
<event>
 8    1  0.1086235E+005  0.1043930E+01  0.7957747E-01            NaN
         13   -1    0    0    0    0  0.00000000000E+00  0.00000000000E+00  0.74505805969E-08  0.10566000000E+00  0.10566000000E+00 0.  1.
     999900   -1    0    0    0    0 -0.00000000000E+00 -0.00000000000E+00 -0.74505805969E-08  0.93827000000E+00  0.93827000000E+00 0.  1.
     999902    2    1    2    0    0  0.14032149034E-01  0.50302235500E-02 -0.13392297730E-01  0.10238910880E+01  0.10236949751E+01 0.  0.
     999903    2    3    3    0    0 -0.83317840103E-01 -0.97823010824E-01  0.18722258125E-01  0.13199022305E+00  0.23657812788E-01 0.  0.
         14    1    1    2    0    0 -0.14032149034E-01 -0.50302235500E-02  0.13392297730E-01  0.20038911995E-01  0.00000000000E+00 0.  1.
     999901    1    3    3    0    0  0.97349989137E-01  0.10285323437E+00 -0.32114555854E-01  0.89190086495E+00  0.88000000000E+00 0.  1.
        -11    1    4    4    0    0 -0.54756999604E-01 -0.70288496786E-01  0.23174537094E-01  0.92065857279E-01  0.51100000000E-03 0.  1.
         11    1    4    4    0    0 -0.28560840499E-01 -0.27534514038E-01 -0.44522789691E-02  0.39924365773E-01  0.51100000000E-03 0. -1.
</event>
<event>
 8    1  0.1086235E+005  0.1043930E+01  0.7957747E-01            NaN
         13   -1    0    0    0    0  0.00000000000E+00  0.00000000000E+00  0.74505805969E-08  0.10566000000E+00  0.10566000000E+00 0.  1.
     999900   -1    0    0    0    0 -0.00000000000E+00 -0.00000000000E+00 -0.74505805969E-08  0.93827000000E+00  0.93827000000E+00 0. -1.
     999902    2    1    2    0    0  0.11462310029E-01 -0.19913788947E-01  0.52724642716E-02  0.10203558103E+01  0.10200834462E+01 0.  0.
     999903    2    3    3    0    0 -0.31294294548E-01 -0.74906616629E-01  0.10247508855E+00  0.13226758916E+00  0.20080768980E-01 0.  0.
         14    1    1    2    0    0 -0.11462310029E-01  0.19913788947E-01 -0.52724642716E-02  0.23574189720E-01  0.00000000000E+00 0. -1.
     999901    1    3    3    0    0  0.42756604577E-01  0.54992827681E-01 -0.97202624275E-01  0.88808822112E+00  0.88000000000E+00 0. -1.
        -11    1    4    4    0    0 -0.30626957521E-01 -0.49661873588E-01  0.70174181233E-01  0.91263295185E-01  0.51100000000E-03 0. -1.
         11    1    4    4    0    0 -0.66733702694E-03 -0.25244743041E-01  0.32300907313E-01  0.41004293972E-01  0.51100000000E-03 0.  1.
</event>
<event>
 8    1  0.1086235E+005  0.1043930E+01  0.7957747E-01            NaN
         13   -1    0    0    0    0  0.00000000000E+00  0.00000000000E+00  0.74505805969E-08  0.10566000000E+00  0.10566000000E+00 0.  1.
     999900   -1    0    0    0    0 -0.00000000000E+00 -0.00000000000E+00 -0.74505805969E-08  0.93827000000E+00  0.93827000000E+00 0.  1.
     999902    2    1    2    0    0 -0.91761175190E-02 -0.98878197339E-05 -0.18955608433E-01  0.10228701728E+01  0.10226533499E+01 0.  0.
     999903    2    3    3    0    0  0.74222409235E-01 -0.92927730289E-01  0.51203374780E-01  0.13129217698E+00  0.21709929922E-01 0.  0.
         14    1    1    2    0    0  0.91761175190E-02  0.98878197339E-05  0.18955608433E-01  0.21059827197E-01  0.00000000000E+00 0.  1.
     999901    1    3    3    0    0 -0.83398526754E-01  0.92917842470E-01 -0.70158983214E-01  0.89157799583E+00  0.88000000000E+00 0.  1.
        -11    1    4    4    0    0  0.62615174371E-01 -0.71407484626E-01  0.48633325865E-01  0.10670122037E+00  0.51100000000E-03 0. -1.
         11    1    4    4    0    0  0.11607234865E-01 -0.21520245664E-01  0.25700489159E-02  0.24590956611E-01  0.51100000000E-03 0.  1.
</event>
<event>
 8    1  0.1086235E+005  0.1043930E+01  0.7957747E-01            NaN
         13   -1    0    0    0    0  0.00000000000E+00  0.00000000000E+00  0.74505805969E-08  0.10566000000E+00  0.10566000000E+00 0. -1.
     999900   -1    0    0    0    0 -0.00000000000E+00 -0.00000000000E+00 -0.74505805969E-08  0.93827000000E+00  0.93827000000E+00 0.  1.
     999902    2    1    2    0    0  0.15517426908E-01  0.40027890960E-02  0.17154065512E-01  0.10204550171E+01  0.10201849671E+01 0.  0.
     999903    2    3    3    0    0 -0.59018002237E-02  0.12310854694E+00  0.41941079953E-01  0.13182722048E+00  0.20707880049E-01 0.  0.
         14    1    1    2    0    0 -0.15517426908E-01 -0.40027890960E-02 -0.17154065512E-01  0.23474982896E-01  0.00000000000E+00 0. -1.
     999901    1    3    3    0    0  0.21419227131E-01 -0.11910575785E+00 -0.24787014441E-01  0.88862779662E+00  0.88000000000E+00 0.  1.
        -11    1    4    4    0    0 -0.10189096807E-01  0.57507345401E-01  0.12180942742E-01  0.59661955683E-01  0.51100000000E-03 0.  1.
         11    1    4    4    0    0  0.42872965835E-02  0.65601201543E-01  0.29760137211E-01  0.72165264800E-01  0.51100000000E-03 0. -1.
</event>
<event>
 8    1  0.1086235E+005  0.1043930E+01  0.7957747E-01            NaN
         13   -1    0    0    0    0  0.00000000000E+00  0.00000000000E+00  0.74505805969E-08  0.10566000000E+00  0.10566000000E+00 0. -1.
     999900   -1    0    0    0    0 -0.00000000000E+00 -0.00000000000E+00 -0.74505805969E-08  0.93827000000E+00  0.93827000000E+00 0. -1.
     999902    2    1    2    0    0 -0.22250716082E-01  0.96460687796E-03  0.81596373294E-02  0.10202107143E+01  0.10199349475E+01 0.  0.
     999903    2    3    3    0    0 -0.50212373178E-02  0.12908608508E+00  0.35759232664E-02  0.13075415069E+00  0.19885434616E-01 0.  0.
         14    1    1    2    0    0  0.22250716082E-01 -0.96460687796E-03 -0.81596373294E-02  0.23719285696E-01  0.00000000000E+00 0. -1.
     999901    1    3    3    0    0 -0.17229478765E-01 -0.12812147821E+00  0.45837140629E-02  0.88945656361E+00  0.88000000000E+00 0.  1.
        -11    1    4    4    0    0 -0.53024846260E-02  0.68383387189E-01  0.11451451810E-01  0.69539922751E-01  0.51100000000E-03 0. -1.
         11    1    4    4    0    0  0.28124730824E-03  0.60702697894E-01 -0.78755285433E-02  0.61214227942E-01  0.51100000000E-03 0.  1.
</event>
<event>
 8    1  0.1086235E+005  0.1043930E+01  0.7957747E-01            NaN
         13   -1    0    0    0    0  0.00000000000E+00  0.00000000000E+00  0.74505805969E-08  0.10566000000E+00  0.10566000000E+00 0. -1.
     999900   -1    0    0    0    0 -0.00000000000E+00 -0.00000000000E+00 -0.74505805969E-08  0.93827000000E+00  0.93827000000E+00 0.  1.
     999902    2    1    2    0    0  0.11768556153E-01  0.78609612403E-02 -0.20295080905E-01  0.10191876490E+01  0.10188872754E+01 0.  0.
     999903    2    3    3    0    0 -0.23105566120E-01  0.12442288487E+00  0.19631966056E-01  0.12991994151E+00  0.21882770531E-01 0.  0.
         14    1    1    2    0    0 -0.11768556153E-01 -0.78609612403E-02  0.20295080905E-01  0.24742351030E-01  0.00000000000E+00 0. -1.
     999901    1    3    3    0    0  0.34874122273E-01 -0.11656192363E+00 -0.39927046961E-01  0.88926770746E+00  0.88000000000E+00 0.  1.
        -11    1    4    4    0    0 -0.26042642433E-01  0.91332516870E-01  0.11123898106E-01  0.95623480865E-01  0.51100000000E-03 0.  1.
         11    1    4    4    0    0  0.29370763129E-02  0.33090368002E-01  0.85080679506E-02  0.34296460649E-01  0.51100000000E-03 0. -1.
</event>
<event>
 8    1  0.1086235E+005  0.1043930E+01  0.7957747E-01            NaN
         13   -1    0    0    0    0  0.00000000000E+00  0.00000000000E+00  0.74505805969E-08  0.10566000000E+00  0.10566000000E+00 0.  1.
     999900   -1    0    0    0    0 -0.00000000000E+00 -0.00000000000E+00 -0.74505805969E-08  0.93827000000E+00  0.93827000000E+00 0. -1.
     999902    2    1    2    0    0 -0.20690467567E-01  0.92713193395E-02 -0.62373138392E-02  0.10204149645E+01  0.10201439815E+01 0.  0.
     999903    2    3    3    0    0  0.51576047964E-01 -0.11615894817E+00 -0.98200357973E-03  0.12857259078E+00  0.19415375518E-01 0.  0.
         14    1    1    2    0    0  0.20690467567E-01 -0.92713193395E-02  0.62373138392E-02  0.23515035496E-01  0.00000000000E+00 0.  1.
     999901    1    3    3    0    0 -0.72266515531E-01  0.12543026751E+00 -0.52553102595E-02  0.89184237372E+00  0.88000000000E+00 0. -1.
        -11    1    4    4    0    0  0.45816017713E-01 -0.82480741485E-01 -0.22243352131E-02  0.94378964728E-01  0.51100000000E-03 0.  1.
         11    1    4    4    0    0  0.57600302511E-02 -0.33678206686E-01  0.12423316334E-02  0.34193626057E-01  0.51100000000E-03 0. -1.
</event>
<event>
 8    1  0.1086235E+005  0.1043930E+01  0.7957747E-01            NaN
         13   -1    0    0    0    0  0.00000000000E+00  0.00000000000E+00  0.74505805969E-08  0.10566000000E+00  0.10566000000E+00 0. -1.
     999900   -1    0    0    0    0 -0.00000000000E+00 -0.00000000000E+00 -0.74505805969E-08  0.93827000000E+00  0.93827000000E+00 0.  1.
     999902    2    1    2    0    0  0.19491379190E-01 -0.14936769210E-01 -0.39859898326E-02  0.10190521172E+01  0.10187484030E+01 0.  0.
     999903    2    3    3    0    0 -0.43259908397E-01  0.10380553848E+00  0.55257537287E-01  0.12689335598E+00  0.20037935851E-01 0.  0.
         14    1    1    2    0    0 -0.19491379190E-01  0.14936769210E-01  0.39859898326E-02  0.24877882790E-01  0.00000000000E+00 0. -1.
     999901    1    3    3    0    0  0.62751287587E-01 -0.11874230768E+00 -0.59243527119E-01  0.89215876123E+00  0.88000000000E+00 0. -1.
        -11    1    4    4    0    0 -0.19010577177E-01  0.43733961353E-01  0.12597828634E-01  0.49325731900E-01  0.51100000000E-03 0.  1.
         11    1    4    4    0    0 -0.24249331220E-01  0.60071577122E-01  0.42659708653E-01  0.77567624083E-01  0.51100000000E-03 0. -1.
</event>
<event>
 8    1  0.1086235E+005  0.1043930E+01  0.7957747E-01            NaN
         13   -1    0    0    0    0  0.00000000000E+00  0.00000000000E+00  0.74505805969E-08  0.10566000000E+00  0.10566000000E+00 0. -1.
     999900   -1    0    0    0    0 -0.00000000000E+00 -0.00000000000E+00 -0.74505805969E-08  0.93827000000E+00  0.93827000000E+00 0. -1.
     999902    2    1    2    0    0 -0.22131044671E-01 -0.96251255729E-02  0.99199678085E-03  0.10197761134E+01  0.10194900251E+01 0.  0.
     999903    2    3    3    0    0  0.16491036987E-02 -0.12077796633E+00 -0.50390762957E-01  0.13097881510E+00  0.51170615228E-02 0.  0.
         14    1    1    2    0    0  0.22131044671E-01  0.96251255729E-02 -0.99199678085E-03  0.24153886605E-01  0.00000000000E+00 0.  1.
     999901    1    3    3    0    0 -0.23780148369E-01  0.11115284076E+00  0.51382759737E-01  0.88879729830E+00  0.88000000000E+00 0.  1.
        -11    1    4    4    0    0  0.30739843929E-02 -0.46634028303E-01 -0.19580859361E-01  0.50673988891E-01  0.51100000000E-03 0.  1.
         11    1    4    4    0    0 -0.14248806943E-02 -0.74143938028E-01 -0.30809903596E-01  0.80304826205E-01  0.51100000000E-03 0. -1.
</event>
<event>
 8    1  0.1086235E+005  0.1043930E+01  0.7957747E-01            NaN
         13   -1    0    0    0    0  0.00000000000E+00  0.00000000000E+00  0.74505805969E-08  0.10566000000E+00  0.10566000000E+00 0. -1.
     999900   -1    0    0    0    0 -0.00000000000E+00 -0.00000000000E+00 -0.74505805969E-08  0.93827000000E+00  0.93827000000E+00 0. -1.
     999902    2    1    2    0    0 -0.18153963868E-01 -0.93577846708E-02  0.10376142935E-01  0.10210215107E+01  0.10207644814E+01 0.  0.
     999903    2    3    3    0    0  0.34997731406E-02  0.12231816324E+00  0.40596370864E-01  0.13044826739E+00  0.19867150500E-01 0.  0.
         14    1    1    2    0    0  0.18153963868E-01  0.93577846708E-02 -0.10376142935E-01  0.22908489262E-01  0.00000000000E+00 0. -1.
     999901    1    3    3    0    0 -0.21653737009E-01 -0.13167594791E+00 -0.30220227929E-01  0.89057324334E+00  0.88000000000E+00 0. -1.
        -11    1    4    4    0    0  0.72282429285E-02  0.16544558889E-01  0.74601894760E-02  0.19541890202E-01  0.51100000000E-03 0.  1.
         11    1    4    4    0    0 -0.37284697879E-02  0.10577360435E+00  0.33136181388E-01  0.11090637719E+00  0.51100000000E-03 0. -1.
</event>
<event>
 8    1  0.1086235E+005  0.1043930E+01  0.7957747E-01            NaN
         13   -1    0    0    0    0  0.00000000000E+00  0.00000000000E+00  0.74505805969E-08  0.10566000000E+00  0.10566000000E+00 0. -1.
     999900   -1    0    0    0    0 -0.00000000000E+00 -0.00000000000E+00 -0.74505805969E-08  0.93827000000E+00  0.93827000000E+00 0. -1.
     999902    2    1    2    0    0 -0.15053806316E-01  0.16721170877E-01 -0.87670783378E-03  0.10214137113E+01  0.10211655039E+01 0.  0.
     999903    2    3    3    0    0 -0.11605104427E-01 -0.27730315354E-02  0.12975187059E+00  0.13155094493E+00  0.18103453745E-01 0.  0.
         14    1    1    2    0    0  0.15053806316E-01 -0.16721170877E-01  0.87670783378E-03  0.22516288698E-01  0.00000000000E+00 0. -1.
     999901    1    3    3    0    0 -0.34487018883E-02  0.19494202413E-01 -0.13062857843E+00  0.88986276637E+00  0.88000000000E+00 0. -1.
        -11    1    4    4    0    0 -0.11961281732E-01 -0.32209248439E-02  0.41900390047E-01  0.43696114525E-01  0.51100000000E-03 0.  1.
         11    1    4    4    0    0  0.35617730483E-03  0.44789330849E-03  0.87851480545E-01  0.87854830406E-01  0.51100000000E-03 0. -1.
</event>
<event>
 8    1  0.1086235E+005  0.1043930E+01  0.7957747E-01            NaN
         13   -1    0    0    0    0  0.00000000000E+00  0.00000000000E+00  0.74505805969E-08  0.10566000000E+00  0.10566000000E+00 0. -1.
     999900   -1    0    0    0    0 -0.00000000000E+00 -0.00000000000E+00 -0.74505805969E-08  0.93827000000E+00  0.93827000000E+00 0.  1.
     999902    2    1    2    0    0 -0.16087571602E-01 -0.55498846237E-02 -0.14369580430E-01  0.10216567869E+01  0.10214139681E+01 0.  0.
     999903    2    3    3    0    0  0.79316667498E-01  0.53964176144E-01 -0.87693229452E-01  0.13147688949E+00  0.19819281758E-01 0.  0.
         14    1    1    2    0    0  0.16087571602E-01  0.55498846237E-02  0.14369580430E-01  0.22273213084E-01  0.00000000000E+00 0. -1.
     999901    1    3    3    0    0 -0.95404239100E-01 -0.59514060768E-01  0.73323649022E-01  0.89017989742E+00  0.88000000000E+00 0. -1.
        -11    1    4    4    0    0  0.69455224212E-01  0.37970237683E-01 -0.70361258946E-01  0.10590908838E+00  0.51100000000E-03 0.  1.
         11    1    4    4    0    0  0.98614432860E-02  0.15993938461E-01 -0.17331970506E-01  0.25567801114E-01  0.51100000000E-03 0. -1.
</event>
<event>
 8    1  0.1086235E+005  0.1043930E+01  0.7957747E-01            NaN
         13   -1    0    0    0    0  0.00000000000E+00  0.00000000000E+00  0.74505805969E-08  0.10566000000E+00  0.10566000000E+00 0. -1.
     999900   -1    0    0    0    0 -0.00000000000E+00 -0.00000000000E+00 -0.74505805969E-08  0.93827000000E+00  0.93827000000E+00 0.  1.
     999902    2    1    2    0    0 -0.15802600320E-01  0.24680165147E-02 -0.17163336394E-01  0.10204695354E+01  0.10201998232E+01 0.  0.
     999903    2    3    3    0    0 -0.21514507115E-01  0.58670480654E-01 -0.11618215890E+00  0.13311612777E+00  0.17790730934E-01 0.  0.
         14    1    1    2    0    0  0.15802600320E-01 -0.24680165147E-02  0.17163336394E-01  0.23460464586E-01  0.00000000000E+00 0. -1.
     999901    1    3    3    0    0  0.57119067952E-02 -0.56202464140E-01  0.99018822509E-01  0.88735340765E+00  0.88000000000E+00 0. -1.
        -11    1    4    4    0    0 -0.21641178797E-01  0.36660245997E-01 -0.83208505706E-01  0.93467806217E-01  0.51100000000E-03 0.  1.
         11    1    4    4    0    0  0.12667168158E-03  0.22010234658E-01 -0.32973653198E-01  0.39648321548E-01  0.51100000000E-03 0. -1.
</event>
<event>
 8    1  0.1086235E+005  0.1043930E+01  0.7957747E-01            NaN
         13   -1    0    0    0    0  0.00000000000E+00  0.00000000000E+00  0.74505805969E-08  0.10566000000E+00  0.10566000000E+00 0. -1.
     999900   -1    0    0    0    0 -0.00000000000E+00 -0.00000000000E+00 -0.74505805969E-08  0.93827000000E+00  0.93827000000E+00 0. -1.
     999902    2    1    2    0    0 -0.14506196115E-02 -0.23545381749E-01 -0.11895041421E-02  0.10203100038E+01  0.10200365678E+01 0.  0.
     999903    2    3    3    0    0  0.71978493998E-01  0.11364271893E-01 -0.10623994006E+00  0.13034027809E+00  0.19789213128E-01 0.  0.
         14    1    1    2    0    0  0.14506196115E-02  0.23545381749E-01  0.11895041421E-02  0.23619996170E-01  0.00000000000E+00 0. -1.
     999901    1    3    3    0    0 -0.73429113610E-01 -0.34909653642E-01  0.10505043591E+00  0.88996972574E+00  0.88000000000E+00 0.  1.
        -11    1    4    4    0    0  0.17420725372E-01  0.42573381013E-02 -0.13292230677E-01  0.22328258275E-01  0.51100000000E-03 0.  1.
         11    1    4    4    0    0  0.54557768626E-01  0.71069337921E-02 -0.92947709380E-01  0.10801201982E+00  0.51100000000E-03 0. -1.
</event>
<event>
 8    1  0.1086235E+005  0.1043930E+01  0.7957747E-01            NaN
         13   -1    0    0    0    0  0.00000000000E+00  0.00000000000E+00  0.74505805969E-08  0.10566000000E+00  0.10566000000E+00 0.  1.
     999900   -1    0    0    0    0 -0.00000000000E+00 -0.00000000000E+00 -0.74505805969E-08  0.93827000000E+00  0.93827000000E+00 0.  1.
     999902    2    1    2    0    0 -0.18104000818E-01  0.15113127114E-01 -0.19283766905E-02  0.10202682145E+01  0.10199937987E+01 0.  0.
     999903    2    3    3    0    0 -0.55462592322E-01  0.75369483283E-01 -0.91636507316E-01  0.13287087309E+00  0.22377696183E-01 0.  0.
         14    1    1    2    0    0  0.18104000818E-01 -0.15113127114E-01  0.19283766905E-02  0.23661785508E-01  0.00000000000E+00 0. -1.
     999901    1    3    3    0    0  0.37358591504E-01 -0.60256356169E-01  0.89708130626E-01  0.88739734140E+00  0.88000000000E+00 0. -1.
        -11    1    4    4    0    0 -0.28563056365E-01  0.40086968085E-01 -0.32686644448E-01  0.59088840278E-01  0.51100000000E-03 0.  1.
         11    1    4    4    0    0 -0.26899535956E-01  0.35282515199E-01 -0.58949862868E-01  0.73782032817E-01  0.51100000000E-03 0. -1.
</event>
<event>
 8    1  0.1086235E+005  0.1043930E+01  0.7957747E-01            NaN
         13   -1    0    0    0    0  0.00000000000E+00  0.00000000000E+00  0.74505805969E-08  0.10566000000E+00  0.10566000000E+00 0. -1.
     999900   -1    0    0    0    0 -0.00000000000E+00 -0.00000000000E+00 -0.74505805969E-08  0.93827000000E+00  0.93827000000E+00 0.  1.
     999902    2    1    2    0    0  0.56345088564E-03 -0.10811445050E-01  0.19126954163E-01  0.10219517108E+01  0.10217153488E+01 0.  0.
     999903    2    3    3    0    0 -0.71679222944E-01 -0.10927201230E+00  0.18905130347E-01  0.13351851891E+00  0.19786542564E-01 0.  0.
         14    1    1    2    0    0 -0.56345088564E-03  0.10811445050E-01 -0.19126954163E-01  0.21978289208E-01  0.00000000000E+00 0.  1.
     999901    1    3    3    0    0  0.72242673829E-01  0.98460567245E-01  0.22182381634E-03  0.88843319188E+00  0.88000000000E+00 0.  1.
        -11    1    4    4    0    0 -0.25633037574E-01 -0.28205080841E-01  0.12301771291E-01  0.40052139748E-01  0.51100000000E-03 0.  1.
         11    1    4    4    0    0 -0.46046185369E-01 -0.81066931454E-01  0.66033590563E-02  0.93466379165E-01  0.51100000000E-03 0. -1.
</event>
<event>
 8    1  0.1086235E+005  0.1043930E+01  0.7957747E-01            NaN
         13   -1    0    0    0    0  0.00000000000E+00  0.00000000000E+00  0.74505805969E-08  0.10566000000E+00  0.10566000000E+00 0.  1.
     999900   -1    0    0    0    0 -0.00000000000E+00 -0.00000000000E+00 -0.74505805969E-08  0.93827000000E+00  0.93827000000E+00 0.  1.
     999902    2    1    2    0    0  0.13709440825E-01 -0.10921200219E-01  0.18562204183E-01  0.10184000802E+01  0.10180800295E+01 0.  0.
     999903    2    3    3    0    0 -0.12229311771E+00  0.75655182530E-02  0.29984668973E-01  0.12768748490E+00  0.19803275523E-01 0.  0.
         14    1    1    2    0    0 -0.13709440825E-01  0.10921200219E-01 -0.18562204183E-01  0.25529919822E-01  0.00000000000E+00 0. -1.
     999901    1    3    3    0    0  0.13600255853E+00 -0.18486718472E-01 -0.11422464790E-01  0.89071259528E+00  0.88000000000E+00 0. -1.
        -11    1    4    4    0    0 -0.59295824097E-01 -0.25516574649E-02  0.22368250428E-01  0.63427954873E-01  0.51100000000E-03 0. -1.
         11    1    4    4    0    0 -0.62997293610E-01  0.10117175718E-01  0.76164185447E-02  0.64259530026E-01  0.51100000000E-03 0.  1.
</event>
<event>
 8    1  0.1086235E+005  0.1043930E+01  0.7957747E-01            NaN
         13   -1    0    0    0    0  0.00000000000E+00  0.00000000000E+00  0.74505805969E-08  0.10566000000E+00  0.10566000000E+00 0.  1.
     999900   -1    0    0    0    0 -0.00000000000E+00 -0.00000000000E+00 -0.74505805969E-08  0.93827000000E+00  0.93827000000E+00 0. -1.
     999902    2    1    2    0    0 -0.17907185082E-01  0.11330075747E-01 -0.10501379753E-01  0.10202801190E+01  0.10200059825E+01 0.  0.
     999903    2    3    3    0    0 -0.48468620907E-01 -0.11416041472E+00 -0.32840714277E-01  0.13057179016E+00  0.24262571417E-01 0.  0.
         14    1    1    2    0    0  0.17907185082E-01 -0.11330075747E-01  0.10501379753E-01  0.23649880987E-01  0.00000000000E+00 0.  1.
     999901    1    3    3    0    0  0.30561435825E-01  0.12549049046E+00  0.22339334524E-01  0.88970832885E+00  0.88000000000E+00 0.  1.
        -11    1    4    4    0    0 -0.42920053760E-01 -0.96793551038E-01 -0.18766513252E-01  0.10753402103E+00  0.51100000000E-03 0.  1.
         11    1    4    4    0    0 -0.55485671469E-02 -0.17366863678E-01 -0.14074201025E-01  0.23037769138E-01  0.51100000000E-03 0. -1.
</event>
<event>
 8    1  0.1086235E+005  0.1043930E+01  0.7957747E-01            NaN
         13   -1    0    0    0    0  0.00000000000E+00  0.00000000000E+00  0.74505805969E-08  0.10566000000E+00  0.10566000000E+00 0. -1.
     999900   -1    0    0    0    0 -0.00000000000E+00 -0.00000000000E+00 -0.74505805969E-08  0.93827000000E+00  0.93827000000E+00 0. -1.
     999902    2    1    2    0    0  0.21240266928E-01 -0.94703851205E-02  0.16509117011E-02  0.10206155701E+01  0.10203492438E+01 0.  0.
     999903    2    3    3    0    0  0.49924966064E-01  0.85303562007E-02  0.12033577871E+00  0.13200264179E+00  0.19460950370E-01 0.  0.
         14    1    1    2    0    0 -0.21240266928E-01  0.94703851205E-02 -0.16509117011E-02  0.23314429930E-01  0.00000000000E+00 0. -1.
     999901    1    3    3    0    0 -0.28684699136E-01 -0.18000741321E-01 -0.11868486700E+00  0.88861292828E+00  0.88000000000E+00 0. -1.
        -11    1    4    4    0    0  0.34576364367E-01  0.59102465405E-02  0.10241520068E+00  0.10825705722E+00  0.51100000000E-03 0. -1.
         11    1    4    4    0    0  0.15348601697E-01  0.26201096602E-02  0.17920578026E-01  0.23745584568E-01  0.51100000000E-03 0.  1.
</event>
<event>
 8    1  0.1086235E+005  0.1043930E+01  0.7957747E-01            NaN
         13   -1    0    0    0    0  0.00000000000E+00  0.00000000000E+00  0.74505805969E-08  0.10566000000E+00  0.10566000000E+00 0. -1.
     999900   -1    0    0    0    0 -0.00000000000E+00 -0.00000000000E+00 -0.74505805969E-08  0.93827000000E+00  0.93827000000E+00 0. -1.
     999902    2    1    2    0    0  0.47822588926E-02 -0.17474647788E-01 -0.18863421995E-01  0.10177754210E+01  0.10174393080E+01 0.  0.
     999903    2    3    3    0    0  0.12653889864E+00  0.76471303521E-02 -0.67496535410E-02  0.12895455799E+00  0.22652786413E-01 0.  0.
         14    1    1    2    0    0 -0.47822588926E-02  0.17474647788E-01  0.18863421995E-01  0.26154579040E-01  0.00000000000E+00 0.  1.
     999901    1    3    3    0    0 -0.12175663975E+00 -0.25121778140E-01 -0.12113768454E-01  0.88882086297E+00  0.88000000000E+00 0.  1.
        -11    1    4    4    0    0  0.75079079164E-01 -0.11380769896E-02 -0.13564577689E-01  0.76304798252E-01  0.51100000000E-03 0.  1.
         11    1    4    4    0    0  0.51459819476E-01  0.87852073417E-02  0.68149241482E-02  0.52649759740E-01  0.51100000000E-03 0. -1.
</event>
<event>
 8    1  0.1086235E+005  0.1043930E+01  0.7957747E-01            NaN
         13   -1    0    0    0    0  0.00000000000E+00  0.00000000000E+00  0.74505805969E-08  0.10566000000E+00  0.10566000000E+00 0. -1.
     999900   -1    0    0    0    0 -0.00000000000E+00 -0.00000000000E+00 -0.74505805969E-08  0.93827000000E+00  0.93827000000E+00 0.  1.
     999902    2    1    2    0    0  0.24505315325E-01  0.39174864743E-02  0.38982574610E-02  0.10188092199E+01  0.10184994713E+01 0.  0.
     999903    2    3    3    0    0  0.12579566431E-01  0.12713653045E+00  0.16552673045E-01  0.13005430968E+00  0.17837870261E-01 0.  0.
         14    1    1    2    0    0 -0.24505315325E-01 -0.39174864743E-02 -0.38982574610E-02  0.25120780058E-01  0.00000000000E+00 0.  1.
     999901    1    3    3    0    0  0.11925748895E-01 -0.12321904397E+00 -0.12654415584E-01  0.88875491026E+00  0.88000000000E+00 0.  1.
        -11    1    4    4    0    0  0.14986628765E-01  0.89892685859E-01  0.17100192367E-01  0.92725248517E-01  0.51100000000E-03 0. -1.
         11    1    4    4    0    0 -0.24070623343E-02  0.37243844588E-01 -0.54751932213E-03  0.37329061161E-01  0.51100000000E-03 0.  1.
</event>
<event>
 8    1  0.1086235E+005  0.1043930E+01  0.7957747E-01            NaN
         13   -1    0    0    0    0  0.00000000000E+00  0.00000000000E+00  0.74505805969E-08  0.10566000000E+00  0.10566000000E+00 0.  1.
     999900   -1    0    0    0    0 -0.00000000000E+00 -0.00000000000E+00 -0.74505805969E-08  0.93827000000E+00  0.93827000000E+00 0. -1.
     999902    2    1    2    0    0  0.39438212108E-02 -0.13153113814E-01  0.18359417792E-01  0.10210034575E+01  0.10207460183E+01 0.  0.
     999903    2    3    3    0    0 -0.24010736330E-01  0.11735841539E+00  0.48041990710E-01  0.13044421093E+00  0.18924750237E-01 0.  0.
         14    1    1    2    0    0 -0.39438212108E-02  0.13153113814E-01 -0.18359417792E-01  0.22926542487E-01  0.00000000000E+00 0. -1.
     999901    1    3    3    0    0  0.27954557541E-01 -0.13051152920E+00 -0.29682572918E-01  0.89055924658E+00  0.88000000000E+00 0. -1.
        -11    1    4    4    0    0 -0.82400534473E-02  0.50975022101E-01  0.10973236401E-01  0.52792275923E-01  0.51100000000E-03 0.  1.
         11    1    4    4    0    0 -0.15770682883E-01  0.66383393289E-01  0.37068754309E-01  0.77651935006E-01  0.51100000000E-03 0. -1.
</event>
<event>
 8    1  0.1086235E+005  0.1043930E+01  0.7957747E-01            NaN
         13   -1    0    0    0    0  0.00000000000E+00  0.00000000000E+00  0.74505805969E-08  0.10566000000E+00  0.10566000000E+00 0.  1.
     999900   -1    0    0    0    0 -0.00000000000E+00 -0.00000000000E+00 -0.74505805969E-08  0.93827000000E+00  0.93827000000E+00 0. -1.
     999902    2    1    2    0    0 -0.16218091260E-01 -0.16607127295E-01 -0.52622017924E-02  0.10201284469E+01  0.10198507412E+01 0.  0.
     999903    2    3    3    0    0  0.65402164362E-01  0.74465406513E-01 -0.79473765388E-01  0.12857731058E+00  0.19836974096E-01 0.  0.
         14    1    1    2    0    0  0.16218091260E-01  0.16607127295E-01  0.52622017924E-02  0.23801553076E-01  0.00000000000E+00 0. -1.
     999901    1    3    3    0    0 -0.81620255622E-01 -0.91072533808E-01  0.74211563595E-01  0.89155113634E+00  0.88000000000E+00 0.  1.
        -11    1    4    4    0    0  0.41332760705E-02  0.13167819060E-01 -0.16087732176E-01  0.21202633738E-01  0.51100000000E-03 0. -1.
         11    1    4    4    0    0  0.61268888292E-01  0.61297587453E-01 -0.63386033212E-01  0.10737467684E+00  0.51100000000E-03 0.  1.
</event>
<event>
 8    1  0.1086235E+005  0.1043930E+01  0.7957747E-01            NaN
         13   -1    0    0    0    0  0.00000000000E+00  0.00000000000E+00  0.74505805969E-08  0.10566000000E+00  0.10566000000E+00 0.  1.
     999900   -1    0    0    0    0 -0.00000000000E+00 -0.00000000000E+00 -0.74505805969E-08  0.93827000000E+00  0.93827000000E+00 0. -1.
     999902    2    1    2    0    0 -0.16693319940E-01  0.11507182856E-01 -0.14999439895E-01  0.10187096633E+01  0.10183974237E+01 0.  0.
     999903    2    3    3    0    0 -0.30486444348E-01  0.31943345298E-01 -0.12271374400E+00  0.13179915012E+00  0.19040809034E-01 0.  0.
         14    1    1    2    0    0  0.16693319940E-01 -0.11507182856E-01  0.14999439895E-01  0.25220336735E-01  0.00000000000E+00 0.  1.
     999901    1    3    3    0    0  0.13793124408E-01 -0.20436162443E-01  0.10771430410E+00  0.88691051314E+00  0.88000000000E+00 0.  1.
        -11    1    4    4    0    0 -0.26368405906E-01  0.14543479144E-01 -0.73224930788E-01  0.79176746747E-01  0.51100000000E-03 0.  1.
         11    1    4    4    0    0 -0.41180384415E-02  0.17399866155E-01 -0.49488813211E-01  0.52622403373E-01  0.51100000000E-03 0. -1.
</event>
<event>
 8    1  0.1086235E+005  0.1043930E+01  0.7957747E-01            NaN
         13   -1    0    0    0    0  0.00000000000E+00  0.00000000000E+00  0.74505805969E-08  0.10566000000E+00  0.10566000000E+00 0.  1.
     999900   -1    0    0    0    0 -0.00000000000E+00 -0.00000000000E+00 -0.74505805969E-08  0.93827000000E+00  0.93827000000E+00 0.  1.
     999902    2    1    2    0    0 -0.22364273414E-02 -0.21234871192E-01 -0.11552488850E-01  0.10196528222E+01  0.10193637705E+01 0.  0.
     999903    2    3    3    0    0 -0.52456797399E-01  0.21231813843E-01 -0.11643955106E+00  0.13098708039E+00  0.19923369826E-01 0.  0.
         14    1    1    2    0    0  0.22364273414E-02  0.21234871192E-01  0.11552488850E-01  0.24277177768E-01  0.00000000000E+00 0.  1.
     999901    1    3    3    0    0  0.50220370058E-01 -0.42466685035E-01  0.10488706221E+00  0.88866574184E+00  0.88000000000E+00 0. -1.
        -11    1    4    4    0    0 -0.76950514680E-02 -0.29182655436E-02 -0.95804357394E-02  0.12640251613E-01  0.51100000000E-03 0.  1.
         11    1    4    4    0    0 -0.44761745931E-01  0.24150079387E-01 -0.10685911532E+00  0.11834682878E+00  0.51100000000E-03 0. -1.
</event>
<event>
 8    1  0.1086235E+005  0.1043930E+01  0.7957747E-01            NaN
         13   -1    0    0    0    0  0.00000000000E+00  0.00000000000E+00  0.74505805969E-08  0.10566000000E+00  0.10566000000E+00 0. -1.
     999900   -1    0    0    0    0 -0.00000000000E+00 -0.00000000000E+00 -0.74505805969E-08  0.93827000000E+00  0.93827000000E+00 0. -1.
     999902    2    1    2    0    0 -0.16120051575E-02  0.90649742891E-02 -0.23833363421E-01  0.10183800190E+01  0.10180594587E+01 0.  0.
     999903    2    3    3    0    0  0.93399146837E-01  0.70093407184E-01 -0.54777361473E-01  0.13062491779E+00  0.20635490242E-01 0.  0.
         14    1    1    2    0    0  0.16120051575E-02 -0.90649742891E-02  0.23833363421E-01  0.25549981046E-01  0.00000000000E+00 0. -1.
     999901    1    3    3    0    0 -0.95011151995E-01 -0.61028432895E-01  0.30943998053E-01  0.88775510116E+00  0.88000000000E+00 0.  1.
        -11    1    4    4    0    0  0.57189361909E-01  0.38918509054E-01 -0.42855348748E-01  0.81376381708E-01  0.51100000000E-03 0. -1.
         11    1    4    4    0    0  0.36209784928E-01  0.31174898130E-01 -0.11922012725E-01  0.49248536084E-01  0.51100000000E-03 0.  1.
</event>
<event>
 8    1  0.1086235E+005  0.1043930E+01  0.7957747E-01            NaN
         13   -1    0    0    0    0  0.00000000000E+00  0.00000000000E+00  0.74505805969E-08  0.10566000000E+00  0.10566000000E+00 0.  1.
     999900   -1    0    0    0    0 -0.00000000000E+00 -0.00000000000E+00 -0.74505805969E-08  0.93827000000E+00  0.93827000000E+00 0.  1.
     999902    2    1    2    0    0 -0.81959723199E-02 -0.67638955670E-02 -0.20863418017E-01  0.10205161909E+01  0.10202475628E+01 0.  0.
     999903    2    3    3    0    0  0.96725717327E-01 -0.73844259332E-01 -0.45501592747E-01  0.13140687488E+00  0.19711235256E-01 0.  0.
         14    1    1    2    0    0  0.81959723199E-02  0.67638955670E-02  0.20863418017E-01  0.23413809107E-01  0.00000000000E+00 0.  1.
     999901    1    3    3    0    0 -0.10492168965E+00  0.67080363765E-01  0.24638174730E-01  0.88910931601E+00  0.88000000000E+00 0.  1.
        -11    1    4    4    0    0  0.60889898136E-01 -0.45963145136E-01 -0.18231347494E-01  0.78439999734E-01  0.51100000000E-03 0. -1.
         11    1    4    4    0    0  0.35835819191E-01 -0.27881114196E-01 -0.27270245253E-01  0.52966875149E-01  0.51100000000E-03 0.  1.
</event>
<event>
 8    1  0.1086235E+005  0.1043930E+01  0.7957747E-01            NaN
         13   -1    0    0    0    0  0.00000000000E+00  0.00000000000E+00  0.74505805969E-08  0.10566000000E+00  0.10566000000E+00 0.  1.
     999900   -1    0    0    0    0 -0.00000000000E+00 -0.00000000000E+00 -0.74505805969E-08  0.93827000000E+00  0.93827000000E+00 0. -1.
     999902    2    1    2    0    0 -0.18181874598E-01 -0.13004521109E-01  0.27522959705E-02  0.10214072722E+01  0.10211589213E+01 0.  0.
     999903    2    3    3    0    0  0.49623675942E-01 -0.59636406956E-01  0.10452343896E+00  0.13172784063E+00  0.20200605351E-01 0.  0.
         14    1    1    2    0    0  0.18181874598E-01  0.13004521109E-01 -0.27522959705E-02  0.22522727772E-01  0.00000000000E+00 0.  1.
     999901    1    3    3    0    0 -0.67805550539E-01  0.46631885847E-01 -0.10177114299E+00  0.88967943160E+00  0.88000000000E+00 0. -1.
        -11    1    4    4    0    0  0.13928900083E-01 -0.28342187264E-01  0.31333477857E-01  0.44489794245E-01  0.51100000000E-03 0.  1.
         11    1    4    4    0    0  0.35694775859E-01 -0.31294219693E-01  0.73189961104E-01  0.87238046386E-01  0.51100000000E-03 0. -1.
</event>
<event>
 8    1  0.1086235E+005  0.1043930E+01  0.7957747E-01            NaN
         13   -1    0    0    0    0  0.00000000000E+00  0.00000000000E+00  0.74505805969E-08  0.10566000000E+00  0.10566000000E+00 0. -1.
     999900   -1    0    0    0    0 -0.00000000000E+00 -0.00000000000E+00 -0.74505805969E-08  0.93827000000E+00  0.93827000000E+00 0. -1.
     999902    2    1    2    0    0 -0.20461949939E-01 -0.25858076608E-02 -0.12512514647E-01  0.10198065504E+01  0.10195211913E+01 0.  0.
     999903    2    3    3    0    0  0.12368823814E+00  0.17851350549E-01 -0.17240107734E-01  0.12783160442E+00  0.20645745408E-01 0.  0.
         14    1    1    2    0    0  0.20461949939E-01  0.25858076608E-02  0.12512514647E-01  0.24123449575E-01  0.00000000000E+00 0. -1.
     999901    1    3    3    0    0 -0.14415018808E+00 -0.20437158210E-01  0.47275930864E-02  0.89197494600E+00  0.88000000000E+00 0.  1.
        -11    1    4    4    0    0  0.62914738793E-01  0.18106505433E-01 -0.14117973268E-01  0.66975280414E-01  0.51100000000E-03 0.  1.
         11    1    4    4    0    0  0.60773499350E-01 -0.25515488416E-03 -0.31221344658E-02  0.60856324009E-01  0.51100000000E-03 0. -1.
</event>
<event>
 8    1  0.1086235E+005  0.1043930E+01  0.7957747E-01            NaN
         13   -1    0    0    0    0  0.00000000000E+00  0.00000000000E+00  0.74505805969E-08  0.10566000000E+00  0.10566000000E+00 0. -1.
     999900   -1    0    0    0    0 -0.00000000000E+00 -0.00000000000E+00 -0.74505805969E-08  0.93827000000E+00  0.93827000000E+00 0.  1.
     999902    2    1    2    0    0  0.14421407830E-01  0.13766633463E-01 -0.58797114505E-03  0.10239840001E+01  0.10237897194E+01 0.  0.
     999903    2    3    3    0    0 -0.40549703986E-01 -0.12116106346E+00  0.23539052821E-01  0.13167832391E+00  0.21466536469E-01 0.  0.
         14    1    1    2    0    0 -0.14421407830E-01 -0.13766633463E-01  0.58797114505E-03  0.19945999869E-01  0.00000000000E+00 0.  1.
     999901    1    3    3    0    0  0.54971111816E-01  0.13492769692E+00 -0.24127023966E-01  0.89230567622E+00  0.88000000000E+00 0. -1.
        -11    1    4    4    0    0 -0.39790245576E-01 -0.91957210583E-01  0.20779906860E-01  0.10233014156E+00  0.51100000000E-03 0. -1.
         11    1    4    4    0    0 -0.75945841036E-03 -0.29203852876E-01  0.27591459607E-02  0.29348182351E-01  0.51100000000E-03 0.  1.
</event>
<event>
 8    1  0.1086235E+005  0.1043930E+01  0.7957747E-01            NaN
         13   -1    0    0    0    0  0.00000000000E+00  0.00000000000E+00  0.74505805969E-08  0.10566000000E+00  0.10566000000E+00 0.  1.
     999900   -1    0    0    0    0 -0.00000000000E+00 -0.00000000000E+00 -0.74505805969E-08  0.93827000000E+00  0.93827000000E+00 0. -1.
     999902    2    1    2    0    0  0.20892095541E-02  0.16671357546E-01 -0.12579754508E-01  0.10229407365E+01  0.10227253792E+01 0.  0.
     999903    2    3    3    0    0 -0.74792992682E-01  0.10961718239E+00  0.58930481433E-02  0.13452020329E+00  0.21237670523E-01 0.  0.
         14    1    1    2    0    0 -0.20892095541E-02 -0.16671357546E-01  0.12579754508E-01  0.20989263505E-01  0.00000000000E+00 0.  1.
     999901    1    3    3    0    0  0.76882202236E-01 -0.92945824840E-01 -0.18472802651E-01  0.88842053320E+00  0.88000000000E+00 0. -1.
        -11    1    4    4    0    0 -0.29884632817E-01  0.53124656802E-01 -0.64755116507E-02  0.61298562879E-01  0.51100000000E-03 0. -1.
         11    1    4    4    0    0 -0.44908359865E-01  0.56492525584E-01  0.12368559794E-01  0.73221640415E-01  0.51100000000E-03 0.  1.
</event>
<event>
 8    1  0.1086235E+005  0.1043930E+01  0.7957747E-01            NaN
         13   -1    0    0    0    0  0.00000000000E+00  0.00000000000E+00  0.74505805969E-08  0.10566000000E+00  0.10566000000E+00 0. -1.
     999900   -1    0    0    0    0 -0.00000000000E+00 -0.00000000000E+00 -0.74505805969E-08  0.93827000000E+00  0.93827000000E+00 0.  1.
     999902    2    1    2    0    0  0.22893144328E-01 -0.24995143988E-02 -0.53292333255E-03  0.10208946438E+01  0.10206347270E+01 0.  0.
     999903    2    3    3    0    0 -0.11753069638E+00 -0.35967255061E-01  0.31793296515E-01  0.12854721748E+00  0.20160986842E-01 0.  0.
         14    1    1    2    0    0 -0.22893144328E-01  0.24995143988E-02  0.53292333255E-03  0.23035356232E-01  0.00000000000E+00 0. -1.
     999901    1    3    3    0    0  0.14042384071E+00  0.33467740662E-01 -0.32326219847E-01  0.89234742628E+00  0.88000000000E+00 0.  1.
        -11    1    4    4    0    0 -0.55353406122E-01 -0.16095075766E-01  0.45983823165E-02  0.57831282833E-01  0.51100000000E-03 0. -1.
         11    1    4    4    0    0 -0.62177290262E-01 -0.19872179295E-01  0.27194914198E-01  0.70715934651E-01  0.51100000000E-03 0.  1.
</event>
<event>
 8    1  0.1086235E+005  0.1043930E+01  0.7957747E-01            NaN
         13   -1    0    0    0    0  0.00000000000E+00  0.00000000000E+00  0.74505805969E-08  0.10566000000E+00  0.10566000000E+00 0.  1.
     999900   -1    0    0    0    0 -0.00000000000E+00 -0.00000000000E+00 -0.74505805969E-08  0.93827000000E+00  0.93827000000E+00 0. -1.
     999902    2    1    2    0    0  0.54810170358E-02  0.21222077900E-01 -0.17273233631E-02  0.10219436000E+01  0.10217070617E+01 0.  0.
     999903    2    3    3    0    0  0.61796576232E-01  0.11034037128E+00  0.41367636223E-01  0.13460449462E+00  0.20329148487E-01 0.  0.
         14    1    1    2    0    0 -0.54810170358E-02 -0.21222077900E-01  0.17273233631E-02  0.21986399982E-01  0.00000000000E+00 0.  1.
     999901    1    3    3    0    0 -0.56315559197E-01 -0.89118293378E-01 -0.43094959586E-01  0.88733910540E+00  0.88000000000E+00 0. -1.
        -11    1    4    4    0    0  0.41623774338E-01  0.75861837887E-01  0.18207558457E-01  0.88426994429E-01  0.51100000000E-03 0.  1.
         11    1    4    4    0    0  0.20172801895E-01  0.34478533391E-01  0.23160077766E-01  0.46177500194E-01  0.51100000000E-03 0. -1.
</event>
<event>
 8    1  0.1086235E+005  0.1043930E+01  0.7957747E-01            NaN
         13   -1    0    0    0    0  0.00000000000E+00  0.00000000000E+00  0.74505805969E-08  0.10566000000E+00  0.10566000000E+00 0. -1.
     999900   -1    0    0    0    0 -0.00000000000E+00 -0.00000000000E+00 -0.74505805969E-08  0.93827000000E+00  0.93827000000E+00 0. -1.
     999902    2    1    2    0    0 -0.14506646243E-01  0.17651748039E-01  0.63588209666E-02  0.10202137271E+01  0.10199380312E+01 0.  0.
     999903    2    3    3    0    0  0.25127064370E-01  0.11557306872E+00 -0.54553591387E-01  0.13180518484E+00  0.20199228717E-01 0.  0.
         14    1    1    2    0    0  0.14506646243E-01 -0.17651748039E-01 -0.63588209666E-02  0.23716272855E-01  0.00000000000E+00 0.  1.
     999901    1    3    3    0    0 -0.39633710613E-01 -0.97921320681E-01  0.60912412353E-01  0.88840854230E+00  0.88000000000E+00 0.  1.
        -11    1    4    4    0    0 -0.21269663621E-02  0.18041722249E-01 -0.12988105281E-01  0.22337854136E-01  0.51100000000E-03 0.  1.
         11    1    4    4    0    0  0.27254030733E-01  0.97531346470E-01 -0.41565486105E-01  0.10946733070E+00  0.51100000000E-03 0. -1.
</event>
<event>
 8    1  0.1086235E+005  0.1043930E+01  0.7957747E-01            NaN
         13   -1    0    0    0    0  0.00000000000E+00  0.00000000000E+00  0.74505805969E-08  0.10566000000E+00  0.10566000000E+00 0.  1.
     999900   -1    0    0    0    0 -0.00000000000E+00 -0.00000000000E+00 -0.74505805969E-08  0.93827000000E+00  0.93827000000E+00 0. -1.
     999902    2    1    2    0    0 -0.23348242104E-01 -0.28765371295E-02 -0.47146758321E-03  0.10204005045E+01  0.10201291842E+01 0.  0.
     999903    2    3    3    0    0  0.12359593071E+00  0.24104583771E-01  0.85028709914E-02  0.12776333885E+00  0.19854140397E-01 0.  0.
         14    1    1    2    0    0  0.23348242104E-01  0.28765371295E-02  0.47146758321E-03  0.23529495466E-01  0.00000000000E+00 0.  1.
     999901    1    3    3    0    0 -0.14694417282E+00 -0.26981120901E-01 -0.89743385746E-02  0.89263716569E+00  0.88000000000E+00 0.  1.
        -11    1    4    4    0    0  0.64204377247E-01  0.16307482684E-01 -0.47375396386E-02  0.66414166049E-01  0.51100000000E-03 0. -1.
         11    1    4    4    0    0  0.59391553467E-01  0.77971010878E-02  0.13240410630E-01  0.61349172800E-01  0.51100000000E-03 0.  1.
</event>
<event>
 8    1  0.1086235E+005  0.1043930E+01  0.7957747E-01            NaN
         13   -1    0    0    0    0  0.00000000000E+00  0.00000000000E+00  0.74505805969E-08  0.10566000000E+00  0.10566000000E+00 0. -1.
     999900   -1    0    0    0    0 -0.00000000000E+00 -0.00000000000E+00 -0.74505805969E-08  0.93827000000E+00  0.93827000000E+00 0. -1.
     999902    2    1    2    0    0 -0.25197884682E-02  0.24425266915E-01 -0.33090492629E-02  0.10191531397E+01  0.10188519173E+01 0.  0.
     999903    2    3    3    0    0  0.10648717607E-01  0.22785644965E-01 -0.12636848942E+00  0.13049137971E+00  0.20650042527E-01 0.  0.
         14    1    1    2    0    0  0.25197884682E-02 -0.24425266915E-01  0.33090492629E-02  0.24776860270E-01  0.00000000000E+00 0. -1.
     999901    1    3    3    0    0 -0.13168506075E-01  0.16396219497E-02  0.12305944016E+00  0.88866176002E+00  0.88000000000E+00 0.  1.
        -11    1    4    4    0    0 -0.49249006539E-03  0.54741010545E-02 -0.74206567200E-01  0.74411585559E-01  0.51100000000E-03 0.  1.
         11    1    4    4    0    0  0.11141207673E-01  0.17311543911E-01 -0.52161922222E-01  0.56079794150E-01  0.51100000000E-03 0. -1.
</event>
<event>
 8    1  0.1086235E+005  0.1043930E+01  0.7957747E-01            NaN
         13   -1    0    0    0    0  0.00000000000E+00  0.00000000000E+00  0.74505805969E-08  0.10566000000E+00  0.10566000000E+00 0.  1.
     999900   -1    0    0    0    0 -0.00000000000E+00 -0.00000000000E+00 -0.74505805969E-08  0.93827000000E+00  0.93827000000E+00 0. -1.
     999902    2    1    2    0    0  0.10247131020E-01  0.52033402594E-02  0.11511693672E-02  0.10323799509E+01  0.10323153391E+01 0.  0.
     999903    2    3    3    0    0  0.12121342836E+00 -0.70362915999E-01  0.11541884203E-01  0.14213743044E+00  0.20644584685E-01 0.  0.
         14    1    1    2    0    0 -0.10247131020E-01 -0.52033402594E-02 -0.11511693672E-02  0.11550049130E-01  0.00000000000E+00 0.  1.
     999901    1    3    3    0    0 -0.11096629734E+00  0.75566256259E-01 -0.10390714836E-01  0.89024252043E+00  0.88000000000E+00 0. -1.
        -11    1    4    4    0    0  0.67207123699E-01 -0.27872162212E-01  0.96033396010E-02  0.73390327392E-01  0.51100000000E-03 0. -1.
         11    1    4    4    0    0  0.54006304665E-01 -0.42490753787E-01  0.19385446020E-02  0.68747103046E-01  0.51100000000E-03 0.  1.
</event>
<event>
 8    1  0.1086235E+005  0.1043930E+01  0.7957747E-01            NaN
         13   -1    0    0    0    0  0.00000000000E+00  0.00000000000E+00  0.74505805969E-08  0.10566000000E+00  0.10566000000E+00 0. -1.
     999900   -1    0    0    0    0 -0.00000000000E+00 -0.00000000000E+00 -0.74505805969E-08  0.93827000000E+00  0.93827000000E+00 0.  1.
     999902    2    1    2    0    0  0.10205935867E-01 -0.21692106861E-01  0.29187645860E-02  0.10197798900E+01  0.10194938922E+01 0.  0.
     999903    2    3    3    0    0 -0.22338580902E-01  0.83234148712E-02 -0.12561902616E+00  0.12934064963E+00  0.19508267035E-01 0.  0.
         14    1    1    2    0    0 -0.10205935867E-01  0.21692106861E-01 -0.29187645860E-02  0.24150110014E-01  0.00000000000E+00 0. -1.
     999901    1    3    3    0    0  0.32544516769E-01 -0.30015521732E-01  0.12853779074E+00  0.89043924036E+00  0.88000000000E+00 0. -1.
        -11    1    4    4    0    0 -0.18639173137E-01 -0.82196940048E-03 -0.10271746915E+00  0.10439939654E+00  0.51100000000E-03 0.  1.
         11    1    4    4    0    0 -0.36994077649E-02  0.91453842717E-02 -0.22901557003E-01  0.24941253085E-01  0.51100000000E-03 0. -1.
</event>
<event>
 8    1  0.1086235E+005  0.1043930E+01  0.7957747E-01            NaN
         13   -1    0    0    0    0  0.00000000000E+00  0.00000000000E+00  0.74505805969E-08  0.10566000000E+00  0.10566000000E+00 0.  1.
     999900   -1    0    0    0    0 -0.00000000000E+00 -0.00000000000E+00 -0.74505805969E-08  0.93827000000E+00  0.93827000000E+00 0.  1.
     999902    2    1    2    0    0 -0.23828951290E-01  0.17811190172E-02  0.10432118884E-02  0.10200118145E+01  0.10197313481E+01 0.  0.
     999903    2    3    3    0    0  0.32646504885E-01  0.16434673833E-01 -0.12223509150E+00  0.12950536094E+00  0.22233491274E-01 0.  0.
         14    1    1    2    0    0  0.23828951290E-01 -0.17811190172E-02 -0.10432118884E-02  0.23918185457E-01  0.00000000000E+00 0.  1.
     999901    1    3    3    0    0 -0.56475456175E-01 -0.14653554816E-01  0.12327830339E+00  0.89050645360E+00  0.88000000000E+00 0. -1.
        -11    1    4    4    0    0  0.10984193379E-01  0.11111142700E-01 -0.82191773337E-01  0.83665158349E-01  0.51100000000E-03 0.  1.
         11    1    4    4    0    0  0.21662311506E-01  0.53235311334E-02 -0.40043318160E-01  0.45840202593E-01  0.51100000000E-03 0. -1.
</event>
<event>
 8    1  0.1086235E+005  0.1043930E+01  0.7957747E-01            NaN
         13   -1    0    0    0    0  0.00000000000E+00  0.00000000000E+00  0.74505805969E-08  0.10566000000E+00  0.10566000000E+00 0.  1.
     999900   -1    0    0    0    0 -0.00000000000E+00 -0.00000000000E+00 -0.74505805969E-08  0.93827000000E+00  0.93827000000E+00 0. -1.
     999902    2    1    2    0    0  0.11937089544E-01  0.18370609678E-01  0.52369615168E-02  0.10214044773E+01  0.10211560640E+01 0.  0.
     999903    2    3    3    0    0 -0.31113274969E-01  0.12826657747E+00 -0.17861195492E-02  0.13349694761E+00  0.19947281114E-01 0.  0.
         14    1    1    2    0    0 -0.11937089544E-01 -0.18370609678E-01 -0.52369615168E-02  0.22525522694E-01  0.00000000000E+00 0. -1.
     999901    1    3    3    0    0  0.43050364512E-01 -0.10989596779E+00  0.70230810660E-02  0.88790752969E+00  0.88000000000E+00 0.  1.
        -11    1    4    4    0    0 -0.29475969434E-01  0.10560473452E+00  0.50672750771E-02  0.10975942385E+00  0.51100000000E-03 0. -1.
         11    1    4    4    0    0 -0.16373055350E-02  0.22661842950E-01 -0.68533946263E-02  0.23737523759E-01  0.51100000000E-03 0.  1.
</event>
<event>
 8    1  0.1086235E+005  0.1043930E+01  0.7957747E-01            NaN
         13   -1    0    0    0    0  0.00000000000E+00  0.00000000000E+00  0.74505805969E-08  0.10566000000E+00  0.10566000000E+00 0.  1.
     999900   -1    0    0    0    0 -0.00000000000E+00 -0.00000000000E+00 -0.74505805969E-08  0.93827000000E+00  0.93827000000E+00 0.  1.
     999902    2    1    2    0    0 -0.11624322076E-01 -0.17620012610E-01 -0.82739033111E-02  0.10212573913E+01  0.10210056866E+01 0.  0.
     999903    2    3    3    0    0  0.71981004831E-01 -0.81395359493E-01  0.71065044850E-01  0.13145302280E+00  0.20571509413E-01 0.  0.
         14    1    1    2    0    0  0.11624322076E-01  0.17620012610E-01  0.82739033111E-02  0.22672608674E-01  0.00000000000E+00 0.  1.
     999901    1    3    3    0    0 -0.83605326907E-01  0.63775346883E-01 -0.79338948161E-01  0.88980436853E+00  0.88000000000E+00 0.  1.
        -11    1    4    4    0    0  0.31989357234E-01 -0.45471691593E-01  0.26346474722E-01  0.61525535868E-01  0.51100000000E-03 0.  1.
         11    1    4    4    0    0  0.39991647597E-01 -0.35923667900E-01  0.44718570128E-01  0.69927486929E-01  0.51100000000E-03 0. -1.
</event>
<event>
 8    1  0.1086235E+005  0.1043930E+01  0.7957747E-01            NaN
         13   -1    0    0    0    0  0.00000000000E+00  0.00000000000E+00  0.74505805969E-08  0.10566000000E+00  0.10566000000E+00 0. -1.
     999900   -1    0    0    0    0 -0.00000000000E+00 -0.00000000000E+00 -0.74505805969E-08  0.93827000000E+00  0.93827000000E+00 0. -1.
     999902    2    1    2    0    0  0.90861380659E-04 -0.13414291525E-01  0.19537100521E-01  0.10202308488E+01  0.10199555554E+01 0.  0.
     999903    2    3    3    0    0  0.52405106697E-01 -0.11730096365E-01 -0.11463845802E+00  0.12852310668E+00  0.22188342089E-01 0.  0.
         14    1    1    2    0    0 -0.90861380659E-04  0.13414291525E-01 -0.19537100521E-01  0.23699151244E-01  0.00000000000E+00 0.  1.
     999901    1    3    3    0    0 -0.52314245317E-01 -0.16841951607E-02  0.13417555854E+00  0.89170774208E+00  0.88000000000E+00 0.  1.
        -11    1    4    4    0    0  0.96943162901E-02  0.15301080066E-02 -0.42690004847E-01  0.43806604909E-01  0.51100000000E-03 0.  1.
         11    1    4    4    0    0  0.42710790407E-01 -0.13260204371E-01 -0.71948453170E-01  0.84716501767E-01  0.51100000000E-03 0. -1.
</event>
<event>
 8    1  0.1086235E+005  0.1043930E+01  0.7957747E-01            NaN
         13   -1    0    0    0    0  0.00000000000E+00  0.00000000000E+00  0.74505805969E-08  0.10566000000E+00  0.10566000000E+00 0. -1.
     999900   -1    0    0    0    0 -0.00000000000E+00 -0.00000000000E+00 -0.74505805969E-08  0.93827000000E+00  0.93827000000E+00 0.  1.
     999902    2    1    2    0    0  0.18819362296E-01 -0.12816215758E-01 -0.78945421313E-02  0.10198312951E+01  0.10195465280E+01 0.  0.
     999903    2    3    3    0    0  0.10448084750E+00 -0.32264348633E-01  0.70113822589E-01  0.13202420742E+00  0.23605243906E-01 0.  0.
         14    1    1    2    0    0 -0.18819362296E-01  0.12816215758E-01  0.78945421313E-02  0.24098704925E-01  0.00000000000E+00 0.  1.
     999901    1    3    3    0    0 -0.85661485206E-01  0.19448132875E-01 -0.78008364721E-01  0.88780708765E+00  0.88000000000E+00 0. -1.
        -11    1    4    4    0    0  0.40951912541E-01 -0.35202971729E-02  0.34812603911E-01  0.53866781462E-01  0.51100000000E-03 0. -1.
         11    1    4    4    0    0  0.63528934961E-01 -0.28744051460E-01  0.35301218679E-01  0.78157425961E-01  0.51100000000E-03 0.  1.
</event>
<event>
 8    1  0.1086235E+005  0.1043930E+01  0.7957747E-01            NaN
         13   -1    0    0    0    0  0.00000000000E+00  0.00000000000E+00  0.74505805969E-08  0.10566000000E+00  0.10566000000E+00 0.  1.
     999900   -1    0    0    0    0 -0.00000000000E+00 -0.00000000000E+00 -0.74505805969E-08  0.93827000000E+00  0.93827000000E+00 0. -1.
     999902    2    1    2    0    0  0.18182714242E-01 -0.68301069047E-02  0.14186931010E-01  0.10198773397E+01  0.10195936727E+01 0.  0.
     999903    2    3    3    0    0 -0.19287451160E-01  0.24453536818E-02 -0.12493922502E+00  0.12811159983E+00  0.20610350159E-01 0.  0.
         14    1    1    2    0    0 -0.18182714242E-01  0.68301069047E-02 -0.14186931010E-01  0.24052660332E-01  0.00000000000E+00 0. -1.
     999901    1    3    3    0    0  0.37470165402E-01 -0.92754605865E-02  0.13912615603E+00  0.89176573984E+00  0.88000000000E+00 0.  1.
        -11    1    4    4    0    0 -0.18150577672E-01 -0.50835101209E-02 -0.64723492078E-01  0.67414220256E-01  0.51100000000E-03 0.  1.
         11    1    4    4    0    0 -0.11368734877E-02  0.75288638027E-02 -0.60215732945E-01  0.60697379570E-01  0.51100000000E-03 0. -1.
</event>
<event>
 8    1  0.1086235E+005  0.1043930E+01  0.7957747E-01            NaN
         13   -1    0    0    0    0  0.00000000000E+00  0.00000000000E+00  0.74505805969E-08  0.10566000000E+00  0.10566000000E+00 0.  1.
     999900   -1    0    0    0    0 -0.00000000000E+00 -0.00000000000E+00 -0.74505805969E-08  0.93827000000E+00  0.93827000000E+00 0.  1.
     999902    2    1    2    0    0 -0.10763688602E-02  0.27844022573E-02  0.21314100505E-01  0.10224078638E+01  0.10221813135E+01 0.  0.
     999903    2    3    3    0    0  0.85576890519E-01  0.92974190837E-01  0.37947101343E-01  0.13340862757E+00  0.19755380433E-01 0.  0.
         14    1    1    2    0    0  0.10763688602E-02 -0.27844022573E-02 -0.21314100505E-01  0.21522136190E-01  0.00000000000E+00 0. -1.
     999901    1    3    3    0    0 -0.86653259379E-01 -0.90189788580E-01 -0.16633000838E-01  0.88899923624E+00  0.88000000000E+00 0.  1.
        -11    1    4    4    0    0  0.66343985085E-01  0.72956422556E-01  0.37897382520E-01  0.10564391451E+00  0.51100000000E-03 0. -1.
         11    1    4    4    0    0  0.19232905434E-01  0.20017768281E-01  0.49718822830E-04  0.27764713061E-01  0.51100000000E-03 0.  1.
</event>
<event>
 8    1  0.1086235E+005  0.1043930E+01  0.7957747E-01            NaN
         13   -1    0    0    0    0  0.00000000000E+00  0.00000000000E+00  0.74505805969E-08  0.10566000000E+00  0.10566000000E+00 0.  1.
     999900   -1    0    0    0    0 -0.00000000000E+00 -0.00000000000E+00 -0.74505805969E-08  0.93827000000E+00  0.93827000000E+00 0. -1.
     999902    2    1    2    0    0 -0.42089246923E-02 -0.21773878396E-01 -0.10360036830E-01  0.10194525167E+01  0.10191586170E+01 0.  0.
     999903    2    3    3    0    0 -0.91950767829E-01 -0.61486545568E-01 -0.69456510569E-01  0.13222756200E+00  0.20600541282E-01 0.  0.
         14    1    1    2    0    0  0.42089246923E-02  0.21773878396E-01  0.10360036830E-01  0.24477483338E-01  0.00000000000E+00 0.  1.
     999901    1    3    3    0    0  0.87741843137E-01  0.39712667173E-01  0.59096473739E-01  0.88722495466E+00  0.88000000000E+00 0.  1.
        -11    1    4    4    0    0 -0.41332739564E-01 -0.15702071949E-01 -0.25503365311E-01  0.51045403187E-01  0.51100000000E-03 0. -1.
         11    1    4    4    0    0 -0.50618028265E-01 -0.45784473620E-01 -0.43953145258E-01  0.81182158811E-01  0.51100000000E-03 0.  1.
</event>
<event>
 8    1  0.1086235E+005  0.1043930E+01  0.7957747E-01            NaN
         13   -1    0    0    0    0  0.00000000000E+00  0.00000000000E+00  0.74505805969E-08  0.10566000000E+00  0.10566000000E+00 0. -1.
     999900   -1    0    0    0    0 -0.00000000000E+00 -0.00000000000E+00 -0.74505805969E-08  0.93827000000E+00  0.93827000000E+00 0. -1.
     999902    2    1    2    0    0  0.12461955565E-01  0.81731543427E-02  0.21089165905E-01  0.10181064893E+01  0.10177789395E+01 0.  0.
     999903    2    3    3    0    0  0.19917029721E-01  0.11538422600E+00  0.54924182843E-01  0.13092296800E+00  0.20345761385E-01 0.  0.
         14    1    1    2    0    0 -0.12461955565E-01 -0.81731543427E-02 -0.21089165905E-01  0.25823510741E-01  0.00000000000E+00 0.  1.
     999901    1    3    3    0    0 -0.74550741560E-02 -0.10721107166E+00 -0.33835016938E-01  0.88718352126E+00  0.88000000000E+00 0. -1.
        -11    1    4    4    0    0 -0.14901691822E-02  0.40560954213E-01  0.24150720302E-01  0.47232721952E-01  0.51100000000E-03 0. -1.
         11    1    4    4    0    0  0.21407198903E-01  0.74823271791E-01  0.30773462540E-01  0.83690246051E-01  0.51100000000E-03 0.  1.
</event>
<event>
 8    1  0.1086235E+005  0.1043930E+01  0.7957747E-01            NaN
         13   -1    0    0    0    0  0.00000000000E+00  0.00000000000E+00  0.74505805969E-08  0.10566000000E+00  0.10566000000E+00 0. -1.
     999900   -1    0    0    0    0 -0.00000000000E+00 -0.00000000000E+00 -0.74505805969E-08  0.93827000000E+00  0.93827000000E+00 0. -1.
     999902    2    1    2    0    0  0.37461701006E-02  0.12251921673E-01 -0.63687507840E-02  0.10296225068E+01  0.10295230945E+01 0.  0.
     999903    2    3    3    0    0  0.71045146204E-01  0.11730304214E+00 -0.23966484945E-01  0.14064862060E+00  0.20005638776E-01 0.  0.
         14    1    1    2    0    0 -0.37461701006E-02 -0.12251921673E-01  0.63687507840E-02  0.14307493200E-01  0.00000000000E+00 0.  1.
     999901    1    3    3    0    0 -0.67298976103E-01 -0.10505112046E+00  0.17597734161E-01  0.88897388620E+00  0.88000000000E+00 0.  1.
        -11    1    4    4    0    0  0.35505396387E-01  0.75989330473E-01 -0.18354502243E-01  0.85861285757E-01  0.51100000000E-03 0.  1.
         11    1    4    4    0    0  0.35539749817E-01  0.41313711664E-01 -0.56119827023E-02  0.54787334844E-01  0.51100000000E-03 0. -1.
</event>
<event>
 8    1  0.1086235E+005  0.1043930E+01  0.7957747E-01            NaN
         13   -1    0    0    0    0  0.00000000000E+00  0.00000000000E+00  0.74505805969E-08  0.10566000000E+00  0.10566000000E+00 0. -1.
     999900   -1    0    0    0    0 -0.00000000000E+00 -0.00000000000E+00 -0.74505805969E-08  0.93827000000E+00  0.93827000000E+00 0. -1.
     999902    2    1    2    0    0 -0.15127235224E-03  0.11619502685E-01 -0.21100349983E-01  0.10198414032E+01  0.10195568779E+01 0.  0.
     999903    2    3    3    0    0  0.11903079825E+00  0.30173002535E-01 -0.40210985302E-01  0.13140805473E+00  0.23925143575E-01 0.  0.
         14    1    1    2    0    0  0.15127235224E-03 -0.11619502685E-01  0.21100349983E-01  0.24088596791E-01  0.00000000000E+00 0. -1.
     999901    1    3    3    0    0 -0.11918207060E+00 -0.18553499849E-01  0.19110635319E-01  0.88843334848E+00  0.88000000000E+00 0.  1.
        -11    1    4    4    0    0  0.83644739150E-01  0.16606207789E-01 -0.38228177025E-01  0.93455139850E-01  0.51100000000E-03 0. -1.
         11    1    4    4    0    0  0.35386059097E-01  0.13566794746E-01 -0.19828082765E-02  0.37952914879E-01  0.51100000000E-03 0.  1.
</event>
<event>
 8    1  0.1086235E+005  0.1043930E+01  0.7957747E-01            NaN
         13   -1    0    0    0    0  0.00000000000E+00  0.00000000000E+00  0.74505805969E-08  0.10566000000E+00  0.10566000000E+00 0.  1.
     999900   -1    0    0    0    0 -0.00000000000E+00 -0.00000000000E+00 -0.74505805969E-08  0.93827000000E+00  0.93827000000E+00 0.  1.
     999902    2    1    2    0    0 -0.21204274012E-01  0.33696705581E-02  0.10678786418E-01  0.10199505839E+01  0.10196686625E+01 0.  0.
     999903    2    3    3    0    0 -0.10366069180E+00 -0.64259488786E-01 -0.45401934509E-01  0.13174012953E+00  0.20476941867E-01 0.  0.
         14    1    1    2    0    0  0.21204274012E-01 -0.33696705581E-02 -0.10678786418E-01  0.23979416077E-01  0.00000000000E+00 0. -1.
     999901    1    3    3    0    0  0.82456417790E-01  0.67629159345E-01  0.56080720927E-01  0.88821045439E+00  0.88000000000E+00 0. -1.
        -11    1    4    4    0    0 -0.39695083990E-01 -0.34780595728E-01 -0.13874237567E-01  0.54572384236E-01  0.51100000000E-03 0. -1.
         11    1    4    4    0    0 -0.63965607812E-01 -0.29478893059E-01 -0.31527696941E-01  0.77167745297E-01  0.51100000000E-03 0.  1.
</event>
<event>
 8    1  0.1086235E+005  0.1043930E+01  0.7957747E-01            NaN
         13   -1    0    0    0    0  0.00000000000E+00  0.00000000000E+00  0.74505805969E-08  0.10566000000E+00  0.10566000000E+00 0.  1.
     999900   -1    0    0    0    0 -0.00000000000E+00 -0.00000000000E+00 -0.74505805969E-08  0.93827000000E+00  0.93827000000E+00 0.  1.
     999902    2    1    2    0    0 -0.15613788409E-01  0.13352996602E-01  0.14117195153E-01  0.10190023426E+01  0.10186973967E+01 0.  0.
     999903    2    3    3    0    0 -0.75627174102E-01 -0.75197402383E-01  0.72830001743E-01  0.13058241185E+00  0.19324552825E-01 0.  0.
         14    1    1    2    0    0  0.15613788409E-01 -0.13352996602E-01 -0.14117195153E-01  0.24927657445E-01  0.00000000000E+00 0. -1.
     999901    1    3    3    0    0  0.60013385693E-01  0.88550398984E-01 -0.58712806590E-01  0.88841993071E+00  0.88000000000E+00 0.  1.
        -11    1    4    4    0    0 -0.37330710553E-02 -0.10124390875E-01  0.34263274243E-02  0.11333135079E-01  0.51100000000E-03 0.  1.
         11    1    4    4    0    0 -0.71894103047E-01 -0.65073011507E-01  0.69403674319E-01  0.11924927677E+00  0.51100000000E-03 0. -1.
</event>
<event>
 8    1  0.1086235E+005  0.1043930E+01  0.7957747E-01            NaN
         13   -1    0    0    0    0  0.00000000000E+00  0.00000000000E+00  0.74505805969E-08  0.10566000000E+00  0.10566000000E+00 0. -1.
     999900   -1    0    0    0    0 -0.00000000000E+00 -0.00000000000E+00 -0.74505805969E-08  0.93827000000E+00  0.93827000000E+00 0. -1.
     999902    2    1    2    0    0 -0.22902756816E-01  0.14506743105E-01  0.66427868896E-02  0.10160174852E+01  0.10156339999E+01 0.  0.
     999903    2    3    3    0    0  0.62831544081E-01 -0.94847662174E-01 -0.45064279216E-01  0.12361489836E+00  0.17492051995E-01 0.  0.
         14    1    1    2    0    0  0.22902756816E-01 -0.14506743105E-01 -0.66427868896E-02  0.27912514809E-01  0.00000000000E+00 0.  1.
     999901    1    3    3    0    0 -0.85734300897E-01  0.10935440528E+00  0.51707066105E-01  0.89240258683E+00  0.88000000000E+00 0.  1.
        -11    1    4    4    0    0  0.15196664954E-01 -0.38053172400E-01 -0.15745483504E-01  0.43899475249E-01  0.51100000000E-03 0.  1.
         11    1    4    4    0    0  0.47634879126E-01 -0.56794489774E-01 -0.29318795712E-01  0.79715423107E-01  0.51100000000E-03 0. -1.
</event>
<event>
 8    1  0.1086235E+005  0.1043930E+01  0.7957747E-01            NaN
         13   -1    0    0    0    0  0.00000000000E+00  0.00000000000E+00  0.74505805969E-08  0.10566000000E+00  0.10566000000E+00 0. -1.
     999900   -1    0    0    0    0 -0.00000000000E+00 -0.00000000000E+00 -0.74505805969E-08  0.93827000000E+00  0.93827000000E+00 0. -1.
     999902    2    1    2    0    0  0.57120459818E-02  0.21017760964E-02  0.21810917992E-01  0.10212857717E+01  0.10210347038E+01 0.  0.
     999903    2    3    3    0    0  0.51263494443E-01  0.11419710685E+00 -0.35147802675E-01  0.13118207352E+00  0.17448303800E-01 0.  0.
         14    1    1    2    0    0 -0.57120459818E-02 -0.21017760964E-02 -0.21810917992E-01  0.22644228309E-01  0.00000000000E+00 0.  1.
     999901    1    3    3    0    0 -0.45551448462E-01 -0.11209533075E+00  0.56958720667E-01  0.89010369817E+00  0.88000000000E+00 0.  1.
        -11    1    4    4    0    0  0.33342090544E-01  0.91667390959E-01 -0.25600719608E-01  0.10084772448E+00  0.51100000000E-03 0.  1.
         11    1    4    4    0    0  0.17921403900E-01  0.22529715889E-01 -0.95470830669E-02  0.30334349043E-01  0.51100000000E-03 0. -1.
</event>
<event>
 8    1  0.1086235E+005  0.1043930E+01  0.7957747E-01            NaN
         13   -1    0    0    0    0  0.00000000000E+00  0.00000000000E+00  0.74505805969E-08  0.10566000000E+00  0.10566000000E+00 0. -1.
     999900   -1    0    0    0    0 -0.00000000000E+00 -0.00000000000E+00 -0.74505805969E-08  0.93827000000E+00  0.93827000000E+00 0.  1.
     999902    2    1    2    0    0 -0.22686482146E-01 -0.77561097250E-02  0.12188492487E-02  0.10199233488E+01  0.10196407789E+01 0.  0.
     999903    2    3    3    0    0 -0.69834641659E-01  0.72889448514E-01  0.81595692108E-01  0.13133621636E+00  0.20039857172E-01 0.  0.
         14    1    1    2    0    0  0.22686482146E-01  0.77561097250E-02 -0.12188492487E-02  0.24006651239E-01  0.00000000000E+00 0.  1.
     999901    1    3    3    0    0  0.47148159514E-01 -0.80645558239E-01 -0.80376842860E-01  0.88858713241E+00  0.88000000000E+00 0.  1.
        -11    1    4    4    0    0 -0.23534691210E-01  0.38732514188E-01  0.33903467189E-01  0.56602080829E-01  0.51100000000E-03 0.  1.
         11    1    4    4    0    0 -0.46299950449E-01  0.34156934326E-01  0.47692224919E-01  0.74734135527E-01  0.51100000000E-03 0. -1.
</event>
<event>
 8    1  0.1086235E+005  0.1043930E+01  0.7957747E-01            NaN
         13   -1    0    0    0    0  0.00000000000E+00  0.00000000000E+00  0.74505805969E-08  0.10566000000E+00  0.10566000000E+00 0. -1.
     999900   -1    0    0    0    0 -0.00000000000E+00 -0.00000000000E+00 -0.74505805969E-08  0.93827000000E+00  0.93827000000E+00 0. -1.
     999902    2    1    2    0    0 -0.10764055939E-01 -0.19209037108E-01 -0.87158079841E-02  0.10202484182E+01  0.10199735377E+01 0.  0.
     999903    2    3    3    0    0  0.45068263148E-01  0.77131167962E-01  0.89276855935E-01  0.12783525989E+00  0.19777038512E-01 0.  0.
         14    1    1    2    0    0  0.10764055939E-01  0.19209037108E-01  0.87158079841E-02  0.23681581782E-01  0.00000000000E+00 0. -1.
     999901    1    3    3    0    0 -0.55832319087E-01 -0.96340205070E-01 -0.97992663919E-01  0.89241315832E+00  0.88000000000E+00 0. -1.
        -11    1    4    4    0    0  0.22546521415E-01  0.21739923927E-01  0.25315553475E-01  0.40275405510E-01  0.51100000000E-03 0.  1.
         11    1    4    4    0    0  0.22521741733E-01  0.55391244035E-01  0.63961302460E-01  0.87559854385E-01  0.51100000000E-03 0. -1.
</event>
<event>
 8    1  0.1086235E+005  0.1043930E+01  0.7957747E-01            NaN
         13   -1    0    0    0    0  0.00000000000E+00  0.00000000000E+00  0.74505805969E-08  0.10566000000E+00  0.10566000000E+00 0.  1.
     999900   -1    0    0    0    0 -0.00000000000E+00 -0.00000000000E+00 -0.74505805969E-08  0.93827000000E+00  0.93827000000E+00 0.  1.
     999902    2    1    2    0    0  0.10611595918E-03 -0.16568771579E-01  0.17182190040E-01  0.10200602889E+01  0.10197809716E+01 0.  0.
     999903    2    3    3    0    0  0.18633983686E-01 -0.10307080611E+00  0.79875531597E-01  0.13340571191E+00  0.21122665652E-01 0.  0.
         14    1    1    2    0    0 -0.10611595918E-03  0.16568771579E-01 -0.17182190040E-01  0.23869711075E-01  0.00000000000E+00 0.  1.
     999901    1    3    3    0    0 -0.18527867727E-01  0.86502034526E-01 -0.62693341557E-01  0.88665457701E+00  0.88000000000E+00 0.  1.
        -11    1    4    4    0    0  0.10973697371E-01 -0.75165417470E-01  0.45819641726E-01  0.88712810272E-01  0.51100000000E-03 0. -1.
         11    1    4    4    0    0  0.76602863145E-02 -0.27905388635E-01  0.34055889871E-01  0.44692901642E-01  0.51100000000E-03 0.  1.
</event>
<event>
 8    1  0.1086235E+005  0.1043930E+01  0.7957747E-01            NaN
         13   -1    0    0    0    0  0.00000000000E+00  0.00000000000E+00  0.74505805969E-08  0.10566000000E+00  0.10566000000E+00 0. -1.
     999900   -1    0    0    0    0 -0.00000000000E+00 -0.00000000000E+00 -0.74505805969E-08  0.93827000000E+00  0.93827000000E+00 0.  1.
     999902    2    1    2    0    0 -0.70767161938E-02 -0.22375163237E-01  0.21194356651E-02  0.10203668964E+01  0.10200947914E+01 0.  0.
     999903    2    3    3    0    0 -0.60661998225E-01 -0.41094301949E-02 -0.11407711014E+00  0.13092512953E+00  0.20761431549E-01 0.  0.
         14    1    1    2    0    0  0.70767161938E-02  0.22375163237E-01 -0.21194356651E-02  0.23563103563E-01  0.00000000000E+00 0.  1.
     999901    1    3    3    0    0  0.53585282031E-01 -0.18265733042E-01  0.11619654581E+00  0.88944176690E+00  0.88000000000E+00 0. -1.
        -11    1    4    4    0    0 -0.61877065424E-01 -0.31988962633E-02 -0.10679042662E+00  0.12346440986E+00  0.51100000000E-03 0.  1.
         11    1    4    4    0    0  0.12150671989E-02 -0.91053393154E-03 -0.72866835238E-02  0.74607196781E-02  0.51100000000E-03 0. -1.
</event>
<event>
 8    1  0.1086235E+005  0.1043930E+01  0.7957747E-01            NaN
         13   -1    0    0    0    0  0.00000000000E+00  0.00000000000E+00  0.74505805969E-08  0.10566000000E+00  0.10566000000E+00 0. -1.
     999900   -1    0    0    0    0 -0.00000000000E+00 -0.00000000000E+00 -0.74505805969E-08  0.93827000000E+00  0.93827000000E+00 0.  1.
     999902    2    1    2    0    0  0.12083385945E-01  0.20115861356E-01 -0.23450121115E-02  0.10203470575E+01  0.10200744888E+01 0.  0.
     999903    2    3    3    0    0 -0.67333969209E-01  0.10427371981E+00 -0.41339351609E-01  0.13191573212E+00  0.16909947893E-01 0.  0.
         14    1    1    2    0    0 -0.12083385945E-01 -0.20115861356E-01  0.23450121115E-02  0.23582942475E-01  0.00000000000E+00 0.  1.
     999901    1    3    3    0    0  0.79417355153E-01 -0.84157858456E-01  0.38994339497E-01  0.88843132540E+00  0.88000000000E+00 0. -1.
        -11    1    4    4    0    0 -0.42493947500E-01  0.70185476924E-01 -0.35235580118E-01  0.89294702936E-01  0.51100000000E-03 0. -1.
         11    1    4    4    0    0 -0.24840021709E-01  0.34088242888E-01 -0.61037714903E-02  0.42621029189E-01  0.51100000000E-03 0.  1.
</event>
<event>
 8    1  0.1086235E+005  0.1043930E+01  0.7957747E-01            NaN
         13   -1    0    0    0    0  0.00000000000E+00  0.00000000000E+00  0.74505805969E-08  0.10566000000E+00  0.10566000000E+00 0.  1.
     999900   -1    0    0    0    0 -0.00000000000E+00 -0.00000000000E+00 -0.74505805969E-08  0.93827000000E+00  0.93827000000E+00 0. -1.
     999902    2    1    2    0    0  0.15757793686E-02 -0.22727325678E-01 -0.43225123435E-03  0.10211440119E+01  0.10208897550E+01 0.  0.
     999903    2    3    3    0    0 -0.81737569356E-01  0.67776256351E-01  0.71582172600E-01  0.12967438836E+00  0.20415395981E-01 0.  0.
         14    1    1    2    0    0 -0.15757793686E-02  0.22727325678E-01  0.43225123435E-03  0.22785988111E-01  0.00000000000E+00 0. -1.
     999901    1    3    3    0    0  0.83313348724E-01 -0.90503582029E-01 -0.72014423834E-01  0.89146962353E+00  0.88000000000E+00 0.  1.
        -11    1    4    4    0    0 -0.40107369132E-01  0.25125842761E-01  0.22224905540E-01  0.52288780636E-01  0.51100000000E-03 0. -1.
         11    1    4    4    0    0 -0.41630200224E-01  0.42650413591E-01  0.49357267059E-01  0.77385607723E-01  0.51100000000E-03 0.  1.
</event>
<event>
 8    1  0.1086235E+005  0.1043930E+01  0.7957747E-01            NaN
         13   -1    0    0    0    0  0.00000000000E+00  0.00000000000E+00  0.74505805969E-08  0.10566000000E+00  0.10566000000E+00 0.  1.
     999900   -1    0    0    0    0 -0.00000000000E+00 -0.00000000000E+00 -0.74505805969E-08  0.93827000000E+00  0.93827000000E+00 0. -1.
     999902    2    1    2    0    0  0.19132645278E-01  0.12768383407E-01 -0.35353534193E-02  0.10206579469E+01  0.10203925990E+01 0.  0.
     999903    2    3    3    0    0 -0.19510980941E-01  0.12725025697E+00  0.21585743876E-01  0.13204639020E+00  0.19924822467E-01 0.  0.
         14    1    1    2    0    0 -0.19132645278E-01 -0.12768383407E-01  0.35353534193E-02  0.23272053067E-01  0.00000000000E+00 0. -1.
     999901    1    3    3    0    0  0.38643626219E-01 -0.11448187357E+00 -0.25121097296E-01  0.88861155673E+00  0.88000000000E+00 0. -1.
        -11    1    4    4    0    0 -0.30986906503E-02  0.20546258667E-01 -0.38305332619E-02  0.21134917436E-01  0.51100000000E-03 0. -1.
         11    1    4    4    0    0 -0.16412290291E-01  0.10670399831E+00  0.25416277138E-01  0.11091147277E+00  0.51100000000E-03 0.  1.
</event>
<event>
 8    1  0.1086235E+005  0.1043930E+01  0.7957747E-01            NaN
         13   -1    0    0    0    0  0.00000000000E+00  0.00000000000E+00  0.74505805969E-08  0.10566000000E+00  0.10566000000E+00 0. -1.
     999900   -1    0    0    0    0 -0.00000000000E+00 -0.00000000000E+00 -0.74505805969E-08  0.93827000000E+00  0.93827000000E+00 0.  1.
     999902    2    1    2    0    0  0.14189462742E-01 -0.18554838919E-01 -0.55651763009E-02  0.10199176264E+01  0.10196349202E+01 0.  0.
     999903    2    3    3    0    0 -0.90309723943E-01 -0.73329612957E-01  0.54301687223E-01  0.13002752234E+00  0.20625347433E-01 0.  0.
         14    1    1    2    0    0 -0.14189462742E-01  0.18554838919E-01  0.55651763009E-02  0.24012373633E-01  0.00000000000E+00 0. -1.
     999901    1    3    3    0    0  0.10449918669E+00  0.54774774038E-01 -0.59866863523E-01  0.88989010402E+00  0.88000000000E+00 0.  1.
        -11    1    4    4    0    0 -0.71520176813E-01 -0.46230645723E-01  0.38681164841E-01  0.93535565053E-01  0.51100000000E-03 0.  1.
         11    1    4    4    0    0 -0.18789547131E-01 -0.27098967234E-01  0.15620522381E-01  0.36491957292E-01  0.51100000000E-03 0. -1.
</event>
<event>
 8    1  0.1086235E+005  0.1043930E+01  0.7957747E-01            NaN
         13   -1    0    0    0    0  0.00000000000E+00  0.00000000000E+00  0.74505805969E-08  0.10566000000E+00  0.10566000000E+00 0. -1.
     999900   -1    0    0    0    0 -0.00000000000E+00 -0.00000000000E+00 -0.74505805969E-08  0.93827000000E+00  0.93827000000E+00 0.  1.
     999902    2    1    2    0    0 -0.13393074153E-01 -0.95077592432E-02  0.15403969628E-01  0.10214121359E+01  0.10211638934E+01 0.  0.
     999903    2    3    3    0    0 -0.75770598426E-01  0.36950661921E-02 -0.10471043735E+00  0.13096688727E+00  0.20813764003E-01 0.  0.
         14    1    1    2    0    0  0.13393074153E-01  0.95077592432E-02 -0.15403969628E-01  0.22517864050E-01  0.00000000000E+00 0.  1.
     999901    1    3    3    0    0  0.62377524273E-01 -0.13202825435E-01  0.12011440697E+00  0.89044524868E+00  0.88000000000E+00 0. -1.
        -11    1    4    4    0    0 -0.54317906333E-01  0.29352666063E-02 -0.89196844086E-01  0.10447673834E+00  0.51100000000E-03 0. -1.
         11    1    4    4    0    0 -0.21452692093E-01  0.75979958579E-03 -0.15513593260E-01  0.26490148929E-01  0.51100000000E-03 0.  1.
</event>
<event>
 8    1  0.1086235E+005  0.1043930E+01  0.7957747E-01            NaN
         13   -1    0    0    0    0  0.00000000000E+00  0.00000000000E+00  0.74505805969E-08  0.10566000000E+00  0.10566000000E+00 0.  1.
     999900   -1    0    0    0    0 -0.00000000000E+00 -0.00000000000E+00 -0.74505805969E-08  0.93827000000E+00  0.93827000000E+00 0. -1.
     999902    2    1    2    0    0  0.19990705773E-02  0.40833457127E-02 -0.19457470495E-01  0.10239484297E+01  0.10237534486E+01 0.  0.
     999903    2    3    3    0    0  0.11193401966E+00 -0.35393116081E-01  0.59302433603E-01  0.13274295023E+00  0.17944770272E-01 0.  0.
         14    1    1    2    0    0 -0.19990705773E-02 -0.40833457127E-02  0.19457470495E-01  0.19981570345E-01  0.00000000000E+00 0.  1.
     999901    1    3    3    0    0 -0.10993494909E+00  0.39476461793E-01 -0.78759904098E-01  0.89120547943E+00  0.88000000000E+00 0.  1.
        -11    1    4    4    0    0  0.36295352947E-01 -0.17423210118E-01  0.13283792389E-01  0.42398598533E-01  0.51100000000E-03 0. -1.
         11    1    4    4    0    0  0.75638666717E-01 -0.17969905963E-01  0.46018641214E-01  0.90344351695E-01  0.51100000000E-03 0.  1.
</event>
<event>
 8    1  0.1086235E+005  0.1043930E+01  0.7957747E-01            NaN
         13   -1    0    0    0    0  0.00000000000E+00  0.00000000000E+00  0.74505805969E-08  0.10566000000E+00  0.10566000000E+00 0.  1.
     999900   -1    0    0    0    0 -0.00000000000E+00 -0.00000000000E+00 -0.74505805969E-08  0.93827000000E+00  0.93827000000E+00 0. -1.
     999902    2    1    2    0    0  0.76585126106E-02 -0.19891038957E-01 -0.57915728887E-02  0.10218427059E+01  0.10216039678E+01 0.  0.
     999903    2    3    3    0    0 -0.93779582440E-02  0.12755863310E+00  0.29678149753E-02  0.12936952754E+00  0.19196764109E-01 0.  0.
         14    1    1    2    0    0 -0.76585126106E-02  0.19891038957E-01  0.57915728887E-02  0.22087294146E-01  0.00000000000E+00 0.  1.
     999901    1    3    3    0    0  0.17036470855E-01 -0.14744967205E+00 -0.87593878640E-02  0.89247317831E+00  0.88000000000E+00 0.  1.
        -11    1    4    4    0    0  0.10126933888E-02  0.90408570850E-01  0.63751474920E-02  0.90640161395E-01  0.51100000000E-03 0. -1.
         11    1    4    4    0    0 -0.10390651633E-01  0.37150062248E-01 -0.34073325168E-02  0.38729366148E-01  0.51100000000E-03 0.  1.
</event>
<event>
 8    1  0.1086235E+005  0.1043930E+01  0.7957747E-01            NaN
         13   -1    0    0    0    0  0.00000000000E+00  0.00000000000E+00  0.74505805969E-08  0.10566000000E+00  0.10566000000E+00 0. -1.
     999900   -1    0    0    0    0 -0.00000000000E+00 -0.00000000000E+00 -0.74505805969E-08  0.93827000000E+00  0.93827000000E+00 0.  1.
     999902    2    1    2    0    0 -0.38737879631E-02 -0.21774782251E-01  0.82086791055E-02  0.10203391164E+01  0.10200663619E+01 0.  0.
     999903    2    3    3    0    0 -0.11166362978E+00  0.62596898217E-01 -0.42443766453E-02  0.12966953175E+00  0.20224609993E-01 0.  0.
         14    1    1    2    0    0  0.38737879631E-02  0.21774782251E-01 -0.82086791055E-02  0.23590883576E-01  0.00000000000E+00 0.  1.
     999901    1    3    3    0    0  0.10778984182E+00 -0.84371680468E-01  0.12453055751E-01  0.89066958467E+00  0.88000000000E+00 0.  1.
        -11    1    4    4    0    0 -0.38395435953E-01  0.27143561237E-01  0.68501065189E-02  0.47520179913E-01  0.51100000000E-03 0.  1.
         11    1    4    4    0    0 -0.73268193827E-01  0.35453336980E-01 -0.11094483164E-01  0.82149351838E-01  0.51100000000E-03 0. -1.
</event>
<event>
 8    1  0.1086235E+005  0.1043930E+01  0.7957747E-01            NaN
         13   -1    0    0    0    0  0.00000000000E+00  0.00000000000E+00  0.74505805969E-08  0.10566000000E+00  0.10566000000E+00 0. -1.
     999900   -1    0    0    0    0 -0.00000000000E+00 -0.00000000000E+00 -0.74505805969E-08  0.93827000000E+00  0.93827000000E+00 0.  1.
     999902    2    1    2    0    0 -0.94262134496E-02 -0.20353654666E-03 -0.25639655825E-01  0.10166117483E+01  0.10162446358E+01 0.  0.
     999903    2    3    3    0    0 -0.86633825166E-01  0.16101538985E-01  0.87571544106E-01  0.12585721048E+00  0.20163900213E-01 0.  0.
         14    1    1    2    0    0  0.94262134496E-02  0.20353654666E-03  0.25639655825E-01  0.27318251736E-01  0.00000000000E+00 0. -1.
     999901    1    3    3    0    0  0.77207611716E-01 -0.16305075531E-01 -0.11321119993E+00  0.89075453779E+00  0.88000000000E+00 0.  1.
        -11    1    4    4    0    0 -0.60616959054E-01  0.75546970200E-02  0.47799381595E-01  0.77566301793E-01  0.51100000000E-03 0. -1.
         11    1    4    4    0    0 -0.26016866112E-01  0.85468419645E-02  0.39772162511E-01  0.48290908686E-01  0.51100000000E-03 0.  1.
</event>
<event>
 8    1  0.1086235E+005  0.1043930E+01  0.7957747E-01            NaN
         13   -1    0    0    0    0  0.00000000000E+00  0.00000000000E+00  0.74505805969E-08  0.10566000000E+00  0.10566000000E+00 0.  1.
     999900   -1    0    0    0    0 -0.00000000000E+00 -0.00000000000E+00 -0.74505805969E-08  0.93827000000E+00  0.93827000000E+00 0. -1.
     999902    2    1    2    0    0  0.83309861940E-02  0.22169876071E-01  0.38922710110E-03  0.10202432899E+01  0.10199682889E+01 0.  0.
     999903    2    3    3    0    0  0.22260352878E-01 -0.10571428626E+00 -0.66403246155E-01  0.12838589062E+00  0.20062706205E-01 0.  0.
         14    1    1    2    0    0 -0.83309861940E-02 -0.22169876071E-01 -0.38922710110E-03  0.23686710065E-01  0.00000000000E+00 0.  1.
     999901    1    3    3    0    0 -0.13929366684E-01  0.12788416233E+00  0.66792473256E-01  0.89185739932E+00  0.88000000000E+00 0.  1.
        -11    1    4    4    0    0  0.12404769782E-01 -0.87701335582E-01 -0.59553276688E-01  0.10673451392E+00  0.51100000000E-03 0. -1.
         11    1    4    4    0    0  0.98555830957E-02 -0.18012950678E-01 -0.68499694666E-02  0.21651376699E-01  0.51100000000E-03 0.  1.
</event>
<event>
 8    1  0.1086235E+005  0.1043930E+01  0.7957747E-01            NaN
         13   -1    0    0    0    0  0.00000000000E+00  0.00000000000E+00  0.74505805969E-08  0.10566000000E+00  0.10566000000E+00 0. -1.
     999900   -1    0    0    0    0 -0.00000000000E+00 -0.00000000000E+00 -0.74505805969E-08  0.93827000000E+00  0.93827000000E+00 0. -1.
     999902    2    1    2    0    0 -0.45794600851E-03 -0.18103501648E-01 -0.14868973052E-01  0.10204985501E+01  0.10202295123E+01 0.  0.
     999903    2    3    3    0    0 -0.43290467449E-01  0.78650312014E-01 -0.93146274513E-01  0.13071022621E+00  0.18681504954E-01 0.  0.
         14    1    1    2    0    0  0.45794600851E-03  0.18103501648E-01  0.14868973052E-01  0.23431449935E-01  0.00000000000E+00 0. -1.
     999901    1    3    3    0    0  0.42832521441E-01 -0.96753813662E-01  0.78277301461E-01  0.88978832386E+00  0.88000000000E+00 0. -1.
        -11    1    4    4    0    0 -0.32180103411E-01  0.47083405697E-01 -0.68564904683E-01  0.89184154550E-01  0.51100000000E-03 0. -1.
         11    1    4    4    0    0 -0.11110364038E-01  0.31566906317E-01 -0.24581369830E-01  0.41526071656E-01  0.51100000000E-03 0.  1.
</event>
<event>
 8    1  0.1086235E+005  0.1043930E+01  0.7957747E-01            NaN
         13   -1    0    0    0    0  0.00000000000E+00  0.00000000000E+00  0.74505805969E-08  0.10566000000E+00  0.10566000000E+00 0. -1.
     999900   -1    0    0    0    0 -0.00000000000E+00 -0.00000000000E+00 -0.74505805969E-08  0.93827000000E+00  0.93827000000E+00 0. -1.
     999902    2    1    2    0    0 -0.13228045937E-01  0.18643524796E-01  0.50507470829E-02  0.10205190568E+01  0.10202504952E+01 0.  0.
     999903    2    3    3    0    0  0.51154986336E-01  0.93603255757E-01 -0.71005551493E-01  0.13172847590E+00  0.30531965311E-01 0.  0.
         14    1    1    2    0    0  0.13228045937E-01 -0.18643524796E-01 -0.50507470829E-02  0.23410943215E-01  0.00000000000E+00 0.  1.
     999901    1    3    3    0    0 -0.64383032273E-01 -0.74959730961E-01  0.76056298576E-01  0.88879058088E+00  0.88000000000E+00 0. -1.
        -11    1    4    4    0    0  0.29728297399E-01  0.25142863545E-01 -0.20584091906E-01  0.44044309668E-01  0.51100000000E-03 0.  1.
         11    1    4    4    0    0  0.21426688937E-01  0.68460392212E-01 -0.50421459587E-01  0.87684166236E-01  0.51100000000E-03 0. -1.
</event>
<event>
 8    1  0.1086235E+005  0.1043930E+01  0.7957747E-01            NaN
         13   -1    0    0    0    0  0.00000000000E+00  0.00000000000E+00  0.74505805969E-08  0.10566000000E+00  0.10566000000E+00 0.  1.
     999900   -1    0    0    0    0 -0.00000000000E+00 -0.00000000000E+00 -0.74505805969E-08  0.93827000000E+00  0.93827000000E+00 0.  1.
     999902    2    1    2    0    0  0.20904512920E-01 -0.16966467613E-01  0.18013426556E-02  0.10169465881E+01  0.10165885394E+01 0.  0.
     999903    2    3    3    0    0 -0.41740248473E-01  0.10886762002E+00 -0.39941233360E-01  0.12481373564E+00  0.19716983799E-01 0.  0.
         14    1    1    2    0    0 -0.20904512920E-01  0.16966467613E-01 -0.18013426556E-02  0.26983411924E-01  0.00000000000E+00 0.  1.
     999901    1    3    3    0    0  0.62644761393E-01 -0.12583408764E+00  0.41742576015E-01  0.89213285244E+00  0.88000000000E+00 0. -1.
        -11    1    4    4    0    0 -0.39005266619E-01  0.83566786338E-01 -0.26123009330E-01  0.95851402391E-01  0.51100000000E-03 0. -1.
         11    1    4    4    0    0 -0.27349818543E-02  0.25300833686E-01 -0.13818224030E-01  0.28962333251E-01  0.51100000000E-03 0.  1.
</event>
<event>
 8    1  0.1086235E+005  0.1043930E+01  0.7957747E-01            NaN
         13   -1    0    0    0    0  0.00000000000E+00  0.00000000000E+00  0.74505805969E-08  0.10566000000E+00  0.10566000000E+00 0. -1.
     999900   -1    0    0    0    0 -0.00000000000E+00 -0.00000000000E+00 -0.74505805969E-08  0.93827000000E+00  0.93827000000E+00 0.  1.
     999902    2    1    2    0    0  0.11065480218E-01 -0.20253684412E-01 -0.53239845595E-02  0.10202445320E+01  0.10199695601E+01 0.  0.
     999903    2    3    3    0    0  0.88081023533E-03 -0.61089195402E-01 -0.11583401033E+00  0.13233477739E+00  0.19034435527E-01 0.  0.
         14    1    1    2    0    0 -0.11065480218E-01  0.20253684412E-01  0.53239845595E-02  0.23685468040E-01  0.00000000000E+00 0.  1.
     999901    1    3    3    0    0  0.10184669983E-01  0.40835510990E-01  0.11051002577E+00  0.88790975457E+00  0.88000000000E+00 0. -1.
        -11    1    4    4    0    0  0.98965058063E-02 -0.31822685279E-01 -0.62518421398E-01  0.70847994048E-01  0.51100000000E-03 0. -1.
         11    1    4    4    0    0 -0.90156955709E-02 -0.29266510123E-01 -0.53315588936E-01  0.61486783344E-01  0.51100000000E-03 0.  1.
</event>
<event>
 8    1  0.1086235E+005  0.1043930E+01  0.7957747E-01            NaN
         13   -1    0    0    0    0  0.00000000000E+00  0.00000000000E+00  0.74505805969E-08  0.10566000000E+00  0.10566000000E+00 0. -1.
     999900   -1    0    0    0    0 -0.00000000000E+00 -0.00000000000E+00 -0.74505805969E-08  0.93827000000E+00  0.93827000000E+00 0.  1.
     999902    2    1    2    0    0  0.17122773583E-01 -0.80449175483E-02 -0.12667263028E-01  0.10211622679E+01  0.10209084228E+01 0.  0.
     999903    2    3    3    0    0  0.23136042638E-01  0.78794526211E-02  0.12596131286E+00  0.13014732579E+00  0.21787882614E-01 0.  0.
         14    1    1    2    0    0 -0.17122773583E-01  0.80449175483E-02  0.12667263028E-01  0.22767732126E-01  0.00000000000E+00 0. -1.
     999901    1    3    3    0    0 -0.60132690556E-02 -0.15924370169E-01 -0.13862857589E+00  0.89101494209E+00  0.88000000000E+00 0.  1.
        -11    1    4    4    0    0  0.10602855980E-01  0.11482938718E-01  0.36075179934E-01  0.39318674505E-01  0.51100000000E-03 0. -1.
         11    1    4    4    0    0  0.12533186658E-01 -0.36034860968E-02  0.89886132928E-01  0.90828651281E-01  0.51100000000E-03 0.  1.
</event>
<event>
 8    1  0.1086235E+005  0.1043930E+01  0.7957747E-01            NaN
         13   -1    0    0    0    0  0.00000000000E+00  0.00000000000E+00  0.74505805969E-08  0.10566000000E+00  0.10566000000E+00 0. -1.
     999900   -1    0    0    0    0 -0.00000000000E+00 -0.00000000000E+00 -0.74505805969E-08  0.93827000000E+00  0.93827000000E+00 0.  1.
     999902    2    1    2    0    0 -0.15042630166E-01  0.86527562550E-02 -0.16411898051E-01  0.10200448307E+01  0.10197651472E+01 0.  0.
     999903    2    3    3    0    0 -0.75023686871E-01  0.27470355876E-01 -0.10498214755E+00  0.13336759616E+00  0.19557360692E-01 0.  0.
         14    1    1    2    0    0  0.15042630166E-01 -0.86527562550E-02  0.16411898051E-01  0.23885169264E-01  0.00000000000E+00 0. -1.
     999901    1    3    3    0    0  0.59981056705E-01 -0.18817599621E-01  0.88570249501E-01  0.88667723458E+00  0.88000000000E+00 0. -1.
        -11    1    4    4    0    0 -0.64909640761E-01  0.27437073761E-01 -0.81183272509E-01  0.10750367127E+00  0.51100000000E-03 0.  1.
         11    1    4    4    0    0 -0.10114046110E-01  0.33282115208E-04 -0.23798875042E-01  0.25863924890E-01  0.51100000000E-03 0. -1.
</event>
<event>
 8    1  0.1086235E+005  0.1043930E+01  0.7957747E-01            NaN
         13   -1    0    0    0    0  0.00000000000E+00  0.00000000000E+00  0.74505805969E-08  0.10566000000E+00  0.10566000000E+00 0.  1.
     999900   -1    0    0    0    0 -0.00000000000E+00 -0.00000000000E+00 -0.74505805969E-08  0.93827000000E+00  0.93827000000E+00 0.  1.
     999902    2    1    2    0    0 -0.94029801160E-02  0.11010865895E-01 -0.15336451264E-01  0.10228382495E+01  0.10226207619E+01 0.  0.
     999903    2    3    3    0    0 -0.11094317560E+00  0.60886579130E-02  0.69072764155E-01  0.13297334114E+00  0.23778198823E-01 0.  0.
         14    1    1    2    0    0  0.94029801160E-02 -0.11010865895E-01  0.15336451264E-01  0.21091750524E-01  0.00000000000E+00 0.  1.
     999901    1    3    3    0    0  0.10154019549E+00  0.49222079818E-02 -0.84409215419E-01  0.88986490833E+00  0.88000000000E+00 0.  1.
        -11    1    4    4    0    0 -0.67448603714E-01 -0.24760726994E-04  0.54426625915E-01  0.86670834112E-01  0.51100000000E-03 0. -1.
         11    1    4    4    0    0 -0.43494571888E-01  0.61134186400E-02  0.14646138240E-01  0.46302507033E-01  0.51100000000E-03 0.  1.
</event>
<event>
 8    1  0.1086235E+005  0.1043930E+01  0.7957747E-01            NaN
         13   -1    0    0    0    0  0.00000000000E+00  0.00000000000E+00  0.74505805969E-08  0.10566000000E+00  0.10566000000E+00 0. -1.
     999900   -1    0    0    0    0 -0.00000000000E+00 -0.00000000000E+00 -0.74505805969E-08  0.93827000000E+00  0.93827000000E+00 0. -1.
     999902    2    1    2    0    0 -0.19496245916E-01 -0.92533608354E-02 -0.16990097028E-02  0.10222824845E+01  0.10220532585E+01 0.  0.
     999903    2    3    3    0    0 -0.51147543700E-01  0.51699829938E-01  0.10943502052E+00  0.13263768532E+00  0.18104922200E-01 0.  0.
         14    1    1    2    0    0  0.19496245916E-01  0.92533608354E-02  0.16990097028E-02  0.21647515459E-01  0.00000000000E+00 0. -1.
     999901    1    3    3    0    0  0.31651297784E-01 -0.60953190773E-01 -0.11113403022E+00  0.88964479923E+00  0.88000000000E+00 0. -1.
        -11    1    4    4    0    0 -0.31325588951E-01  0.25998279289E-01  0.46351873227E-01  0.61692465681E-01  0.51100000000E-03 0.  1.
         11    1    4    4    0    0 -0.19821954748E-01  0.25701550648E-01  0.63083147291E-01  0.70945219634E-01  0.51100000000E-03 0. -1.
</event>
<event>
 8    1  0.1086235E+005  0.1043930E+01  0.7957747E-01            NaN
         13   -1    0    0    0    0  0.00000000000E+00  0.00000000000E+00  0.74505805969E-08  0.10566000000E+00  0.10566000000E+00 0. -1.
     999900   -1    0    0    0    0 -0.00000000000E+00 -0.00000000000E+00 -0.74505805969E-08  0.93827000000E+00  0.93827000000E+00 0.  1.
     999902    2    1    2    0    0 -0.27606435565E-02 -0.23956187841E-01  0.59032344123E-03  0.10198080480E+01  0.10195227247E+01 0.  0.
     999903    2    3    3    0    0 -0.90627019957E-03  0.11230622369E+00  0.57120100015E-01  0.12752642249E+00  0.19666555470E-01 0.  0.
         14    1    1    2    0    0  0.27606435565E-02  0.23956187841E-01 -0.59032344123E-03  0.24121952046E-01  0.00000000000E+00 0.  1.
     999901    1    3    3    0    0 -0.18543733570E-02 -0.13626241153E+00 -0.56529776574E-01  0.89228162546E+00  0.88000000000E+00 0.  1.
        -11    1    4    4    0    0  0.89737875902E-02  0.69564587035E-01  0.34605472299E-01  0.78214835339E-01  0.51100000000E-03 0.  1.
         11    1    4    4    0    0 -0.98800577898E-02  0.42741636650E-01  0.22514627716E-01  0.49311587154E-01  0.51100000000E-03 0. -1.
</event>
<event>
 8    1  0.1086235E+005  0.1043930E+01  0.7957747E-01            NaN
         13   -1    0    0    0    0  0.00000000000E+00  0.00000000000E+00  0.74505805969E-08  0.10566000000E+00  0.10566000000E+00 0. -1.
     999900   -1    0    0    0    0 -0.00000000000E+00 -0.00000000000E+00 -0.74505805969E-08  0.93827000000E+00  0.93827000000E+00 0. -1.
     999902    2    1    2    0    0 -0.87180344920E-02 -0.21424325515E-01  0.33076847890E-03  0.10207974416E+01  0.10205353015E+01 0.  0.
     999903    2    3    3    0    0  0.40256549857E-01 -0.50914604034E-01  0.11290879098E+00  0.13178563204E+00  0.20153685039E-01 0.  0.
         14    1    1    2    0    0  0.87180344920E-02  0.21424325515E-01 -0.33076847890E-03  0.23132558375E-01  0.00000000000E+00 0.  1.
     999901    1    3    3    0    0 -0.48974584349E-01  0.29490278519E-01 -0.11257802250E+00  0.88901180959E+00  0.88000000000E+00 0. -1.
        -11    1    4    4    0    0  0.31143682259E-01 -0.24162789554E-01  0.71539910036E-01  0.81682245271E-01  0.51100000000E-03 0. -1.
         11    1    4    4    0    0  0.91128675980E-02 -0.26751814480E-01  0.41368880942E-01  0.50103386764E-01  0.51100000000E-03 0.  1.
</event>
<event>
 8    1  0.1086235E+005  0.1043930E+01  0.7957747E-01            NaN
         13   -1    0    0    0    0  0.00000000000E+00  0.00000000000E+00  0.74505805969E-08  0.10566000000E+00  0.10566000000E+00 0.  1.
     999900   -1    0    0    0    0 -0.00000000000E+00 -0.00000000000E+00 -0.74505805969E-08  0.93827000000E+00  0.93827000000E+00 0. -1.
     999902    2    1    2    0    0 -0.79125376949E-02  0.11573996819E-01  0.19923378119E-01  0.10195680081E+01  0.10192769086E+01 0.  0.
     999903    2    3    3    0    0  0.70041873060E-01 -0.36135177799E-01 -0.97539439610E-01  0.12707119068E+00  0.20531199804E-01 0.  0.
         14    1    1    2    0    0  0.79125376949E-02 -0.11573996819E-01 -0.19923378119E-01  0.24361991931E-01  0.00000000000E+00 0. -1.
     999901    1    3    3    0    0 -0.77954410755E-01  0.47709174618E-01  0.11746281773E+00  0.89249681739E+00  0.88000000000E+00 0.  1.
        -11    1    4    4    0    0  0.84018101172E-02 -0.12862419789E-01 -0.15247116121E-01  0.21651049099E-01  0.51100000000E-03 0.  1.
         11    1    4    4    0    0  0.61640062943E-01 -0.23272758010E-01 -0.82292323489E-01  0.10542014158E+00  0.51100000000E-03 0. -1.
</event>
<event>
 8    1  0.1132140E+005  0.1043930E+01  0.7957747E-01            NaN
         13   -1    0    0    0    0  0.00000000000E+00  0.00000000000E+00  0.74505805969E-08  0.10566000000E+00  0.10566000000E+00 0.  1.
     999900   -1    0    0    0    0 -0.00000000000E+00 -0.00000000000E+00 -0.74505805969E-08  0.93827000000E+00  0.93827000000E+00 0. -1.
     999902    2    1    2    0    0 -0.37641943389E-02 -0.19522249998E-01  0.21907204842E-01  0.10143460005E+01  0.10139144913E+01 0.  0.
     999903    2    3    3    0    0  0.22914445532E-01 -0.10505049197E+00  0.67620306292E-01  0.12861663004E+00  0.20225083993E-01 0.  0.
         14    1    1    2    0    0  0.37641943389E-02  0.19522249998E-01 -0.21907204842E-01  0.29583999526E-01  0.00000000000E+00 0. -1.
     999901    1    3    3    0    0 -0.26678639871E-01  0.85528241976E-01 -0.45713101450E-01  0.88572937043E+00  0.88000000000E+00 0.  1.
        -11    1    4    4    0    0  0.10651345037E-01 -0.66558306403E-01  0.52644464340E-01  0.85528708917E-01  0.51100000000E-03 0.  1.
         11    1    4    4    0    0  0.12263100495E-01 -0.38492185570E-01  0.14975841951E-01  0.43087921125E-01  0.51100000000E-03 0. -1.
</event>
<event>
 8    1  0.1086235E+005  0.1043930E+01  0.7957747E-01            NaN
         13   -1    0    0    0    0  0.00000000000E+00  0.00000000000E+00  0.74505805969E-08  0.10566000000E+00  0.10566000000E+00 0. -1.
     999900   -1    0    0    0    0 -0.00000000000E+00 -0.00000000000E+00 -0.74505805969E-08  0.93827000000E+00  0.93827000000E+00 0. -1.
     999902    2    1    2    0    0  0.11033197945E-01 -0.14842864490E-02  0.20866522723E-01  0.10202794961E+01  0.10200053450E+01 0.  0.
     999903    2    3    3    0    0  0.33890147028E-02 -0.88592323042E-01 -0.91324534619E-01  0.12885755511E+00  0.20100093579E-01 0.  0.
         14    1    1    2    0    0 -0.11033197945E-01  0.14842864490E-02 -0.20866522723E-01  0.23650503878E-01  0.00000000000E+00 0.  1.
     999901    1    3    3    0    0  0.76441832419E-02  0.87108036593E-01  0.11219105734E+00  0.89142194102E+00  0.88000000000E+00 0.  1.
        -11    1    4    4    0    0  0.59385339469E-02 -0.23567700292E-01 -0.36017097122E-01  0.43453366827E-01  0.51100000000E-03 0.  1.
         11    1    4    4    0    0 -0.25495192441E-02 -0.65024622750E-01 -0.55307437498E-01  0.85404188280E-01  0.51100000000E-03 0. -1.
</event>
<event>
 8    1  0.1086235E+005  0.1043930E+01  0.7957747E-01            NaN
         13   -1    0    0    0    0  0.00000000000E+00  0.00000000000E+00  0.74505805969E-08  0.10566000000E+00  0.10566000000E+00 0.  1.
     999900   -1    0    0    0    0 -0.00000000000E+00 -0.00000000000E+00 -0.74505805969E-08  0.93827000000E+00  0.93827000000E+00 0. -1.
     999902    2    1    2    0    0 -0.10390535254E-01 -0.28827927837E-02 -0.21821778599E-01  0.10195894220E+01  0.10192988402E+01 0.  0.
     999903    2    3    3    0    0  0.11886269572E+00  0.34111364801E-01 -0.32604257128E-01  0.12931349439E+00  0.19157677455E-01 0.  0.
         14    1    1    2    0    0  0.10390535254E-01  0.28827927837E-02  0.21821778599E-01  0.24340578020E-01  0.00000000000E+00 0.  1.
     999901    1    3    3    0    0 -0.12925323097E+00 -0.36994157585E-01  0.10782478529E-01  0.89027592760E+00  0.88000000000E+00 0. -1.
        -11    1    4    4    0    0  0.37109572867E-01  0.19878907950E-01 -0.92563777367E-02  0.43107227114E-01  0.51100000000E-03 0.  1.
         11    1    4    4    0    0  0.81753122850E-01  0.14232456851E-01 -0.23347879391E-01  0.86206267271E-01  0.51100000000E-03 0. -1.
</event>
<event>
 8    1  0.1086235E+005  0.1043930E+01  0.7957747E-01            NaN
         13   -1    0    0    0    0  0.00000000000E+00  0.00000000000E+00  0.74505805969E-08  0.10566000000E+00  0.10566000000E+00 0. -1.
     999900   -1    0    0    0    0 -0.00000000000E+00 -0.00000000000E+00 -0.74505805969E-08  0.93827000000E+00  0.93827000000E+00 0. -1.
     999902    2    1    2    0    0 -0.36579911483E-03  0.23322217538E-01 -0.31661631506E-02  0.10203910062E+01  0.10201194642E+01 0.  0.
     999903    2    3    3    0    0  0.71955943945E-01  0.10592795349E+00  0.29957377528E-01  0.13295012869E+00  0.19491101814E-01 0.  0.
         14    1    1    2    0    0  0.36579911483E-03 -0.23322217538E-01  0.31661631506E-02  0.23538993797E-01  0.00000000000E+00 0.  1.
     999901    1    3    3    0    0 -0.72321743060E-01 -0.82605735956E-01 -0.33123540679E-01  0.88744087751E+00  0.88000000000E+00 0. -1.
        -11    1    4    4    0    0  0.37389037476E-02  0.16490740497E-01  0.59420963530E-02  0.17930241311E-01  0.51100000000E-03 0. -1.
         11    1    4    4    0    0  0.68217040197E-01  0.89437212997E-01  0.24015281175E-01  0.11501988738E+00  0.51100000000E-03 0.  1.
</event>
<event>
 8    1  0.1086235E+005  0.1043930E+01  0.7957747E-01            NaN
         13   -1    0    0    0    0  0.00000000000E+00  0.00000000000E+00  0.74505805969E-08  0.10566000000E+00  0.10566000000E+00 0. -1.
     999900   -1    0    0    0    0 -0.00000000000E+00 -0.00000000000E+00 -0.74505805969E-08  0.93827000000E+00  0.93827000000E+00 0.  1.
     999902    2    1    2    0    0 -0.14001201088E-01  0.19123872015E-01  0.27500616531E-02  0.10200695945E+01  0.10197904974E+01 0.  0.
     999903    2    3    3    0    0  0.49726042382E-01  0.94871751729E-01  0.73768635595E-01  0.13167635908E+00  0.20579683601E-01 0.  0.
         14    1    1    2    0    0  0.14001201088E-01 -0.19123872015E-01 -0.27500616531E-02  0.23860405526E-01  0.00000000000E+00 0. -1.
     999901    1    3    3    0    0 -0.63727243470E-01 -0.75747879714E-01 -0.71018573942E-01  0.88839323539E+00  0.88000000000E+00 0.  1.
        -11    1    4    4    0    0  0.24857632035E-01  0.49199244004E-01  0.50281935563E-01  0.74612342450E-01  0.51100000000E-03 0. -1.
         11    1    4    4    0    0  0.24868410347E-01  0.45672507724E-01  0.23486700033E-01  0.57064016634E-01  0.51100000000E-03 0.  1.
</event>
<event>
 8    1  0.1086235E+005  0.1043930E+01  0.7957747E-01            NaN
         13   -1    0    0    0    0  0.00000000000E+00  0.00000000000E+00  0.74505805969E-08  0.10566000000E+00  0.10566000000E+00 0. -1.
     999900   -1    0    0    0    0 -0.00000000000E+00 -0.00000000000E+00 -0.74505805969E-08  0.93827000000E+00  0.93827000000E+00 0.  1.
     999902    2    1    2    0    0  0.12512473767E-01  0.13492585358E-01  0.15795756531E-01  0.10196788602E+01  0.10193904355E+01 0.  0.
     999903    2    3    3    0    0 -0.88225939599E-01 -0.86914723439E-01 -0.23076789214E-01  0.12741156254E+00  0.19057347635E-01 0.  0.
         14    1    1    2    0    0 -0.12512473767E-01 -0.13492585358E-01 -0.15795756531E-01  0.24251139845E-01  0.00000000000E+00 0. -1.
     999901    1    3    3    0    0  0.10073841337E+00  0.10040730880E+00  0.38872545745E-01  0.89226729762E+00  0.88000000000E+00 0. -1.
        -11    1    4    4    0    0 -0.41599894690E-01 -0.37004143120E-01 -0.12039870799E-02  0.55691727861E-01  0.51100000000E-03 0.  1.
         11    1    4    4    0    0 -0.46626044909E-01 -0.49910580319E-01 -0.21872802134E-01  0.71719834675E-01  0.51100000000E-03 0. -1.
</event>
<event>
 8    1  0.1086235E+005  0.1043930E+01  0.7957747E-01            NaN
         13   -1    0    0    0    0  0.00000000000E+00  0.00000000000E+00  0.74505805969E-08  0.10566000000E+00  0.10566000000E+00 0.  1.
     999900   -1    0    0    0    0 -0.00000000000E+00 -0.00000000000E+00 -0.74505805969E-08  0.93827000000E+00  0.93827000000E+00 0. -1.
     999902    2    1    2    0    0  0.22501092765E-01 -0.46444708677E-02  0.13961062944E-01  0.10170454029E+01  0.10166900068E+01 0.  0.
     999903    2    3    3    0    0  0.88996453400E-01 -0.49280480681E-01 -0.76422237927E-01  0.12879816957E+00  0.19991886873E-01 0.  0.
         14    1    1    2    0    0 -0.22501092765E-01  0.46444708677E-02 -0.13961062944E-01  0.26884597148E-01  0.00000000000E+00 0. -1.
     999901    1    3    3    0    0 -0.66495360635E-01  0.44636009814E-01  0.90383300870E-01  0.88824723328E+00  0.88000000000E+00 0.  1.
        -11    1    4    4    0    0  0.26779335719E-02 -0.66195765311E-02 -0.32448640928E-02  0.78600499774E-02  0.51100000000E-03 0. -1.
         11    1    4    4    0    0  0.86318519828E-01 -0.42660904150E-01 -0.73177373834E-01  0.12093811959E+00  0.51100000000E-03 0.  1.
</event>
<event>
 8    1  0.1086235E+005  0.1043930E+01  0.7957747E-01            NaN
         13   -1    0    0    0    0  0.00000000000E+00  0.00000000000E+00  0.74505805969E-08  0.10566000000E+00  0.10566000000E+00 0. -1.
     999900   -1    0    0    0    0 -0.00000000000E+00 -0.00000000000E+00 -0.74505805969E-08  0.93827000000E+00  0.93827000000E+00 0. -1.
     999902    2    1    2    0    0 -0.55288827169E-02  0.20547530659E-01 -0.12364104429E-01  0.10193202329E+01  0.10190231089E+01 0.  0.
     999903    2    3    3    0    0  0.58498667559E-01 -0.73168516698E-01  0.83750688066E-01  0.12684038544E+00  0.17279458438E-01 0.  0.
         14    1    1    2    0    0  0.55288827169E-02 -0.20547530659E-01  0.12364104429E-01  0.24609767138E-01  0.00000000000E+00 0. -1.
     999901    1    3    3    0    0 -0.64027550276E-01  0.93716047357E-01 -0.96114792495E-01  0.89247984743E+00  0.88000000000E+00 0.  1.
        -11    1    4    4    0    0  0.19856260472E-01 -0.29385775003E-01  0.21461003288E-01  0.41456370265E-01  0.51100000000E-03 0. -1.
         11    1    4    4    0    0  0.38642407087E-01 -0.43782741695E-01  0.62289684778E-01  0.85384015170E-01  0.51100000000E-03 0.  1.
</event>
<event>
 8    1  0.1086235E+005  0.1043930E+01  0.7957747E-01            NaN
         13   -1    0    0    0    0  0.00000000000E+00  0.00000000000E+00  0.74505805969E-08  0.10566000000E+00  0.10566000000E+00 0.  1.
     999900   -1    0    0    0    0 -0.00000000000E+00 -0.00000000000E+00 -0.74505805969E-08  0.93827000000E+00  0.93827000000E+00 0. -1.
     999902    2    1    2    0    0  0.92769640023E-02  0.21023157060E-01 -0.71647832056E-02  0.10198599083E+01  0.10195758252E+01 0.  0.
     999903    2    3    3    0    0  0.97501582700E-01  0.83427418124E-02 -0.86030954842E-01  0.13184850678E+00  0.20162925883E-01 0.  0.
         14    1    1    2    0    0 -0.92769640023E-02 -0.21023157060E-01  0.71647832056E-02  0.24070091655E-01  0.00000000000E+00 0. -1.
     999901    1    3    3    0    0 -0.88224618697E-01  0.12680415248E-01  0.78866171636E-01  0.88801140156E+00  0.88000000000E+00 0.  1.
        -11    1    4    4    0    0  0.78350797798E-01  0.69550086044E-02 -0.78752725343E-01  0.11130800748E+00  0.51100000000E-03 0. -1.
         11    1    4    4    0    0  0.19150784902E-01  0.13877332079E-02 -0.72782294988E-02  0.20540499299E-01  0.51100000000E-03 0.  1.
</event>
<event>
 8    1  0.1086235E+005  0.1043930E+01  0.7957747E-01            NaN
         13   -1    0    0    0    0  0.00000000000E+00  0.00000000000E+00  0.74505805969E-08  0.10566000000E+00  0.10566000000E+00 0.  1.
     999900   -1    0    0    0    0 -0.00000000000E+00 -0.00000000000E+00 -0.74505805969E-08  0.93827000000E+00  0.93827000000E+00 0. -1.
     999902    2    1    2    0    0 -0.15735822218E-01  0.16520924802E-01 -0.50866264773E-02  0.10205541401E+01  0.10202863922E+01 0.  0.
     999903    2    3    3    0    0 -0.22702961220E-01  0.78125749862E-01  0.10189676796E+00  0.13190958676E+00  0.19953208210E-01 0.  0.
         14    1    1    2    0    0  0.15735822218E-01 -0.16520924802E-01  0.50866264773E-02  0.23375859901E-01  0.00000000000E+00 0. -1.
     999901    1    3    3    0    0  0.69671390020E-02 -0.61604825060E-01 -0.10698339444E+00  0.88864455334E+00  0.88000000000E+00 0.  1.
        -11    1    4    4    0    0 -0.24589369000E-02  0.36504056361E-01  0.54647331725E-01  0.65766134805E-01  0.51100000000E-03 0. -1.
         11    1    4    4    0    0 -0.20244024320E-01  0.41621693501E-01  0.47249436237E-01  0.66143451954E-01  0.51100000000E-03 0.  1.
</event>
<event>
 8    1  0.1086235E+005  0.1043930E+01  0.7957747E-01            NaN
         13   -1    0    0    0    0  0.00000000000E+00  0.00000000000E+00  0.74505805969E-08  0.10566000000E+00  0.10566000000E+00 0.  1.
     999900   -1    0    0    0    0 -0.00000000000E+00 -0.00000000000E+00 -0.74505805969E-08  0.93827000000E+00  0.93827000000E+00 0. -1.
     999902    2    1    2    0    0  0.22681254694E-01  0.80383772945E-02 -0.96388201430E-02  0.10180077764E+01  0.10176776853E+01 0.  0.
     999903    2    3    3    0    0 -0.10566637889E+00  0.64064991247E-01  0.17299663881E-01  0.12652711004E+00  0.20979143785E-01 0.  0.
         14    1    1    2    0    0 -0.22681254694E-01 -0.80383772945E-02  0.96388201430E-02  0.25922223627E-01  0.00000000000E+00 0.  1.
     999901    1    3    3    0    0  0.12834763359E+00 -0.56026613952E-01 -0.26938484024E-01  0.89148066633E+00  0.88000000000E+00 0.  1.
        -11    1    4    4    0    0 -0.14447669435E-01  0.18038029919E-01  0.18353603305E-02  0.23189121242E-01  0.51100000000E-03 0. -1.
         11    1    4    4    0    0 -0.91218709457E-01  0.46026961328E-01  0.15464303550E-01  0.10333798880E+00  0.51100000000E-03 0.  1.
</event>
<event>
 8    1  0.1086235E+005  0.1043930E+01  0.7957747E-01            NaN
         13   -1    0    0    0    0  0.00000000000E+00  0.00000000000E+00  0.74505805969E-08  0.10566000000E+00  0.10566000000E+00 0. -1.
     999900   -1    0    0    0    0 -0.00000000000E+00 -0.00000000000E+00 -0.74505805969E-08  0.93827000000E+00  0.93827000000E+00 0. -1.
     999902    2    1    2    0    0 -0.22711744327E-01 -0.13574924371E-01  0.23237274727E-02  0.10173687197E+01  0.10170219320E+01 0.  0.
     999903    2    3    3    0    0  0.67445966763E-02  0.21021500978E-01 -0.12470351859E+00  0.12708757875E+00  0.10625066442E-01 0.  0.
         14    1    1    2    0    0  0.22711744327E-01  0.13574924371E-01 -0.23237274727E-02  0.26561280305E-01  0.00000000000E+00 0. -1.
     999901    1    3    3    0    0 -0.29456341003E-01 -0.34596425350E-01  0.12702724606E+00  0.89028114094E+00  0.88000000000E+00 0.  1.
        -11    1    4    4    0    0 -0.99253486716E-03  0.13775651087E-01 -0.75161244215E-01  0.76421380787E-01  0.51100000000E-03 0. -1.
         11    1    4    4    0    0  0.77371315435E-02  0.72458498911E-02 -0.49542274376E-01  0.50666197968E-01  0.51100000000E-03 0.  1.
</event>
<event>
 8    1  0.1086235E+005  0.1043930E+01  0.7957747E-01            NaN
         13   -1    0    0    0    0  0.00000000000E+00  0.00000000000E+00  0.74505805969E-08  0.10566000000E+00  0.10566000000E+00 0. -1.
     999900   -1    0    0    0    0 -0.00000000000E+00 -0.00000000000E+00 -0.74505805969E-08  0.93827000000E+00  0.93827000000E+00 0.  1.
     999902    2    1    2    0    0 -0.11249571428E-01 -0.76512139965E-02 -0.14335866928E-01  0.10241661185E+01  0.10239754036E+01 0.  0.
     999903    2    3    3    0    0 -0.82621788197E-01  0.91749912647E-01  0.46739773420E-01  0.13360179672E+00  0.20504324253E-01 0.  0.
         14    1    1    2    0    0  0.11249571428E-01  0.76512139965E-02  0.14335866928E-01  0.19763881540E-01  0.00000000000E+00 0. -1.
     999901    1    3    3    0    0  0.71372216769E-01 -0.99401126644E-01 -0.61075640348E-01  0.89056432174E+00  0.88000000000E+00 0. -1.
        -11    1    4    4    0    0 -0.12880186473E-01  0.24821408487E-01  0.15721769850E-01  0.32084835843E-01  0.51100000000E-03 0.  1.
         11    1    4    4    0    0 -0.69741601724E-01  0.66928504161E-01  0.31018003570E-01  0.10151696088E+00  0.51100000000E-03 0. -1.
</event>
<event>
 8    1  0.1086235E+005  0.1043930E+01  0.7957747E-01            NaN
         13   -1    0    0    0    0  0.00000000000E+00  0.00000000000E+00  0.74505805969E-08  0.10566000000E+00  0.10566000000E+00 0. -1.
     999900   -1    0    0    0    0 -0.00000000000E+00 -0.00000000000E+00 -0.74505805969E-08  0.93827000000E+00  0.93827000000E+00 0.  1.
     999902    2    1    2    0    0 -0.72233954311E-02 -0.78157691177E-02 -0.21916993654E-01  0.10195657167E+01  0.10192745618E+01 0.  0.
     999903    2    3    3    0    0 -0.24257332990E-01 -0.11701131537E+00  0.46901994314E-01  0.12998723483E+00  0.20416121577E-01 0.  0.
         14    1    1    2    0    0  0.72233954311E-02  0.78157691177E-02  0.21916993654E-01  0.24364283271E-01  0.00000000000E+00 0. -1.
     999901    1    3    3    0    0  0.17033937559E-01  0.10919554625E+00 -0.68818987968E-01  0.88957848190E+00  0.88000000000E+00 0.  1.
        -11    1    4    4    0    0 -0.85923124061E-02 -0.18205828731E-01  0.14553222062E-01  0.24846275891E-01  0.51100000000E-03 0.  1.
         11    1    4    4    0    0 -0.15665020584E-01 -0.98805486639E-01  0.32348772252E-01  0.10514095894E+00  0.51100000000E-03 0. -1.
</event>
<event>
 8    1  0.1086235E+005  0.1043930E+01  0.7957747E-01            NaN
         13   -1    0    0    0    0  0.00000000000E+00  0.00000000000E+00  0.74505805969E-08  0.10566000000E+00  0.10566000000E+00 0. -1.
     999900   -1    0    0    0    0 -0.00000000000E+00 -0.00000000000E+00 -0.74505805969E-08  0.93827000000E+00  0.93827000000E+00 0. -1.
     999902    2    1    2    0    0 -0.14730341342E-01  0.72702055370E-02  0.17394081899E-01  0.10200052653E+01  0.10197246434E+01 0.  0.
     999903    2    3    3    0    0  0.18475783080E-01 -0.79785019364E-02 -0.12468054078E+00  0.12786157275E+00  0.19958293576E-01 0.  0.
         14    1    1    2    0    0  0.14730341342E-01 -0.72702055370E-02 -0.17394081899E-01  0.23924734684E-01  0.00000000000E+00 0.  1.
     999901    1    3    3    0    0 -0.33206124421E-01  0.15248707473E-01  0.14207462268E+00  0.89214369257E+00  0.88000000000E+00 0.  1.
        -11    1    4    4    0    0  0.96697206944E-02  0.22212412898E-02 -0.91613956272E-01  0.92151047287E-01  0.51100000000E-03 0. -1.
         11    1    4    4    0    0  0.88060623854E-02 -0.10199743226E-01 -0.33066584510E-01  0.35710525462E-01  0.51100000000E-03 0.  1.
</event>
<event>
 8    1  0.1086235E+005  0.1043930E+01  0.7957747E-01            NaN
         13   -1    0    0    0    0  0.00000000000E+00  0.00000000000E+00  0.74505805969E-08  0.10566000000E+00  0.10566000000E+00 0. -1.
     999900   -1    0    0    0    0 -0.00000000000E+00 -0.00000000000E+00 -0.74505805969E-08  0.93827000000E+00  0.93827000000E+00 0. -1.
     999902    2    1    2    0    0 -0.29080157626E-02  0.20474248020E-01 -0.10606686380E-01  0.10206888042E+01  0.10204241676E+01 0.  0.
     999903    2    3    3    0    0  0.11925056615E+00  0.47338435776E-01 -0.22575410528E-01  0.13176380504E+00  0.19759203666E-01 0.  0.
         14    1    1    2    0    0  0.29080157626E-02 -0.20474248020E-01  0.10606686380E-01  0.23241195831E-01  0.00000000000E+00 0.  1.
     999901    1    3    3    0    0 -0.12215858191E+00 -0.26864187756E-01  0.11968724148E-01  0.88892499913E+00  0.88000000000E+00 0.  1.
        -11    1    4    4    0    0  0.83761253223E-02  0.44942870677E-02 -0.71414933294E-02  0.11900426027E-01  0.51100000000E-03 0. -1.
         11    1    4    4    0    0  0.11087444083E+00  0.42844148709E-01 -0.15433917198E-01  0.11986337901E+00  0.51100000000E-03 0.  1.
</event>
<event>
 8    1  0.1086235E+005  0.1043930E+01  0.7957747E-01            NaN
         13   -1    0    0    0    0  0.00000000000E+00  0.00000000000E+00  0.74505805969E-08  0.10566000000E+00  0.10566000000E+00 0.  1.
     999900   -1    0    0    0    0 -0.00000000000E+00 -0.00000000000E+00 -0.74505805969E-08  0.93827000000E+00  0.93827000000E+00 0.  1.
     999902    2    1    2    0    0  0.18249527409E-01 -0.66281062113E-03 -0.15106281239E-01  0.10202301202E+01  0.10199548097E+01 0.  0.
     999903    2    3    3    0    0 -0.43865213062E-01  0.64084786051E-01 -0.10382182119E+00  0.13123015437E+00  0.20282163085E-01 0.  0.
         14    1    1    2    0    0 -0.18249527409E-01  0.66281062113E-03  0.15106281239E-01  0.23699879777E-01  0.00000000000E+00 0.  1.
     999901    1    3    3    0    0  0.62114740471E-01 -0.64747596673E-01  0.88715539956E-01  0.88899996585E+00  0.88000000000E+00 0. -1.
        -11    1    4    4    0    0 -0.43501577863E-01  0.55525542351E-01 -0.84394705677E-01  0.10999182059E+00  0.51100000000E-03 0.  1.
         11    1    4    4    0    0 -0.36363519888E-03  0.85592437003E-02 -0.19427115517E-01  0.21238333777E-01  0.51100000000E-03 0. -1.
</event>
<event>
 8    1  0.1086235E+005  0.1043930E+01  0.7957747E-01            NaN
         13   -1    0    0    0    0  0.00000000000E+00  0.00000000000E+00  0.74505805969E-08  0.10566000000E+00  0.10566000000E+00 0. -1.
     999900   -1    0    0    0    0 -0.00000000000E+00 -0.00000000000E+00 -0.74505805969E-08  0.93827000000E+00  0.93827000000E+00 0.  1.
     999902    2    1    2    0    0 -0.99299899835E-02 -0.12955642128E-01  0.16370567694E-01  0.10208118502E+01  0.10205500402E+01 0.  0.
     999903    2    3    3    0    0  0.12551387046E+00  0.19073418666E-01 -0.13739749940E-01  0.12936497500E+00  0.20712050858E-01 0.  0.
         14    1    1    2    0    0  0.99299899835E-02  0.12955642128E-01 -0.16370567694E-01  0.23118149810E-01  0.00000000000E+00 0.  1.
     999901    1    3    3    0    0 -0.13544386044E+00 -0.32029060793E-01  0.30110317634E-01  0.89144687519E+00  0.88000000000E+00 0. -1.
        -11    1    4    4    0    0  0.54316471587E-01  0.17348935842E-01 -0.11052767168E-02  0.57032862616E-01  0.51100000000E-03 0.  1.
         11    1    4    4    0    0  0.71197398868E-01  0.17244828236E-02 -0.12634473223E-01  0.72332112379E-01  0.51100000000E-03 0. -1.
</event>
<event>
 8    1  0.1093385E+005  0.1043930E+01  0.7957747E-01            NaN
         13   -1    0    0    0    0  0.00000000000E+00  0.00000000000E+00  0.74505805969E-08  0.10566000000E+00  0.10566000000E+00 0. -1.
     999900   -1    0    0    0    0 -0.00000000000E+00 -0.00000000000E+00 -0.74505805969E-08  0.93827000000E+00  0.93827000000E+00 0.  1.
     999902    2    1    2    0    0  0.58860506415E-02 -0.26363214806E-01  0.65702870043E-03  0.10169097044E+01  0.10165506631E+01 0.  0.
     999903    2    3    3    0    0 -0.14756009000E-01 -0.95924521021E-01  0.84127645156E-01  0.12998681387E+00  0.19996438847E-01 0.  0.
         14    1    1    2    0    0 -0.58860506415E-02  0.26363214806E-01 -0.65702870043E-03  0.27020295590E-01  0.00000000000E+00 0.  1.
     999901    1    3    3    0    0  0.20642059642E-01  0.69561306215E-01 -0.83470616455E-01  0.88692289054E+00  0.88000000000E+00 0. -1.
        -11    1    4    4    0    0 -0.12653309163E-01 -0.29123394068E-01  0.33332784306E-01  0.46039265257E-01  0.51100000000E-03 0. -1.
         11    1    4    4    0    0 -0.21026998371E-02 -0.66801126953E-01  0.50794860850E-01  0.83947548616E-01  0.51100000000E-03 0.  1.
</event>
<event>
 8    1  0.1086235E+005  0.1043930E+01  0.7957747E-01            NaN
         13   -1    0    0    0    0  0.00000000000E+00  0.00000000000E+00  0.74505805969E-08  0.10566000000E+00  0.10566000000E+00 0. -1.
     999900   -1    0    0    0    0 -0.00000000000E+00 -0.00000000000E+00 -0.74505805969E-08  0.93827000000E+00  0.93827000000E+00 0.  1.
     999902    2    1    2    0    0  0.21576189062E-01 -0.94739283056E-02  0.45574649032E-02  0.10199287971E+01  0.10196463571E+01 0.  0.
     999903    2    3    3    0    0 -0.92900943917E-03 -0.55497766193E-01  0.11725044803E+00  0.13126441390E+00  0.20045290788E-01 0.  0.
         14    1    1    2    0    0 -0.21576189062E-01  0.94739283056E-02 -0.45574649032E-02  0.24001202852E-01  0.00000000000E+00 0.  1.
     999901    1    3    3    0    0  0.22505198502E-01  0.46023837888E-01 -0.11269298312E+00  0.88866438325E+00  0.88000000000E+00 0. -1.
        -11    1    4    4    0    0  0.10362471111E-02 -0.43165263838E-01  0.68802781739E-01  0.81230522012E-01  0.51100000000E-03 0. -1.
         11    1    4    4    0    0 -0.19652565502E-02 -0.12332502355E-01  0.48447666286E-01  0.50033891885E-01  0.51100000000E-03 0.  1.
</event>
<event>
 8    1  0.1086235E+005  0.1043930E+01  0.7957747E-01            NaN
         13   -1    0    0    0    0  0.00000000000E+00  0.00000000000E+00  0.74505805969E-08  0.10566000000E+00  0.10566000000E+00 0. -1.
     999900   -1    0    0    0    0 -0.00000000000E+00 -0.00000000000E+00 -0.74505805969E-08  0.93827000000E+00  0.93827000000E+00 0. -1.
     999902    2    1    2    0    0  0.18156786508E-01 -0.10467023544E-01 -0.10326895151E-01  0.10205660910E+01  0.10202986200E+01 0.  0.
     999903    2    3    3    0    0 -0.84328886342E-02  0.12655633855E+00 -0.17310066631E-01  0.12953793365E+00  0.19819621832E-01 0.  0.
         14    1    1    2    0    0 -0.18156786508E-01  0.10467023544E-01  0.10326895151E-01  0.23363908955E-01  0.00000000000E+00 0. -1.
     999901    1    3    3    0    0  0.26589675142E-01 -0.13702336210E+00  0.69831714791E-02  0.89102815739E+00  0.88000000000E+00 0.  1.
        -11    1    4    4    0    0 -0.10991821330E-01  0.38601409244E-01 -0.91339815263E-02  0.41165272637E-01  0.51100000000E-03 0.  1.
         11    1    4    4    0    0  0.25589326962E-02  0.87954929308E-01 -0.81760851043E-02  0.88372661014E-01  0.51100000000E-03 0. -1.
</event>
<event>
 8    1  0.1086235E+005  0.1043930E+01  0.7957747E-01            NaN
         13   -1    0    0    0    0  0.00000000000E+00  0.00000000000E+00  0.74505805969E-08  0.10566000000E+00  0.10566000000E+00 0.  1.
     999900   -1    0    0    0    0 -0.00000000000E+00 -0.00000000000E+00 -0.74505805969E-08  0.93827000000E+00  0.93827000000E+00 0. -1.
     999902    2    1    2    0    0  0.64456209533E-02  0.15487599741E-01  0.14479505626E-01  0.10217699490E+01  0.10215296182E+01 0.  0.
     999903    2    3    3    0    0 -0.83951799592E-01  0.46017331099E-01  0.90619690535E-01  0.13334376421E+00  0.20078140479E-01 0.  0.
         14    1    1    2    0    0 -0.64456209533E-02 -0.15487599741E-01 -0.14479505626E-01  0.22160050957E-01  0.00000000000E+00 0. -1.
     999901    1    3    3    0    0  0.90397420546E-01 -0.30529731357E-01 -0.76140184909E-01  0.88842618483E+00  0.88000000000E+00 0.  1.
        -11    1    4    4    0    0 -0.49362507384E-01  0.38014665468E-01  0.56968752144E-01  0.84424355299E-01  0.51100000000E-03 0.  1.
         11    1    4    4    0    0 -0.34589292209E-01  0.80026656306E-02  0.33650938391E-01  0.48919408912E-01  0.51100000000E-03 0. -1.
</event>
<event>
 8    1  0.1086235E+005  0.1043930E+01  0.7957747E-01            NaN
         13   -1    0    0    0    0  0.00000000000E+00  0.00000000000E+00  0.74505805969E-08  0.10566000000E+00  0.10566000000E+00 0. -1.
     999900   -1    0    0    0    0 -0.00000000000E+00 -0.00000000000E+00 -0.74505805969E-08  0.93827000000E+00  0.93827000000E+00 0.  1.
     999902    2    1    2    0    0  0.11607901817E-01  0.20587777122E-01  0.45744722362E-02  0.10198566590E+01  0.10195724982E+01 0.  0.
     999903    2    3    3    0    0  0.55670816270E-01  0.53785157226E-01 -0.10432516163E+00  0.13142954507E+00  0.19947507297E-01 0.  0.
         14    1    1    2    0    0 -0.11607901817E-01 -0.20587777122E-01 -0.45744722362E-02  0.24073341016E-01  0.00000000000E+00 0. -1.
     999901    1    3    3    0    0 -0.44062914453E-01 -0.33197380104E-01  0.10889963386E+00  0.88842711391E+00  0.88000000000E+00 0. -1.
        -11    1    4    4    0    0  0.30950574079E-01  0.41454512263E-01 -0.60304491501E-01  0.79456324097E-01  0.51100000000E-03 0. -1.
         11    1    4    4    0    0  0.24720242191E-01  0.12330644963E-01 -0.44020670128E-01  0.51973220977E-01  0.51100000000E-03 0.  1.
</event>
<event>
 8    1  0.1086235E+005  0.1043930E+01  0.7957747E-01            NaN
         13   -1    0    0    0    0  0.00000000000E+00  0.00000000000E+00  0.74505805969E-08  0.10566000000E+00  0.10566000000E+00 0. -1.
     999900   -1    0    0    0    0 -0.00000000000E+00 -0.00000000000E+00 -0.74505805969E-08  0.93827000000E+00  0.93827000000E+00 0.  1.
     999902    2    1    2    0    0 -0.87451517283E-02  0.12361399936E-01 -0.16667366116E-01  0.10214114969E+01  0.10211632402E+01 0.  0.
     999903    2    3    3    0    0  0.62439303643E-02  0.12818424794E+00 -0.31941164684E-01  0.13356416004E+00  0.18680437926E-01 0.  0.
         14    1    1    2    0    0  0.87451517283E-02 -0.12361399936E-01  0.16667366116E-01  0.22518503067E-01  0.00000000000E+00 0. -1.
     999901    1    3    3    0    0 -0.14989082093E-01 -0.11582284800E+00  0.15273798568E-01  0.88784733689E+00  0.88000000000E+00 0. -1.
        -11    1    4    4    0    0  0.31001835842E-02  0.53999214993E-01 -0.22988816255E-01  0.58773064850E-01  0.51100000000E-03 0. -1.
         11    1    4    4    0    0  0.31437467801E-02  0.74185032943E-01 -0.89523484291E-02  0.74791095192E-01  0.51100000000E-03 0.  1.
</event>
<event>
 8    1  0.1086235E+005  0.1043930E+01  0.7957747E-01            NaN
         13   -1    0    0    0    0  0.00000000000E+00  0.00000000000E+00  0.74505805969E-08  0.10566000000E+00  0.10566000000E+00 0.  1.
     999900   -1    0    0    0    0 -0.00000000000E+00 -0.00000000000E+00 -0.74505805969E-08  0.93827000000E+00  0.93827000000E+00 0.  1.
     999902    2    1    2    0    0 -0.22787437986E-01  0.62260865683E-02 -0.44437343139E-02  0.10198929815E+01  0.10196096878E+01 0.  0.
     999903    2    3    3    0    0 -0.78222871543E-01 -0.62481715975E-01  0.82629590429E-01  0.13119977611E+00  0.19051235449E-01 0.  0.
         14    1    1    2    0    0  0.22787437986E-01 -0.62260865683E-02  0.44437343139E-02  0.24037018505E-01  0.00000000000E+00 0. -1.
     999901    1    3    3    0    0  0.55435433557E-01  0.68707802543E-01 -0.87073324743E-01  0.88869320539E+00  0.88000000000E+00 0. -1.
        -11    1    4    4    0    0 -0.20170017709E-01 -0.71403226000E-02  0.21663218414E-01  0.30452749864E-01  0.51100000000E-03 0.  1.
         11    1    4    4    0    0 -0.58052853834E-01 -0.55341393375E-01  0.60966372016E-01  0.10074702624E+00  0.51100000000E-03 0. -1.
</event>
<event>
 8    1  0.1086235E+005  0.1043930E+01  0.7957747E-01            NaN
         13   -1    0    0    0    0  0.00000000000E+00  0.00000000000E+00  0.74505805969E-08  0.10566000000E+00  0.10566000000E+00 0. -1.
     999900   -1    0    0    0    0 -0.00000000000E+00 -0.00000000000E+00 -0.74505805969E-08  0.93827000000E+00  0.93827000000E+00 0.  1.
     999902    2    1    2    0    0 -0.11763206039E-02 -0.17553520741E-01  0.16832391186E-01  0.10195817103E+01  0.10192909421E+01 0.  0.
     999903    2    3    3    0    0 -0.11867949071E+00 -0.20845048917E-01 -0.43760480280E-01  0.12970007474E+00  0.19692439550E-01 0.  0.
         14    1    1    2    0    0  0.11763206039E-02  0.17553520741E-01 -0.16832391186E-01  0.24348289747E-01  0.00000000000E+00 0. -1.
     999901    1    3    3    0    0  0.11750317010E+00  0.32915281762E-02  0.60592871466E-01  0.88988163551E+00  0.88000000000E+00 0. -1.
        -11    1    4    4    0    0 -0.61129707814E-01 -0.16140564109E-01 -0.31624185123E-01  0.70694477811E-01  0.51100000000E-03 0.  1.
         11    1    4    4    0    0 -0.57549782894E-01 -0.47044848080E-02 -0.12136295156E-01  0.59005596934E-01  0.51100000000E-03 0. -1.
</event>
<event>
 8    1  0.1086235E+005  0.1043930E+01  0.7957747E-01            NaN
         13   -1    0    0    0    0  0.00000000000E+00  0.00000000000E+00  0.74505805969E-08  0.10566000000E+00  0.10566000000E+00 0. -1.
     999900   -1    0    0    0    0 -0.00000000000E+00 -0.00000000000E+00 -0.74505805969E-08  0.93827000000E+00  0.93827000000E+00 0. -1.
     999902    2    1    2    0    0  0.83165489526E-02 -0.73975325024E-03  0.18536408008E-01  0.10235999571E+01  0.10233980465E+01 0.  0.
     999903    2    3    3    0    0 -0.22337513096E-03  0.97813871713E-01  0.91182135431E-01  0.13508256900E+00  0.19118452583E-01 0.  0.
         14    1    1    2    0    0 -0.83165489526E-02  0.73975325024E-03 -0.18536408008E-01  0.20330042873E-01  0.00000000000E+00 0.  1.
     999901    1    3    3    0    0  0.85399240836E-02 -0.98553624964E-01 -0.72645727422E-01  0.88851738813E+00  0.88000000000E+00 0.  1.
        -11    1    4    4    0    0  0.18735213362E-02  0.26286970731E-01  0.14055467522E-01  0.29871929979E-01  0.51100000000E-03 0.  1.
         11    1    4    4    0    0 -0.20968964672E-02  0.71526900983E-01  0.77126667908E-01  0.10521063902E+00  0.51100000000E-03 0. -1.
</event>
<event>
 8    1  0.1086235E+005  0.1043930E+01  0.7957747E-01            NaN
         13   -1    0    0    0    0  0.00000000000E+00  0.00000000000E+00  0.74505805969E-08  0.10566000000E+00  0.10566000000E+00 0.  1.
     999900   -1    0    0    0    0 -0.00000000000E+00 -0.00000000000E+00 -0.74505805969E-08  0.93827000000E+00  0.93827000000E+00 0. -1.
     999902    2    1    2    0    0  0.29082816721E-03  0.21663621836E-01 -0.85221586625E-02  0.10206485851E+01  0.10203830212E+01 0.  0.
     999903    2    3    3    0    0 -0.10385200199E+00  0.79627630836E-01 -0.43496159427E-02  0.13260412363E+00  0.20955584818E-01 0.  0.
         14    1    1    2    0    0 -0.29082816721E-03 -0.21663621836E-01  0.85221586625E-02  0.23281414912E-01  0.00000000000E+00 0. -1.
     999901    1    3    3    0    0  0.10414283016E+00 -0.57964009000E-01 -0.41725427198E-02  0.88804446146E+00  0.88000000000E+00 0. -1.
        -11    1    4    4    0    0 -0.30769723532E-01  0.36044901409E-01  0.10734850300E-03  0.47394972819E-01  0.51100000000E-03 0.  1.
         11    1    4    4    0    0 -0.73082278457E-01  0.43582729427E-01 -0.44569644457E-02  0.85209150811E-01  0.51100000000E-03 0. -1.
</event>
<event>
 8    1  0.1086235E+005  0.1043930E+01  0.7957747E-01            NaN
         13   -1    0    0    0    0  0.00000000000E+00  0.00000000000E+00  0.74505805969E-08  0.10566000000E+00  0.10566000000E+00 0. -1.
     999900   -1    0    0    0    0 -0.00000000000E+00 -0.00000000000E+00 -0.74505805969E-08  0.93827000000E+00  0.93827000000E+00 0.  1.
     999902    2    1    2    0    0 -0.14926068468E-01 -0.15846536578E-01  0.94647786011E-02  0.10201922184E+01  0.10199160163E+01 0.  0.
     999903    2    3    3    0    0 -0.19604221535E-01  0.12432334889E+00 -0.16616870891E-01  0.12870484645E+00  0.21170652315E-01 0.  0.
         14    1    1    2    0    0  0.14926068468E-01  0.15846536578E-01 -0.94647786011E-02  0.23737781602E-01  0.00000000000E+00 0.  1.
     999901    1    3    3    0    0  0.46781530669E-02 -0.14016988547E+00  0.26081649492E-01  0.89148737195E+00  0.88000000000E+00 0.  1.
        -11    1    4    4    0    0 -0.80998278048E-02  0.88958438965E-01 -0.19393113758E-01  0.91408779971E-01  0.51100000000E-03 0. -1.
         11    1    4    4    0    0 -0.11504393730E-01  0.35364909925E-01  0.27762428669E-02  0.37296066475E-01  0.51100000000E-03 0.  1.
</event>
<event>
 8    1  0.1086235E+005  0.1043930E+01  0.7957747E-01            NaN
         13   -1    0    0    0    0  0.00000000000E+00  0.00000000000E+00  0.74505805969E-08  0.10566000000E+00  0.10566000000E+00 0. -1.
     999900   -1    0    0    0    0 -0.00000000000E+00 -0.00000000000E+00 -0.74505805969E-08  0.93827000000E+00  0.93827000000E+00 0. -1.
     999902    2    1    2    0    0  0.11888348153E-01  0.19335306088E-01  0.57206195862E-02  0.10205224719E+01  0.10202539896E+01 0.  0.
     999903    2    3    3    0    0  0.90155391817E-01  0.52504375549E-01  0.80589236074E-01  0.13326195377E+00  0.19478686474E-01 0.  0.
         14    1    1    2    0    0 -0.11888348153E-01 -0.19335306088E-01 -0.57206195862E-02  0.23407528100E-01  0.00000000000E+00 0.  1.
     999901    1    3    3    0    0 -0.78267043664E-01 -0.33169069462E-01 -0.74868616488E-01  0.88726051813E+00  0.88000000000E+00 0. -1.
        -11    1    4    4    0    0  0.18723035821E-01  0.17002246252E-01  0.11733931709E-01  0.27885026848E-01  0.51100000000E-03 0. -1.
         11    1    4    4    0    0  0.71432355996E-01  0.35502129297E-01  0.68855304366E-01  0.10537692692E+00  0.51100000000E-03 0.  1.
</event>
<event>
 8    1  0.1086235E+005  0.1043930E+01  0.7957747E-01            NaN
         13   -1    0    0    0    0  0.00000000000E+00  0.00000000000E+00  0.74505805969E-08  0.10566000000E+00  0.10566000000E+00 0. -1.
     999900   -1    0    0    0    0 -0.00000000000E+00 -0.00000000000E+00 -0.74505805969E-08  0.93827000000E+00  0.93827000000E+00 0.  1.
     999902    2    1    2    0    0 -0.20159586891E-01  0.85891993427E-02 -0.93899814841E-02  0.10200898020E+01  0.10198111831E+01 0.  0.
     999903    2    3    3    0    0  0.49566976083E-01  0.11824461176E+00 -0.14850675005E-01  0.13053040418E+00  0.19467165652E-01 0.  0.
         14    1    1    2    0    0  0.20159586891E-01 -0.85891993427E-02  0.93899814841E-02  0.23840198011E-01  0.00000000000E+00 0. -1.
     999901    1    3    3    0    0 -0.69726562973E-01 -0.10965541242E+00  0.54606935206E-02  0.88955939781E+00  0.88000000000E+00 0.  1.
        -11    1    4    4    0    0  0.33575772891E-01  0.92733511558E-01 -0.17992775146E-01  0.10025386661E+00  0.51100000000E-03 0. -1.
         11    1    4    4    0    0  0.15991203192E-01  0.25511100204E-01  0.31421001408E-02  0.30276537574E-01  0.51100000000E-03 0.  1.
</event>
<event>
 8    1  0.1086235E+005  0.1043930E+01  0.7957747E-01            NaN
         13   -1    0    0    0    0  0.00000000000E+00  0.00000000000E+00  0.74505805969E-08  0.10566000000E+00  0.10566000000E+00 0.  1.
     999900   -1    0    0    0    0 -0.00000000000E+00 -0.00000000000E+00 -0.74505805969E-08  0.93827000000E+00  0.93827000000E+00 0. -1.
     999902    2    1    2    0    0  0.53873970400E-02 -0.60272822523E-02 -0.21416302831E-01  0.10210387308E+01  0.10207820921E+01 0.  0.
     999903    2    3    3    0    0 -0.48560728049E-01 -0.12064617764E+00 -0.75533039347E-02  0.13185929216E+00  0.20400393169E-01 0.  0.
         14    1    1    2    0    0 -0.53873970400E-02  0.60272822523E-02  0.21416302831E-01  0.22891269191E-01  0.00000000000E+00 0.  1.
     999901    1    3    3    0    0  0.53948125089E-01  0.11461889538E+00 -0.13862998896E-01  0.88917943865E+00  0.88000000000E+00 0. -1.
        -11    1    4    4    0    0 -0.44363550820E-01 -0.87863111544E-01 -0.84611610742E-02  0.98792223273E-01  0.51100000000E-03 0. -1.
         11    1    4    4    0    0 -0.41971772289E-02 -0.32783066093E-01  0.90785713944E-03  0.33067068886E-01  0.51100000000E-03 0.  1.
</event>
<event>
 8    1  0.1086235E+005  0.1043930E+01  0.7957747E-01            NaN
         13   -1    0    0    0    0  0.00000000000E+00  0.00000000000E+00  0.74505805969E-08  0.10566000000E+00  0.10566000000E+00 0.  1.
     999900   -1    0    0    0    0 -0.00000000000E+00 -0.00000000000E+00 -0.74505805969E-08  0.93827000000E+00  0.93827000000E+00 0.  1.
     999902    2    1    2    0    0  0.48258504299E-02  0.70053238529E-02  0.21764951023E-01  0.10205617205E+01  0.10202941482E+01 0.  0.
     999903    2    3    3    0    0  0.11973139929E+00 -0.28694023623E-01 -0.37768819743E-01  0.13038084087E+00  0.20340229924E-01 0.  0.
         14    1    1    2    0    0 -0.48258504299E-02 -0.70053238529E-02 -0.21764951023E-01  0.23368279519E-01  0.00000000000E+00 0. -1.
     999901    1    3    3    0    0 -0.11490554886E+00  0.35699347476E-01  0.59533770766E-01  0.89018087961E+00  0.88000000000E+00 0.  1.
        -11    1    4    4    0    0  0.70605955643E-01 -0.20996933199E-01 -0.12911030605E-01  0.74786549648E-01  0.51100000000E-03 0.  1.
         11    1    4    4    0    0  0.49125443645E-01 -0.76970904247E-02 -0.24857789139E-01  0.55594291219E-01  0.51100000000E-03 0. -1.
</event>
<event>
 8    1  0.1086235E+005  0.1043930E+01  0.7957747E-01            NaN
         13   -1    0    0    0    0  0.00000000000E+00  0.00000000000E+00  0.74505805969E-08  0.10566000000E+00  0.10566000000E+00 0.  1.
     999900   -1    0    0    0    0 -0.00000000000E+00 -0.00000000000E+00 -0.74505805969E-08  0.93827000000E+00  0.93827000000E+00 0.  1.
     999902    2    1    2    0    0 -0.12662809103E-01 -0.40177619769E-03  0.19756521759E-01  0.10204602682E+01  0.10201903404E+01 0.  0.
     999903    2    3    3    0    0 -0.11739064772E+00 -0.49194310892E-02  0.59848665515E-01  0.13333248182E+00  0.19771772056E-01 0.  0.
         14    1    1    2    0    0  0.12662809103E-01  0.40177619769E-03 -0.19756521759E-01  0.23469731795E-01  0.00000000000E+00 0. -1.
     999901    1    3    3    0    0  0.10472783862E+00  0.45176548915E-02 -0.40092143755E-01  0.88712778639E+00  0.88000000000E+00 0.  1.
        -11    1    4    4    0    0 -0.73464206338E-01 -0.43926039465E-02  0.47871570406E-01  0.87796542965E-01  0.51100000000E-03 0. -1.
         11    1    4    4    0    0 -0.43926441380E-01 -0.52682714268E-03  0.11977095108E-01  0.45535938855E-01  0.51100000000E-03 0.  1.
</event>
<event>
 8    1  0.1086235E+005  0.1043930E+01  0.7957747E-01            NaN
         13   -1    0    0    0    0  0.00000000000E+00  0.00000000000E+00  0.74505805969E-08  0.10566000000E+00  0.10566000000E+00 0.  1.
     999900   -1    0    0    0    0 -0.00000000000E+00 -0.00000000000E+00 -0.74505805969E-08  0.93827000000E+00  0.93827000000E+00 0. -1.
     999902    2    1    2    0    0 -0.19134259046E-01  0.81044823217E-03  0.14296261874E-01  0.10200310502E+01  0.10197510400E+01 0.  0.
     999903    2    3    3    0    0  0.42140758018E-01 -0.81602123800E-01  0.90908772597E-01  0.13075272681E+00  0.19927883419E-01 0.  0.
         14    1    1    2    0    0  0.19134259046E-01 -0.81044823217E-03 -0.14296261874E-01  0.23898949750E-01  0.00000000000E+00 0. -1.
     999901    1    3    3    0    0 -0.61275017064E-01  0.82412572032E-01 -0.76612510724E-01  0.88927832344E+00  0.88000000000E+00 0. -1.
        -11    1    4    4    0    0 -0.55154168692E-03 -0.10025460940E-01  0.14769199876E-01  0.17866293719E-01  0.51100000000E-03 0. -1.
         11    1    4    4    0    0  0.42692299705E-01 -0.71576662860E-01  0.76139572721E-01  0.11288643309E+00  0.51100000000E-03 0.  1.
</event>
<event>
 8    1  0.1086235E+005  0.1043930E+01  0.7957747E-01            NaN
         13   -1    0    0    0    0  0.00000000000E+00  0.00000000000E+00  0.74505805969E-08  0.10566000000E+00  0.10566000000E+00 0. -1.
     999900   -1    0    0    0    0 -0.00000000000E+00 -0.00000000000E+00 -0.74505805969E-08  0.93827000000E+00  0.93827000000E+00 0.  1.
     999902    2    1    2    0    0  0.16746741936E-01  0.15104348676E-01  0.68146825682E-02  0.10203708274E+01  0.10200988142E+01 0.  0.
     999903    2    3    3    0    0  0.39501618874E-01  0.62725897058E-01 -0.10675161800E+00  0.13150475150E+00  0.20066780116E-01 0.  0.
         14    1    1    2    0    0 -0.16746741936E-01 -0.15104348676E-01 -0.68146825682E-02  0.23559172585E-01  0.00000000000E+00 0.  1.
     999901    1    3    3    0    0 -0.22754876939E-01 -0.47621548382E-01  0.11356630057E+00  0.88886607592E+00  0.88000000000E+00 0.  1.
        -11    1    4    4    0    0  0.32641124680E-01  0.44029472288E-01 -0.90457605141E-01  0.10576803345E+00  0.51100000000E-03 0. -1.
         11    1    4    4    0    0  0.68604941942E-02  0.18696424771E-01 -0.16294012862E-01  0.25736718049E-01  0.51100000000E-03 0.  1.
</event>
<event>
 8    1  0.1086235E+005  0.1043930E+01  0.7957747E-01            NaN
         13   -1    0    0    0    0  0.00000000000E+00  0.00000000000E+00  0.74505805969E-08  0.10566000000E+00  0.10566000000E+00 0.  1.
     999900   -1    0    0    0    0 -0.00000000000E+00 -0.00000000000E+00 -0.74505805969E-08  0.93827000000E+00  0.93827000000E+00 0. -1.
     999902    2    1    2    0    0  0.85484017161E-02 -0.13470884281E-01 -0.16575713239E-01  0.10209236060E+01  0.10206643499E+01 0.  0.
     999903    2    3    3    0    0  0.89433929957E-01 -0.85253476851E-01 -0.47245463848E-01  0.13377320000E+00  0.19913614467E-01 0.  0.
         14    1    1    2    0    0 -0.85484017161E-02  0.13470884281E-01  0.16575713239E-01  0.23006393994E-01  0.00000000000E+00 0.  1.
     999901    1    3    3    0    0 -0.80885528241E-01  0.71782592570E-01  0.30669750609E-01  0.88715040601E+00  0.88000000000E+00 0.  1.
        -11    1    4    4    0    0  0.60271466146E-01 -0.57562026896E-01 -0.21683954841E-01  0.86119054746E-01  0.51100000000E-03 0.  1.
         11    1    4    4    0    0  0.29162463811E-01 -0.27691449956E-01 -0.25561509007E-01  0.47654145254E-01  0.51100000000E-03 0. -1.
</event>
<event>
 8    1  0.1086235E+005  0.1043930E+01  0.7957747E-01            NaN
         13   -1    0    0    0    0  0.00000000000E+00  0.00000000000E+00  0.74505805969E-08  0.10566000000E+00  0.10566000000E+00 0. -1.
     999900   -1    0    0    0    0 -0.00000000000E+00 -0.00000000000E+00 -0.74505805969E-08  0.93827000000E+00  0.93827000000E+00 0. -1.
     999902    2    1    2    0    0 -0.14720099068E-02  0.50305397529E-02 -0.24136439596E-01  0.10192309948E+01  0.10189316856E+01 0.  0.
     999903    2    3    3    0    0 -0.20657931371E-02  0.59874747712E-01  0.11062788439E+00  0.12728387596E+00  0.19323647681E-01 0.  0.
         14    1    1    2    0    0  0.14720099068E-02 -0.50305397529E-02  0.24136439596E-01  0.24699005238E-01  0.00000000000E+00 0. -1.
     999901    1    3    3    0    0  0.59378323026E-03 -0.54844207959E-01 -0.13476432398E+00  0.89194711880E+00  0.88000000000E+00 0. -1.
        -11    1    4    4    0    0 -0.34861779434E-02  0.43921325914E-01  0.95817825816E-01  0.10546351583E+00  0.51100000000E-03 0.  1.
         11    1    4    4    0    0  0.14203848063E-02  0.15953421798E-01  0.14810058571E-01  0.21820360124E-01  0.51100000000E-03 0. -1.
</event>
<event>
 8    1  0.1086235E+005  0.1043930E+01  0.7957747E-01            NaN
         13   -1    0    0    0    0  0.00000000000E+00  0.00000000000E+00  0.74505805969E-08  0.10566000000E+00  0.10566000000E+00 0. -1.
     999900   -1    0    0    0    0 -0.00000000000E+00 -0.00000000000E+00 -0.74505805969E-08  0.93827000000E+00  0.93827000000E+00 0.  1.
     999902    2    1    2    0    0  0.23431513707E-01 -0.40074009710E-02  0.90716589522E-03  0.10201409679E+01  0.10198635577E+01 0.  0.
     999903    2    3    3    0    0  0.91881149265E-02 -0.12317571199E+00 -0.39031237687E-01  0.13109707877E+00  0.20157605692E-01 0.  0.
         14    1    1    2    0    0 -0.23431513707E-01  0.40074009710E-02 -0.90716589522E-03  0.23789032076E-01  0.00000000000E+00 0. -1.
     999901    1    3    3    0    0  0.14243398781E-01  0.11916831102E+00  0.39938403582E-01  0.88904388915E+00  0.88000000000E+00 0.  1.
        -11    1    4    4    0    0  0.91163014259E-02 -0.44233351935E-01 -0.22419879107E-01  0.50424284578E-01  0.51100000000E-03 0.  1.
         11    1    4    4    0    0  0.71813500601E-04 -0.78942360053E-01 -0.16611358580E-01  0.80672794193E-01  0.51100000000E-03 0. -1.
</event>
<event>
 8    1  0.1086235E+005  0.1043930E+01  0.7957747E-01            NaN
         13   -1    0    0    0    0  0.00000000000E+00  0.00000000000E+00  0.74505805969E-08  0.10566000000E+00  0.10566000000E+00 0. -1.
     999900   -1    0    0    0    0 -0.00000000000E+00 -0.00000000000E+00 -0.74505805969E-08  0.93827000000E+00  0.93827000000E+00 0.  1.
     999902    2    1    2    0    0  0.13835063614E-02 -0.98319299324E-02  0.21302638256E-01  0.10204271633E+01  0.10201564646E+01 0.  0.
     999903    2    3    3    0    0  0.10744166608E+00  0.70404198436E-01  0.87023726513E-02  0.13034574218E+00  0.20342528036E-01 0.  0.
         14    1    1    2    0    0 -0.13835063614E-02  0.98319299324E-02 -0.21302638256E-01  0.23502836695E-01  0.00000000000E+00 0.  1.
     999901    1    3    3    0    0 -0.10605815972E+00 -0.80236128369E-01  0.12600265605E-01  0.89008142113E+00  0.88000000000E+00 0.  1.
        -11    1    4    4    0    0  0.91025558110E-02  0.14243352726E-04  0.78140747179E-03  0.91503247922E-02  0.51100000000E-03 0. -1.
         11    1    4    4    0    0  0.98339110270E-01  0.70389955084E-01  0.79209651795E-02  0.12119541739E+00  0.51100000000E-03 0.  1.
</event>
<event>
 8    1  0.1086235E+005  0.1043930E+01  0.7957747E-01            NaN
         13   -1    0    0    0    0  0.00000000000E+00  0.00000000000E+00  0.74505805969E-08  0.10566000000E+00  0.10566000000E+00 0.  1.
     999900   -1    0    0    0    0 -0.00000000000E+00 -0.00000000000E+00 -0.74505805969E-08  0.93827000000E+00  0.93827000000E+00 0. -1.
     999902    2    1    2    0    0 -0.13985679724E-01  0.17636385694E-01 -0.75274380268E-02  0.10201959809E+01  0.10199198674E+01 0.  0.
     999903    2    3    3    0    0 -0.31273384679E-01 -0.10136811028E+00 -0.71569006056E-01  0.12971169851E+00  0.21201031415E-01 0.  0.
         14    1    1    2    0    0  0.13985679724E-01 -0.17636385694E-01  0.75274380268E-02  0.23734019064E-01  0.00000000000E+00 0. -1.
     999901    1    3    3    0    0  0.17287704955E-01  0.11900449597E+00  0.64041568029E-01  0.89048428242E+00  0.88000000000E+00 0.  1.
        -11    1    4    4    0    0 -0.27736259535E-01 -0.79883354201E-01 -0.65892451782E-01  0.10720413562E+00  0.51100000000E-03 0.  1.
         11    1    4    4    0    0 -0.35371251441E-02 -0.21484756077E-01 -0.56765542735E-02  0.22507562893E-01  0.51100000000E-03 0. -1.
</event>
<event>
 8    1  0.1086235E+005  0.1043930E+01  0.7957747E-01            NaN
         13   -1    0    0    0    0  0.00000000000E+00  0.00000000000E+00  0.74505805969E-08  0.10566000000E+00  0.10566000000E+00 0. -1.
     999900   -1    0    0    0    0 -0.00000000000E+00 -0.00000000000E+00 -0.74505805969E-08  0.93827000000E+00  0.93827000000E+00 0.  1.
     999902    2    1    2    0    0 -0.80735426819E-02  0.24232503733E-01 -0.43477093532E-02  0.10180205634E+01  0.10176908021E+01 0.  0.
     999903    2    3    3    0    0 -0.63835106676E-01  0.18615809563E-01  0.10863274461E+00  0.12902929108E+00  0.20640144000E-01 0.  0.
         14    1    1    2    0    0  0.80735426819E-02 -0.24232503733E-01  0.43477093532E-02  0.25909436605E-01  0.00000000000E+00 0.  1.
     999901    1    3    3    0    0  0.55761563994E-01  0.56166941699E-02 -0.11298045397E+00  0.88899127231E+00  0.88000000000E+00 0. -1.
        -11    1    4    4    0    0 -0.52327833247E-02  0.60920177780E-02  0.24109118723E-01  0.25416636846E-01  0.51100000000E-03 0.  1.
         11    1    4    4    0    0 -0.58602323352E-01  0.12523791785E-01  0.84523625890E-01  0.10361265423E+00  0.51100000000E-03 0. -1.
</event>
<event>
 8    1  0.1086235E+005  0.1043930E+01  0.7957747E-01            NaN
         13   -1    0    0    0    0  0.00000000000E+00  0.00000000000E+00  0.74505805969E-08  0.10566000000E+00  0.10566000000E+00 0. -1.
     999900   -1    0    0    0    0 -0.00000000000E+00 -0.00000000000E+00 -0.74505805969E-08  0.93827000000E+00  0.93827000000E+00 0. -1.
     999902    2    1    2    0    0  0.14239903377E-01  0.22031309858E-01 -0.69530905978E-02  0.10167914862E+01  0.10164292536E+01 0.  0.
     999903    2    3    3    0    0  0.22645223335E-01 -0.58484142180E-01 -0.10992824884E+00  0.12709644259E+00  0.11665538937E-01 0.  0.
         14    1    1    2    0    0 -0.14239903377E-01 -0.22031309858E-01  0.69530905978E-02  0.27138513797E-01  0.00000000000E+00 0. -1.
     999901    1    3    3    0    0 -0.84053199584E-02  0.80515452038E-01  0.10297515824E+00  0.88969504362E+00  0.88000000000E+00 0.  1.
        -11    1    4    4    0    0  0.27142322162E-02 -0.21078669634E-01 -0.32761392061E-01  0.39054414614E-01  0.51100000000E-03 0.  1.
         11    1    4    4    0    0  0.19930991119E-01 -0.37405472546E-01 -0.77166856779E-01  0.88042027973E-01  0.51100000000E-03 0. -1.
</event>
<event>
 8    1  0.1086235E+005  0.1043930E+01  0.7957747E-01            NaN
         13   -1    0    0    0    0  0.00000000000E+00  0.00000000000E+00  0.74505805969E-08  0.10566000000E+00  0.10566000000E+00 0.  1.
     999900   -1    0    0    0    0 -0.00000000000E+00 -0.00000000000E+00 -0.74505805969E-08  0.93827000000E+00  0.93827000000E+00 0. -1.
     999902    2    1    2    0    0 -0.89528400581E-02  0.99717925885E-02 -0.18748536440E-01  0.10208844449E+01  0.10206242953E+01 0.  0.
     999903    2    3    3    0    0  0.61111849089E-01  0.43609621926E-01 -0.10785231172E+00  0.13297676555E+00  0.20352931232E-01 0.  0.
         14    1    1    2    0    0  0.89528400581E-02 -0.99717925885E-02  0.18748536440E-01  0.23045555128E-01  0.00000000000E+00 0.  1.
     999901    1    3    3    0    0 -0.70064689147E-01 -0.33637829338E-01  0.89103775279E-01  0.88790767932E+00  0.88000000000E+00 0.  1.
        -11    1    4    4    0    0  0.45259707743E-01  0.21134184799E-01 -0.75231248626E-01  0.90305574595E-01  0.51100000000E-03 0.  1.
         11    1    4    4    0    0  0.15852141346E-01  0.22475437128E-01 -0.32621063092E-01  0.42671190956E-01  0.51100000000E-03 0. -1.
</event>
<event>
 8    1  0.1086235E+005  0.1043930E+01  0.7957747E-01            NaN
         13   -1    0    0    0    0  0.00000000000E+00  0.00000000000E+00  0.74505805969E-08  0.10566000000E+00  0.10566000000E+00 0. -1.
     999900   -1    0    0    0    0 -0.00000000000E+00 -0.00000000000E+00 -0.74505805969E-08  0.93827000000E+00  0.93827000000E+00 0. -1.
     999902    2    1    2    0    0  0.91328326579E-02  0.20932651746E-01  0.16662284930E-01  0.10156595865E+01  0.10152660633E+01 0.  0.
     999903    2    3    3    0    0  0.58558112500E-01 -0.47042147442E-01  0.10133791746E+00  0.12760925325E+00  0.19306263837E-01 0.  0.
         14    1    1    2    0    0 -0.91328326579E-02 -0.20932651746E-01 -0.16662284930E-01  0.28270413519E-01  0.00000000000E+00 0.  1.
     999901    1    3    3    0    0 -0.49425279842E-01  0.67974799187E-01 -0.84675632531E-01  0.88805033323E+00  0.88000000000E+00 0. -1.
        -11    1    4    4    0    0  0.17172864709E-01 -0.54372961411E-02  0.32410059990E-01  0.37082941917E-01  0.51100000000E-03 0.  1.
         11    1    4    4    0    0  0.41385247790E-01 -0.41604851301E-01  0.68927857472E-01  0.90526311330E-01  0.51100000000E-03 0. -1.
</event>
<event>
 8    1  0.1086235E+005  0.1043930E+01  0.7957747E-01            NaN
         13   -1    0    0    0    0  0.00000000000E+00  0.00000000000E+00  0.74505805969E-08  0.10566000000E+00  0.10566000000E+00 0.  1.
     999900   -1    0    0    0    0 -0.00000000000E+00 -0.00000000000E+00 -0.74505805969E-08  0.93827000000E+00  0.93827000000E+00 0. -1.
     999902    2    1    2    0    0 -0.18047314162E-01 -0.11258696744E-01  0.85089089610E-02  0.10210200604E+01  0.10207629982E+01 0.  0.
     999903    2    3    3    0    0 -0.97977798328E-01  0.80758402687E-01 -0.29265117420E-01  0.13181653704E+00  0.19939502739E-01 0.  0.
         14    1    1    2    0    0  0.18047314162E-01  0.11258696744E-01 -0.85089089610E-02  0.22909939602E-01  0.00000000000E+00 0. -1.
     999901    1    3    3    0    0  0.79930484166E-01 -0.92017099430E-01  0.37774026381E-01  0.88920352336E+00  0.88000000000E+00 0. -1.
        -11    1    4    4    0    0 -0.25236114308E-01  0.29993509586E-01 -0.14990983527E-01  0.41969784259E-01  0.51100000000E-03 0. -1.
         11    1    4    4    0    0 -0.72741684021E-01  0.50764893101E-01 -0.14274133893E-01  0.89846752780E-01  0.51100000000E-03 0.  1.
</event>
<event>
 8    1  0.1086235E+005  0.1043930E+01  0.7957747E-01            NaN
         13   -1    0    0    0    0  0.00000000000E+00  0.00000000000E+00  0.74505805969E-08  0.10566000000E+00  0.10566000000E+00 0.  1.
     999900   -1    0    0    0    0 -0.00000000000E+00 -0.00000000000E+00 -0.74505805969E-08  0.93827000000E+00  0.93827000000E+00 0.  1.
     999902    2    1    2    0    0 -0.18032821658E-01  0.15412039997E-01 -0.19973913857E-03  0.10202075733E+01  0.10199317325E+01 0.  0.
     999903    2    3    3    0    0 -0.26034178542E-01 -0.48943366043E-01 -0.11597504763E+00  0.13025838256E+00  0.21066632932E-01 0.  0.
         14    1    1    2    0    0  0.18032821658E-01 -0.15412039997E-01  0.19973913857E-03  0.23722426721E-01  0.00000000000E+00 0. -1.
     999901    1    3    3    0    0  0.80013568844E-02  0.64355406040E-01  0.11577530849E+00  0.88994919072E+00  0.88000000000E+00 0. -1.
        -11    1    4    4    0    0 -0.18668416061E-01 -0.45689818146E-01 -0.10875165226E+00  0.11942885845E+00  0.51100000000E-03 0. -1.
         11    1    4    4    0    0 -0.73657624808E-02 -0.32535478964E-02 -0.72233953725E-02  0.10829524114E-01  0.51100000000E-03 0.  1.
</event>
<event>
 8    1  0.1086235E+005  0.1043930E+01  0.7957747E-01            NaN
         13   -1    0    0    0    0  0.00000000000E+00  0.00000000000E+00  0.74505805969E-08  0.10566000000E+00  0.10566000000E+00 0.  1.
     999900   -1    0    0    0    0 -0.00000000000E+00 -0.00000000000E+00 -0.74505805969E-08  0.93827000000E+00  0.93827000000E+00 0. -1.
     999902    2    1    2    0    0  0.18377696393E-01  0.13677953822E-01  0.38607539410E-02  0.10206978764E+01  0.10204334488E+01 0.  0.
     999903    2    3    3    0    0 -0.10938500157E+00  0.39574855765E-01 -0.52430447179E-01  0.12931543557E+00  0.21030508946E-01 0.  0.
         14    1    1    2    0    0 -0.18377696393E-01 -0.13677953822E-01 -0.38607539410E-02  0.23232123589E-01  0.00000000000E+00 0. -1.
     999901    1    3    3    0    0  0.12776269797E+00 -0.25896901943E-01  0.56291201120E-01  0.89138244084E+00  0.88000000000E+00 0.  1.
        -11    1    4    4    0    0 -0.55883564965E-01  0.27026818650E-01 -0.18697731568E-01  0.64832769849E-01  0.51100000000E-03 0. -1.
         11    1    4    4    0    0 -0.53501436607E-01  0.12548037115E-01 -0.33732715611E-01  0.64482665717E-01  0.51100000000E-03 0.  1.
</event>
<event>
 8    1  0.1086235E+005  0.1043930E+01  0.7957747E-01            NaN
         13   -1    0    0    0    0  0.00000000000E+00  0.00000000000E+00  0.74505805969E-08  0.10566000000E+00  0.10566000000E+00 0.  1.
     999900   -1    0    0    0    0 -0.00000000000E+00 -0.00000000000E+00 -0.74505805969E-08  0.93827000000E+00  0.93827000000E+00 0.  1.
     999902    2    1    2    0    0  0.12806924848E-01 -0.91702606710E-02 -0.13428543149E-01  0.10232312856E+01  0.10230219094E+01 0.  0.
     999903    2    3    3    0    0  0.49371332832E-01 -0.11325395637E+00 -0.51734625949E-01  0.13551639469E+00  0.20596955328E-01 0.  0.
         14    1    1    2    0    0 -0.12806924848E-01  0.91702606710E-02  0.13428543149E-01  0.20698714355E-01  0.00000000000E+00 0.  1.
     999901    1    3    3    0    0 -0.36564407984E-01  0.10408369570E+00  0.38306082799E-01  0.88771489095E+00  0.88000000000E+00 0.  1.
        -11    1    4    4    0    0  0.17614934496E-01 -0.64869989611E-01 -0.31152034061E-01  0.74088540386E-01  0.51100000000E-03 0. -1.
         11    1    4    4    0    0  0.31756398336E-01 -0.48383966761E-01 -0.20582591888E-01  0.61427854305E-01  0.51100000000E-03 0.  1.
</event>
<event>
 8    1  0.1086235E+005  0.1043930E+01  0.7957747E-01            NaN
         13   -1    0    0    0    0  0.00000000000E+00  0.00000000000E+00  0.74505805969E-08  0.10566000000E+00  0.10566000000E+00 0.  1.
     999900   -1    0    0    0    0 -0.00000000000E+00 -0.00000000000E+00 -0.74505805969E-08  0.93827000000E+00  0.93827000000E+00 0.  1.
     999902    2    1    2    0    0 -0.76586194715E-02  0.18807169889E-01 -0.11371884443E-01  0.10206558975E+01  0.10203905023E+01 0.  0.
     999903    2    3    3    0    0 -0.10253110744E-01  0.12786315831E-02 -0.13039183672E+00  0.13246688041E+00  0.20944740205E-01 0.  0.
         14    1    1    2    0    0  0.76586194715E-02 -0.18807169889E-01  0.11371884443E-01  0.23274102501E-01  0.00000000000E+00 0.  1.
     999901    1    3    3    0    0  0.25944912724E-02  0.17528538306E-01  0.11901995228E+00  0.88818901709E+00  0.88000000000E+00 0. -1.
        -11    1    4    4    0    0 -0.15650767442E-01  0.25795386113E-02 -0.11512556450E+00  0.11621427306E+00  0.51100000000E-03 0.  1.
         11    1    4    4    0    0  0.53976566984E-02 -0.13009070282E-02 -0.15266272223E-01  0.16252607345E-01  0.51100000000E-03 0. -1.
</event>
<event>
 8    1  0.1086235E+005  0.1043930E+01  0.7957747E-01            NaN
         13   -1    0    0    0    0  0.00000000000E+00  0.00000000000E+00  0.74505805969E-08  0.10566000000E+00  0.10566000000E+00 0.  1.
     999900   -1    0    0    0    0 -0.00000000000E+00 -0.00000000000E+00 -0.74505805969E-08  0.93827000000E+00  0.93827000000E+00 0.  1.
     999902    2    1    2    0    0  0.26107908667E-02 -0.23104063797E-01  0.62814113761E-03  0.10206704094E+01  0.10204053489E+01 0.  0.
     999903    2    3    3    0    0 -0.11604075228E+00 -0.48542924299E-01 -0.33911560491E-01  0.13167191937E+00  0.19121420616E-01 0.  0.
         14    1    1    2    0    0 -0.26107908667E-02  0.23104063797E-01 -0.62814113761E-03  0.23259590585E-01  0.00000000000E+00 0. -1.
     999901    1    3    3    0    0  0.11865154315E+00  0.25438860502E-01  0.34539701629E-01  0.88899849005E+00  0.88000000000E+00 0.  1.
        -11    1    4    4    0    0 -0.24861694667E-01 -0.71739699475E-02 -0.14550684785E-01  0.29690962518E-01  0.51100000000E-03 0.  1.
         11    1    4    4    0    0 -0.91179057613E-01 -0.41368954351E-01 -0.19360875706E-01  0.10198095685E+00  0.51100000000E-03 0. -1.
</event>
<event>
 8    1  0.1086235E+005  0.1043930E+01  0.7957747E-01            NaN
         13   -1    0    0    0    0  0.00000000000E+00  0.00000000000E+00  0.74505805969E-08  0.10566000000E+00  0.10566000000E+00 0. -1.
     999900   -1    0    0    0    0 -0.00000000000E+00 -0.00000000000E+00 -0.74505805969E-08  0.93827000000E+00  0.93827000000E+00 0. -1.
     999902    2    1    2    0    0 -0.14935722768E-01  0.19771406882E-02 -0.18603219006E-01  0.10199912311E+01  0.10197102759E+01 0.  0.
     999903    2    3    3    0    0 -0.86581216493E-01  0.96048679831E-01 -0.17179090345E-01  0.13208101074E+00  0.20703050645E-01 0.  0.
         14    1    1    2    0    0  0.14935722768E-01 -0.19771406882E-02  0.18603219006E-01  0.23938768918E-01  0.00000000000E+00 0. -1.
     999901    1    3    3    0    0  0.71645493725E-01 -0.94071539143E-01 -0.14241286615E-02  0.88791022034E+00  0.88000000000E+00 0. -1.
        -11    1    4    4    0    0 -0.25553874608E-01  0.40869360891E-01 -0.91077321664E-03  0.48211988094E-01  0.51100000000E-03 0.  1.
         11    1    4    4    0    0 -0.61027341885E-01  0.55179318940E-01 -0.16268317128E-01  0.83869022645E-01  0.51100000000E-03 0. -1.
</event>
<event>
 8    1  0.1086235E+005  0.1043930E+01  0.7957747E-01            NaN
         13   -1    0    0    0    0  0.00000000000E+00  0.00000000000E+00  0.74505805969E-08  0.10566000000E+00  0.10566000000E+00 0.  1.
     999900   -1    0    0    0    0 -0.00000000000E+00 -0.00000000000E+00 -0.74505805969E-08  0.93827000000E+00  0.93827000000E+00 0. -1.
     999902    2    1    2    0    0  0.58694080981E-02  0.83407473163E-02 -0.19572432861E-01  0.10218596999E+01  0.10216213331E+01 0.  0.
     999903    2    3    3    0    0  0.12267474022E+00  0.39827347086E-01  0.22736600672E-01  0.13257631096E+00  0.20596498591E-01 0.  0.
         14    1    1    2    0    0 -0.58694080981E-02 -0.83407473163E-02  0.19572432861E-01  0.22070300073E-01  0.00000000000E+00 0.  1.
     999901    1    3    3    0    0 -0.11680533212E+00 -0.31486599769E-01 -0.42309033532E-01  0.88928338897E+00  0.88000000000E+00 0. -1.
        -11    1    4    4    0    0  0.41063366760E-01  0.81285830370E-02 -0.95684873932E-03  0.41874223962E-01  0.51100000000E-03 0.  1.
         11    1    4    4    0    0  0.81611373457E-01  0.31698764049E-01  0.23693449411E-01  0.90702086998E-01  0.51100000000E-03 0. -1.
</event>
<event>
 8    1  0.1086235E+005  0.1043930E+01  0.7957747E-01            NaN
         13   -1    0    0    0    0  0.00000000000E+00  0.00000000000E+00  0.74505805969E-08  0.10566000000E+00  0.10566000000E+00 0.  1.
     999900   -1    0    0    0    0 -0.00000000000E+00 -0.00000000000E+00 -0.74505805969E-08  0.93827000000E+00  0.93827000000E+00 0.  1.
     999902    2    1    2    0    0  0.10612467511E-01 -0.15109866895E-01 -0.13379363356E-01  0.10211278091E+01  0.10208731864E+01 0.  0.
     999903    2    3    3    0    0 -0.93486549528E-02  0.65550554352E-01  0.10816249245E+00  0.12889635224E+00  0.23040666710E-01 0.  0.
         14    1    1    2    0    0 -0.10612467511E-01  0.15109866895E-01  0.13379363356E-01  0.22802190861E-01  0.00000000000E+00 0. -1.
     999901    1    3    3    0    0  0.19961122463E-01 -0.80660421247E-01 -0.12154185581E+00  0.89223145690E+00  0.88000000000E+00 0.  1.
        -11    1    4    4    0    0 -0.39986072282E-02  0.59399982847E-01  0.10373461064E+00  0.11960550735E+00  0.51100000000E-03 0. -1.
         11    1    4    4    0    0 -0.53500477245E-02  0.61505715044E-02  0.44278818080E-02  0.92908448911E-02  0.51100000000E-03 0.  1.
</event>
<event>
 8    1  0.1086235E+005  0.1043930E+01  0.7957747E-01            NaN
         13   -1    0    0    0    0  0.00000000000E+00  0.00000000000E+00  0.74505805969E-08  0.10566000000E+00  0.10566000000E+00 0.  1.
     999900   -1    0    0    0    0 -0.00000000000E+00 -0.00000000000E+00 -0.74505805969E-08  0.93827000000E+00  0.93827000000E+00 0.  1.
     999902    2    1    2    0    0  0.51451644091E-02 -0.23025636965E-01 -0.30455939891E-02  0.10201407521E+01  0.10198633368E+01 0.  0.
     999903    2    3    3    0    0 -0.10016862801E+00  0.75374990095E-01 -0.17002828963E-01  0.12830641617E+00  0.21407873956E-01 0.  0.
         14    1    1    2    0    0 -0.51451644091E-02  0.23025636965E-01  0.30455939891E-02  0.23789247933E-01  0.00000000000E+00 0.  1.
     999901    1    3    3    0    0  0.10531379242E+00 -0.98400627060E-01  0.13957234974E-01  0.89183433590E+00  0.88000000000E+00 0.  1.
        -11    1    4    4    0    0 -0.53014952282E-01  0.30907726661E-01 -0.28507131163E-03  0.61369496654E-01  0.51100000000E-03 0. -1.
         11    1    4    4    0    0 -0.47153675731E-01  0.44467263434E-01 -0.16717757651E-01  0.66936919515E-01  0.51100000000E-03 0.  1.
</event>
<event>
 8    1  0.1086235E+005  0.1043930E+01  0.7957747E-01            NaN
         13   -1    0    0    0    0  0.00000000000E+00  0.00000000000E+00  0.74505805969E-08  0.10566000000E+00  0.10566000000E+00 0. -1.
     999900   -1    0    0    0    0 -0.00000000000E+00 -0.00000000000E+00 -0.74505805969E-08  0.93827000000E+00  0.93827000000E+00 0. -1.
     999902    2    1    2    0    0  0.13632465281E-01 -0.10789417913E-01  0.15648733258E-01  0.10205390081E+01  0.10202709094E+01 0.  0.
     999903    2    3    3    0    0  0.49251405416E-01 -0.71308445501E-01  0.99702649161E-01  0.13374911058E+00  0.20919153828E-01 0.  0.
         14    1    1    2    0    0 -0.13632465281E-01  0.10789417913E-01 -0.15648733258E-01  0.23390991879E-01  0.00000000000E+00 0.  1.
     999901    1    3    3    0    0 -0.35618940135E-01  0.60519027588E-01 -0.84053915903E-01  0.88678989754E+00  0.88000000000E+00 0. -1.
        -11    1    4    4    0    0  0.25306053764E-01 -0.21215049119E-01  0.29850117654E-01  0.44517022712E-01  0.51100000000E-03 0. -1.
         11    1    4    4    0    0  0.23945351652E-01 -0.50093396382E-01  0.69852531507E-01  0.89232087871E-01  0.51100000000E-03 0.  1.
</event>
<event>
 8    1  0.1086235E+005  0.1043930E+01  0.7957747E-01            NaN
         13   -1    0    0    0    0  0.00000000000E+00  0.00000000000E+00  0.74505805969E-08  0.10566000000E+00  0.10566000000E+00 0. -1.
     999900   -1    0    0    0    0 -0.00000000000E+00 -0.00000000000E+00 -0.74505805969E-08  0.93827000000E+00  0.93827000000E+00 0. -1.
     999902    2    1    2    0    0 -0.18206005611E-01  0.11693380211E-01  0.94294118844E-02  0.10203268733E+01  0.10200538323E+01 0.  0.
     999903    2    3    3    0    0 -0.39080811067E-02 -0.87777289341E-01  0.94477970578E-01  0.13053358154E+00  0.19819267463E-01 0.  0.
         14    1    1    2    0    0  0.18206005611E-01 -0.11693380211E-01 -0.94294118844E-02  0.23603126690E-01  0.00000000000E+00 0. -1.
     999901    1    3    3    0    0 -0.14297924504E-01  0.99470669551E-01 -0.85048558693E-01  0.88979329177E+00  0.88000000000E+00 0. -1.
        -11    1    4    4    0    0  0.65426507416E-02 -0.60260027699E-01  0.64743802189E-01  0.88691026942E-01  0.51100000000E-03 0.  1.
         11    1    4    4    0    0 -0.10450731848E-01 -0.27517261641E-01  0.29734168388E-01  0.41842554596E-01  0.51100000000E-03 0. -1.
</event>
<event>
 8    1  0.1086235E+005  0.1043930E+01  0.7957747E-01            NaN
         13   -1    0    0    0    0  0.00000000000E+00  0.00000000000E+00  0.74505805969E-08  0.10566000000E+00  0.10566000000E+00 0.  1.
     999900   -1    0    0    0    0 -0.00000000000E+00 -0.00000000000E+00 -0.74505805969E-08  0.93827000000E+00  0.93827000000E+00 0. -1.
     999902    2    1    2    0    0 -0.67573965251E-02  0.73659956142E-02 -0.20825815197E-01  0.10208294615E+01  0.10205680549E+01 0.  0.
     999903    2    3    3    0    0 -0.87469302584E-01  0.64585745811E-01  0.70005734951E-01  0.13063909868E+00  0.18535741759E-01 0.  0.
         14    1    1    2    0    0  0.67573965251E-02 -0.73659956142E-02  0.20825815197E-01  0.23100538475E-01  0.00000000000E+00 0.  1.
     999901    1    3    3    0    0  0.80711906059E-01 -0.57219750197E-01 -0.90831550149E-01  0.89019036284E+00  0.88000000000E+00 0. -1.
        -11    1    4    4    0    0 -0.14735747808E-01  0.18790367888E-01  0.20327779655E-01  0.31363991065E-01  0.51100000000E-03 0.  1.
         11    1    4    4    0    0 -0.72733554775E-01  0.45795377924E-01  0.49677955296E-01  0.99275107619E-01  0.51100000000E-03 0. -1.
</event>
<event>
 8    1  0.1086235E+005  0.1043930E+01  0.7957747E-01            NaN
         13   -1    0    0    0    0  0.00000000000E+00  0.00000000000E+00  0.74505805969E-08  0.10566000000E+00  0.10566000000E+00 0. -1.
     999900   -1    0    0    0    0 -0.00000000000E+00 -0.00000000000E+00 -0.74505805969E-08  0.93827000000E+00  0.93827000000E+00 0. -1.
     999902    2    1    2    0    0  0.24578413715E-01 -0.70093219539E-02 -0.60884067981E-02  0.10176564827E+01  0.10173172657E+01 0.  0.
     999903    2    3    3    0    0  0.33809184940E-01 -0.90761619548E-01 -0.84598324480E-01  0.13015241978E+00  0.20051017448E-01 0.  0.
         14    1    1    2    0    0 -0.24578413715E-01  0.70093219539E-02  0.60884067981E-02  0.26273517319E-01  0.00000000000E+00 0. -1.
     999901    1    3    3    0    0 -0.92307712251E-02  0.83752297594E-01  0.78509917682E-01  0.88750406290E+00  0.88000000000E+00 0.  1.
        -11    1    4    4    0    0  0.68328923002E-02 -0.41427285742E-01 -0.43830649667E-01  0.60698396950E-01  0.51100000000E-03 0.  1.
         11    1    4    4    0    0  0.26976292640E-01 -0.49334333806E-01 -0.40767674814E-01  0.69454022831E-01  0.51100000000E-03 0. -1.
</event>
<event>
 8    1  0.1190966E+005  0.1043930E+01  0.7957747E-01            NaN
         13   -1    0    0    0    0  0.00000000000E+00  0.00000000000E+00  0.74505805969E-08  0.10566000000E+00  0.10566000000E+00 0.  1.
     999900   -1    0    0    0    0 -0.00000000000E+00 -0.00000000000E+00 -0.74505805969E-08  0.93827000000E+00  0.93827000000E+00 0.  1.
     999902    2    1    2    0    0  0.83656331401E-02 -0.19049673014E-01  0.11080621611E-01  0.10203576850E+01  0.10200853647E+01 0.  0.
     999903    2    3    3    0    0  0.68049915456E-01 -0.10194639918E+00  0.49026369350E-01  0.13363678158E+00  0.20768851701E-01 0.  0.
         14    1    1    2    0    0 -0.83656331401E-02  0.19049673014E-01 -0.11080621611E-01  0.23572315013E-01  0.00000000000E+00 0.  1.
     999901    1    3    3    0    0 -0.59684282315E-01  0.82896726165E-01 -0.37945747739E-01  0.88672090341E+00  0.88000000000E+00 0.  1.
        -11    1    4    4    0    0  0.22624789647E-01 -0.49377850311E-01  0.27621567774E-01  0.60936568128E-01  0.51100000000E-03 0. -1.
         11    1    4    4    0    0  0.45425125808E-01 -0.52568548868E-01  0.21404801576E-01  0.72700213454E-01  0.51100000000E-03 0.  1.
</event>
<event>
 8    1  0.1086235E+005  0.1043930E+01  0.7957747E-01            NaN
         13   -1    0    0    0    0  0.00000000000E+00  0.00000000000E+00  0.74505805969E-08  0.10566000000E+00  0.10566000000E+00 0. -1.
     999900   -1    0    0    0    0 -0.00000000000E+00 -0.00000000000E+00 -0.74505805969E-08  0.93827000000E+00  0.93827000000E+00 0. -1.
     999902    2    1    2    0    0 -0.21085261379E-01  0.54052841909E-02  0.81272566658E-02  0.10206951631E+01  0.10204306730E+01 0.  0.
     999903    2    3    3    0    0  0.96382661986E-01 -0.35288629983E-01  0.76107925267E-01  0.12936128684E+00  0.20174769082E-01 0.  0.
         14    1    1    2    0    0  0.21085261379E-01 -0.54052841909E-02 -0.81272566658E-02  0.23234836895E-01  0.00000000000E+00 0. -1.
     999901    1    3    3    0    0 -0.11746792337E+00  0.40693914174E-01 -0.67980668601E-01  0.89133387626E+00  0.88000000000E+00 0. -1.
        -11    1    4    4    0    0  0.26639969767E-01 -0.17214789893E-01  0.15983261103E-01  0.35521299761E-01  0.51100000000E-03 0. -1.
         11    1    4    4    0    0  0.69742692219E-01 -0.18073840090E-01  0.60124664164E-01  0.93839987081E-01  0.51100000000E-03 0.  1.
</event>
<event>
 8    1  0.1086235E+005  0.1043930E+01  0.7957747E-01            NaN
         13   -1    0    0    0    0  0.00000000000E+00  0.00000000000E+00  0.74505805969E-08  0.10566000000E+00  0.10566000000E+00 0.  1.
     999900   -1    0    0    0    0 -0.00000000000E+00 -0.00000000000E+00 -0.74505805969E-08  0.93827000000E+00  0.93827000000E+00 0. -1.
     999902    2    1    2    0    0 -0.18491276472E-02 -0.11028081959E-01  0.20054979768E-01  0.10209682910E+01  0.10207100525E+01 0.  0.
     999903    2    3    3    0    0  0.88633566647E-01 -0.57262579980E-01  0.78653935869E-01  0.13318533084E+00  0.20420051915E-01 0.  0.
         14    1    1    2    0    0  0.18491276472E-02  0.11028081959E-01 -0.20054979768E-01  0.22961708957E-01  0.00000000000E+00 0. -1.
     999901    1    3    3    0    0 -0.90482694294E-01  0.46234498021E-01 -0.58598956101E-01  0.88778296020E+00  0.88000000000E+00 0. -1.
        -11    1    4    4    0    0  0.56767897392E-01 -0.25372968700E-01  0.41436569495E-01  0.74723705258E-01  0.51100000000E-03 0. -1.
         11    1    4    4    0    0  0.31865669255E-01 -0.31889611280E-01  0.37217366374E-01  0.58461625580E-01  0.51100000000E-03 0.  1.
</event>
<event>
 8    1  0.1086235E+005  0.1043930E+01  0.7957747E-01            NaN
         13   -1    0    0    0    0  0.00000000000E+00  0.00000000000E+00  0.74505805969E-08  0.10566000000E+00  0.10566000000E+00 0.  1.
     999900   -1    0    0    0    0 -0.00000000000E+00 -0.00000000000E+00 -0.74505805969E-08  0.93827000000E+00  0.93827000000E+00 0. -1.
     999902    2    1    2    0    0  0.55094489380E-02 -0.17170951437E-01  0.15245719257E-01  0.10203158611E+01  0.10200425623E+01 0.  0.
     999903    2    3    3    0    0  0.11170660569E+00 -0.15129354673E-01 -0.60491484287E-01  0.13069901760E+00  0.26753511987E-01 0.  0.
         14    1    1    2    0    0 -0.55094489380E-02  0.17170951437E-01 -0.15245719257E-01  0.23614138911E-01  0.00000000000E+00 0. -1.
     999901    1    3    3    0    0 -0.10619715675E+00 -0.20415967638E-02  0.75737203544E-01  0.88961684349E+00  0.88000000000E+00 0.  1.
        -11    1    4    4    0    0  0.10539286425E+00 -0.84495396653E-02 -0.59789933449E-01  0.12146665311E+00  0.51100000000E-03 0.  1.
         11    1    4    4    0    0  0.63137414348E-02 -0.66798150081E-02 -0.70155083859E-03  0.92323644873E-02  0.51100000000E-03 0. -1.
</event>
<event>
 8    1  0.1086235E+005  0.1043930E+01  0.7957747E-01            NaN
         13   -1    0    0    0    0  0.00000000000E+00  0.00000000000E+00  0.74505805969E-08  0.10566000000E+00  0.10566000000E+00 0. -1.
     999900   -1    0    0    0    0 -0.00000000000E+00 -0.00000000000E+00 -0.74505805969E-08  0.93827000000E+00  0.93827000000E+00 0.  1.
     999902    2    1    2    0    0  0.57711054089E-02  0.32199400023E-02 -0.22214539699E-01  0.10207532995E+01  0.10204901465E+01 0.  0.
     999903    2    3    3    0    0 -0.54028047132E-02  0.10048302839E+00  0.79135490309E-01  0.12954244163E+00  0.19818906752E-01 0.  0.
         14    1    1    2    0    0 -0.57711054089E-02 -0.32199400023E-02  0.22214539699E-01  0.23176700483E-01  0.00000000000E+00 0.  1.
     999901    1    3    3    0    0  0.11173910122E-01 -0.97263088385E-01 -0.10135003001E+00  0.89121085789E+00  0.88000000000E+00 0.  1.
        -11    1    4    4    0    0  0.10073353850E-02  0.23509245627E-01  0.29453121314E-01  0.37702079925E-01  0.51100000000E-03 0.  1.
         11    1    4    4    0    0 -0.64101400982E-02  0.76973782760E-01  0.49682368995E-01  0.91840361707E-01  0.51100000000E-03 0. -1.
</event>
<event>
 8    1  0.1171867E+005  0.1043930E+01  0.7957747E-01            NaN
         13   -1    0    0    0    0  0.00000000000E+00  0.00000000000E+00  0.74505805969E-08  0.10566000000E+00  0.10566000000E+00 0. -1.
     999900   -1    0    0    0    0 -0.00000000000E+00 -0.00000000000E+00 -0.74505805969E-08  0.93827000000E+00  0.93827000000E+00 0. -1.
     999902    2    1    2    0    0  0.16920770077E-01  0.13796902319E-01  0.61454572609E-02  0.10212488709E+01  0.10209969748E+01 0.  0.
     999903    2    3    3    0    0 -0.56344982433E-01  0.41934257480E-01 -0.10806260475E+00  0.13040485384E+00  0.19866060601E-01 0.  0.
         14    1    1    2    0    0 -0.16920770077E-01 -0.13796902319E-01 -0.61454572609E-02  0.22681129128E-01  0.00000000000E+00 0. -1.
     999901    1    3    3    0    0  0.73265752509E-01 -0.28137355160E-01  0.11420806202E+00  0.89084401703E+00  0.88000000000E+00 0.  1.
        -11    1    4    4    0    0 -0.28355979081E-01  0.32350764351E-01 -0.57376824617E-01  0.71714675122E-01  0.51100000000E-03 0.  1.
         11    1    4    4    0    0 -0.27989003352E-01  0.95834931290E-02 -0.50685780137E-01  0.58690178721E-01  0.51100000000E-03 0. -1.
</event>
<event>
 8    1  0.1086235E+005  0.1043930E+01  0.7957747E-01            NaN
         13   -1    0    0    0    0  0.00000000000E+00  0.00000000000E+00  0.74505805969E-08  0.10566000000E+00  0.10566000000E+00 0.  1.
     999900   -1    0    0    0    0 -0.00000000000E+00 -0.00000000000E+00 -0.74505805969E-08  0.93827000000E+00  0.93827000000E+00 0. -1.
     999902    2    1    2    0    0 -0.40647175222E-03  0.22600705730E-01  0.33278095984E-03  0.10213231899E+01  0.10210729604E+01 0.  0.
     999903    2    3    3    0    0  0.49163676142E-01 -0.10540734348E+00  0.54183122822E-01  0.12905466557E+00  0.13839103900E-01 0.  0.
         14    1    1    2    0    0  0.40647175222E-03 -0.22600705730E-01 -0.33278095984E-03  0.22606810079E-01  0.00000000000E+00 0. -1.
     999901    1    3    3    0    0 -0.49570147894E-01  0.12800804921E+00 -0.53850341862E-01  0.89226852435E+00  0.88000000000E+00 0. -1.
        -11    1    4    4    0    0  0.35160856173E-01 -0.59832642181E-01  0.33934784816E-01  0.77253230474E-01  0.51100000000E-03 0.  1.
         11    1    4    4    0    0  0.14002819969E-01 -0.45574701296E-01  0.20248338005E-01  0.51801435098E-01  0.51100000000E-03 0. -1.
</event>
<event>
 8    1  0.1086235E+005  0.1043930E+01  0.7957747E-01            NaN
         13   -1    0    0    0    0  0.00000000000E+00  0.00000000000E+00  0.74505805969E-08  0.10566000000E+00  0.10566000000E+00 0. -1.
     999900   -1    0    0    0    0 -0.00000000000E+00 -0.00000000000E+00 -0.74505805969E-08  0.93827000000E+00  0.93827000000E+00 0. -1.
     999902    2    1    2    0    0 -0.91915064333E-02 -0.92784085944E-02 -0.28781329960E-02  0.10305562830E+01  0.10304695028E+01 0.  0.
     999903    2    3    3    0    0  0.79199887672E-01  0.99731708410E-02 -0.11256632092E+00  0.13914439144E+00  0.17829714497E-01 0.  0.
         14    1    1    2    0    0  0.91915064333E-02  0.92784085944E-02  0.28781329960E-02  0.13373716989E-01  0.00000000000E+00 0. -1.
     999901    1    3    3    0    0 -0.88391394106E-01 -0.19251579435E-01  0.10968818793E+00  0.89141189157E+00  0.88000000000E+00 0.  1.
        -11    1    4    4    0    0  0.13257928125E-01 -0.38222076241E-02 -0.26128615047E-01  0.29552454628E-01  0.51100000000E-03 0.  1.
         11    1    4    4    0    0  0.65941959548E-01  0.13795378465E-01 -0.86437705877E-01  0.10959193681E+00  0.51100000000E-03 0. -1.
</event>
<event>
 7    1  0.1086235E+005  0.1043930E+01  0.7957747E-01            NaN
         13   -1    0    0    0    0  0.00000000000E+00  0.00000000000E+00  0.74505805969E-08  0.10566000000E+00  0.10566000000E+00 0. -1.
     999900   -1    0    0    0    0 -0.00000000000E+00 -0.00000000000E+00 -0.74505805969E-08  0.93827000000E+00  0.93827000000E+00 0.  1.
     999902    2    1    2    0    0 -0.16026324188E-01  0.11930455989E-01 -0.13293035041E-01  0.10199324245E+01  0.10196500709E+01 0.  0.
         14    1    1    2    0    0  0.16026324188E-01 -0.11930455989E-01  0.13293035041E-01  0.23997575455E-01  0.00000000000E+00 0.  1.
     999901    1    3    3    0    0 -0.21096785094E-01  0.11138880705E+00 -0.84408575984E-01  0.89127849092E+00  0.88000000000E+00 0.  1.
        -11    1    3    3    0    0 -0.15913684058E-01 -0.24716490389E-01  0.22894423108E-01  0.37263466934E-01  0.51100000000E-03 0. -1.
         11    1    3    3    0    0  0.20984144965E-01 -0.74741860668E-01  0.48221117834E-01  0.91390466692E-01  0.51100000000E-03 0.  1.
</event>
<event>
 8    1  0.1086235E+005  0.1043930E+01  0.7957747E-01            NaN
         13   -1    0    0    0    0  0.00000000000E+00  0.00000000000E+00  0.74505805969E-08  0.10566000000E+00  0.10566000000E+00 0. -1.
     999900   -1    0    0    0    0 -0.00000000000E+00 -0.00000000000E+00 -0.74505805969E-08  0.93827000000E+00  0.93827000000E+00 0.  1.
     999902    2    1    2    0    0  0.16773809586E-01 -0.10445297219E-01 -0.85669161340E-02  0.10223926609E+01  0.10221657870E+01 0.  0.
     999903    2    3    3    0    0  0.42883749497E-01  0.10415430805E+00 -0.66274923819E-01  0.13270450622E+00  0.23043102822E-01 0.  0.
         14    1    1    2    0    0 -0.16773809586E-01  0.10445297219E-01  0.85669161340E-02  0.21537339066E-01  0.00000000000E+00 0. -1.
     999901    1    3    3    0    0 -0.26109939911E-01 -0.11459960527E+00  0.57708007685E-01  0.88968815472E+00  0.88000000000E+00 0. -1.
        -11    1    4    4    0    0  0.44787934719E-01  0.98198319574E-01 -0.58673168846E-01  0.12284816208E+00  0.51100000000E-03 0. -1.
         11    1    4    4    0    0 -0.19041852223E-02  0.59559884733E-02 -0.76017549733E-02  0.98563441361E-02  0.51100000000E-03 0.  1.
</event>
<event>
 8    1  0.1086235E+005  0.1043930E+01  0.7957747E-01            NaN
         13   -1    0    0    0    0  0.00000000000E+00  0.00000000000E+00  0.74505805969E-08  0.10566000000E+00  0.10566000000E+00 0.  1.
     999900   -1    0    0    0    0 -0.00000000000E+00 -0.00000000000E+00 -0.74505805969E-08  0.93827000000E+00  0.93827000000E+00 0. -1.
     999902    2    1    2    0    0 -0.10680963094E-02  0.14704632648E-01 -0.18103422948E-01  0.10205826024E+01  0.10203155137E+01 0.  0.
     999903    2    3    3    0    0 -0.22745010514E-01 -0.49365738304E-01 -0.11881482684E+00  0.13225963868E+00  0.20526503005E-01 0.  0.
         14    1    1    2    0    0  0.10680963094E-02 -0.14704632648E-01  0.18103422948E-01  0.23347397574E-01  0.00000000000E+00 0.  1.
     999901    1    3    3    0    0  0.21676914204E-01  0.64070370952E-01  0.10071140389E+00  0.88832296375E+00  0.88000000000E+00 0.  1.
        -11    1    4    4    0    0 -0.15223996278E-01 -0.31142305376E-01 -0.51241322926E-01  0.61867176621E-01  0.51100000000E-03 0. -1.
         11    1    4    4    0    0 -0.75210142361E-02 -0.18223432928E-01 -0.67573503913E-01  0.70392462060E-01  0.51100000000E-03 0.  1.
</event>
<event>
 8    1  0.1086235E+005  0.1043930E+01  0.7957747E-01            NaN
         13   -1    0    0    0    0  0.00000000000E+00  0.00000000000E+00  0.74505805969E-08  0.10566000000E+00  0.10566000000E+00 0.  1.
     999900   -1    0    0    0    0 -0.00000000000E+00 -0.00000000000E+00 -0.74505805969E-08  0.93827000000E+00  0.93827000000E+00 0.  1.
     999902    2    1    2    0    0  0.12632331260E-01  0.81338735097E-02  0.23035157478E-01  0.10164281060E+01  0.10160559732E+01 0.  0.
     999903    2    3    3    0    0  0.79048669012E-02 -0.63812671804E-01 -0.10448098524E+00  0.12431879606E+00  0.20108276251E-01 0.  0.
         14    1    1    2    0    0 -0.12632331260E-01 -0.81338735097E-02 -0.23035157478E-01  0.27501893959E-01  0.00000000000E+00 0. -1.
     999901    1    3    3    0    0  0.47274643585E-02  0.71946545314E-01  0.12751614272E+00  0.89210930998E+00  0.88000000000E+00 0. -1.
        -11    1    4    4    0    0  0.62376376222E-02 -0.62473410423E-01 -0.90385613497E-01  0.11005296625E+00  0.51100000000E-03 0.  1.
         11    1    4    4    0    0  0.16672292790E-02 -0.13392613807E-02 -0.14095371742E-01  0.14265829806E-01  0.51100000000E-03 0. -1.
</event>
<event>
 8    1  0.1086235E+005  0.1043930E+01  0.7957747E-01            NaN
         13   -1    0    0    0    0  0.00000000000E+00  0.00000000000E+00  0.74505805969E-08  0.10566000000E+00  0.10566000000E+00 0.  1.
     999900   -1    0    0    0    0 -0.00000000000E+00 -0.00000000000E+00 -0.74505805969E-08  0.93827000000E+00  0.93827000000E+00 0.  1.
     999902    2    1    2    0    0  0.13652024844E-01  0.19638032223E-01  0.11661293197E-02  0.10199844378E+01  0.10197033213E+01 0.  0.
     999903    2    3    3    0    0  0.95778099313E-01  0.81543526913E-01  0.38833337763E-01  0.13319483424E+00  0.20249559402E-01 0.  0.
         14    1    1    2    0    0 -0.13652024844E-01 -0.19638032223E-01 -0.11661293197E-02  0.23945562209E-01  0.00000000000E+00 0. -1.
     999901    1    3    3    0    0 -0.82126074469E-01 -0.61905494691E-01 -0.37667208443E-01  0.88678960355E+00  0.88000000000E+00 0.  1.
        -11    1    4    4    0    0  0.62138306348E-01  0.56264580667E-01  0.16084072723E-01  0.85357077444E-01  0.51100000000E-03 0. -1.
         11    1    4    4    0    0  0.33639792965E-01  0.25278946246E-01  0.22749265040E-01  0.47837756792E-01  0.51100000000E-03 0.  1.
</event>
<event>
 8    1  0.1086235E+005  0.1043930E+01  0.7957747E-01            NaN
         13   -1    0    0    0    0  0.00000000000E+00  0.00000000000E+00  0.74505805969E-08  0.10566000000E+00  0.10566000000E+00 0. -1.
     999900   -1    0    0    0    0 -0.00000000000E+00 -0.00000000000E+00 -0.74505805969E-08  0.93827000000E+00  0.93827000000E+00 0. -1.
     999902    2    1    2    0    0 -0.60449151868E-02 -0.51927536097E-02 -0.21618992097E-01  0.10208890254E+01  0.10206289805E+01 0.  0.
     999903    2    3    3    0    0  0.54971541594E-01  0.59790496891E-02  0.11386471947E+00  0.12836246937E+00  0.21310321026E-01 0.  0.
         14    1    1    2    0    0  0.60449151868E-02  0.51927536097E-02  0.21618992097E-01  0.23040974566E-01  0.00000000000E+00 0. -1.
     999901    1    3    3    0    0 -0.61016456781E-01 -0.11171803299E-01 -0.13548371156E+00  0.89252655607E+00  0.88000000000E+00 0. -1.
        -11    1    4    4    0    0  0.33254244227E-01 -0.29593564292E-02  0.83814391002E-01  0.90220373584E-01  0.51100000000E-03 0. -1.
         11    1    4    4    0    0  0.21717297367E-01  0.89384061183E-02  0.30050328465E-01  0.38142095783E-01  0.51100000000E-03 0.  1.
</event>
<event>
 8    1  0.1086235E+005  0.1043930E+01  0.7957747E-01            NaN
         13   -1    0    0    0    0  0.00000000000E+00  0.00000000000E+00  0.74505805969E-08  0.10566000000E+00  0.10566000000E+00 0. -1.
     999900   -1    0    0    0    0 -0.00000000000E+00 -0.00000000000E+00 -0.74505805969E-08  0.93827000000E+00  0.93827000000E+00 0.  1.
     999902    2    1    2    0    0 -0.29642967016E-02  0.22563228668E-01  0.76215080587E-02  0.10199305473E+01  0.10196481490E+01 0.  0.
     999903    2    3    3    0    0  0.75459533630E-01  0.19540689835E-02 -0.10313279400E+00  0.12928945798E+00  0.19530262291E-01 0.  0.
         14    1    1    2    0    0  0.29642967016E-02 -0.22563228668E-01 -0.76215080587E-02  0.23999452659E-01  0.00000000000E+00 0.  1.
     999901    1    3    3    0    0 -0.78423830332E-01  0.20609159684E-01  0.11075430206E+00  0.89064108936E+00  0.88000000000E+00 0. -1.
        -11    1    4    4    0    0  0.49178863949E-01 -0.24223008693E-02 -0.51908094498E-01  0.71548162773E-01  0.51100000000E-03 0.  1.
         11    1    4    4    0    0  0.26280669681E-01  0.43763698528E-02 -0.51224699507E-01  0.57741295210E-01  0.51100000000E-03 0. -1.
</event>
<event>
 8    1  0.1086235E+005  0.1043930E+01  0.7957747E-01            NaN
         13   -1    0    0    0    0  0.00000000000E+00  0.00000000000E+00  0.74505805969E-08  0.10566000000E+00  0.10566000000E+00 0.  1.
     999900   -1    0    0    0    0 -0.00000000000E+00 -0.00000000000E+00 -0.74505805969E-08  0.93827000000E+00  0.93827000000E+00 0.  1.
     999902    2    1    2    0    0  0.17635164933E-01  0.10834530362E-01  0.51211536298E-03  0.10232261754E+01  0.10230166947E+01 0.  0.
     999903    2    3    3    0    0  0.44642147710E-01 -0.48960620895E-01  0.11361597753E+00  0.13356482362E+00  0.23257429104E-01 0.  0.
         14    1    1    2    0    0 -0.17635164933E-01 -0.10834530362E-01 -0.51211536298E-03  0.20703824587E-01  0.00000000000E+00 0. -1.
     999901    1    3    3    0    0 -0.27006982777E-01  0.59795151257E-01 -0.11310386217E+00  0.88966135179E+00  0.88000000000E+00 0.  1.
        -11    1    4    4    0    0  0.14796000494E-01 -0.16615396232E-01  0.19193984510E-01  0.29388147014E-01  0.51100000000E-03 0.  1.
         11    1    4    4    0    0  0.29846147216E-01 -0.32345224663E-01  0.94421993021E-01  0.10417667661E+00  0.51100000000E-03 0. -1.
</event>
<event>
 8    1  0.1086235E+005  0.1043930E+01  0.7957747E-01            NaN
         13   -1    0    0    0    0  0.00000000000E+00  0.00000000000E+00  0.74505805969E-08  0.10566000000E+00  0.10566000000E+00 0. -1.
     999900   -1    0    0    0    0 -0.00000000000E+00 -0.00000000000E+00 -0.74505805969E-08  0.93827000000E+00  0.93827000000E+00 0.  1.
     999902    2    1    2    0    0 -0.18497318499E-01  0.69447917085E-02 -0.14032386188E-01  0.10196959581E+01  0.10194079450E+01 0.  0.
     999903    2    3    3    0    0  0.40473199501E-01 -0.35452374784E-01 -0.11743470376E+00  0.13067004118E+00  0.19717993290E-01 0.  0.
         14    1    1    2    0    0  0.18497318499E-01 -0.69447917085E-02  0.14032386188E-01  0.24234041876E-01  0.00000000000E+00 0. -1.
     999901    1    3    3    0    0 -0.58970518000E-01  0.42397166493E-01  0.10340231757E+00  0.88902591694E+00  0.88000000000E+00 0.  1.
        -11    1    4    4    0    0  0.19140074417E-02 -0.10543959889E-01 -0.15238759016E-01  0.18636507505E-01  0.51100000000E-03 0.  1.
         11    1    4    4    0    0  0.38559192059E-01 -0.24908414895E-01 -0.10219594474E+00  0.11203353367E+00  0.51100000000E-03 0. -1.
</event>
<event>
 8    1  0.1086235E+005  0.1043930E+01  0.7957747E-01            NaN
         13   -1    0    0    0    0  0.00000000000E+00  0.00000000000E+00  0.74505805969E-08  0.10566000000E+00  0.10566000000E+00 0.  1.
     999900   -1    0    0    0    0 -0.00000000000E+00 -0.00000000000E+00 -0.74505805969E-08  0.93827000000E+00  0.93827000000E+00 0. -1.
     999902    2    1    2    0    0  0.11129669743E-01  0.14648659310E-01 -0.79255737234E-02  0.10238983379E+01  0.10237023683E+01 0.  0.
     999903    2    3    3    0    0 -0.24269454412E-01 -0.12322829852E+00  0.33318712664E-01  0.13150591039E+00  0.20234818547E-01 0.  0.
         14    1    1    2    0    0 -0.11129669743E-01 -0.14648659310E-01  0.79255737234E-02  0.20031662113E-01  0.00000000000E+00 0.  1.
     999901    1    3    3    0    0  0.35399124156E-01  0.13787695783E+00 -0.41244286387E-01  0.89239242749E+00  0.88000000000E+00 0.  1.
        -11    1    4    4    0    0 -0.24177211536E-02 -0.43078188191E-01  0.37018592448E-02  0.43307511545E-01  0.51100000000E-03 0.  1.
         11    1    4    4    0    0 -0.21851733259E-01 -0.80150110326E-01  0.29616853419E-01  0.88198398847E-01  0.51100000000E-03 0. -1.
</event>
<event>
 8    1  0.1086235E+005  0.1043930E+01  0.7957747E-01            NaN
         13   -1    0    0    0    0  0.00000000000E+00  0.00000000000E+00  0.74505805969E-08  0.10566000000E+00  0.10566000000E+00 0.  1.
     999900   -1    0    0    0    0 -0.00000000000E+00 -0.00000000000E+00 -0.74505805969E-08  0.93827000000E+00  0.93827000000E+00 0.  1.
     999902    2    1    2    0    0 -0.17179247239E-01 -0.15307647990E-01 -0.35991794757E-02  0.10206404162E+01  0.10203746637E+01 0.  0.
     999903    2    3    3    0    0  0.13812958023E-01 -0.80049868090E-01 -0.10205531524E+00  0.13224541250E+00  0.21789505913E-01 0.  0.
         14    1    1    2    0    0  0.17179247239E-01  0.15307647990E-01  0.35991794757E-02  0.23289583843E-01  0.00000000000E+00 0.  1.
     999901    1    3    3    0    0 -0.30992205261E-01  0.64742220100E-01  0.98456135767E-01  0.88839500366E+00  0.88000000000E+00 0.  1.
        -11    1    4    4    0    0  0.89852931645E-03 -0.52406857997E-01 -0.74752186659E-01  0.91298612538E-01  0.51100000000E-03 0. -1.
         11    1    4    4    0    0  0.12914428706E-01 -0.27643010093E-01 -0.27303128583E-01  0.40946799964E-01  0.51100000000E-03 0.  1.
</event>
<event>
 8    1  0.1086235E+005  0.1043930E+01  0.7957747E-01            NaN
         13   -1    0    0    0    0  0.00000000000E+00  0.00000000000E+00  0.74505805969E-08  0.10566000000E+00  0.10566000000E+00 0. -1.
     999900   -1    0    0    0    0 -0.00000000000E+00 -0.00000000000E+00 -0.74505805969E-08  0.93827000000E+00  0.93827000000E+00 0.  1.
     999902    2    1    2    0    0  0.17274221546E-01 -0.77640380685E-02 -0.13859539091E-01  0.10204615991E+01  0.10201917023E+01 0.  0.
     999903    2    3    3    0    0 -0.96285599030E-01  0.62528705351E-01 -0.58306384438E-01  0.12927563383E+00  0.11480394699E-01 0.  0.
         14    1    1    2    0    0 -0.17274221546E-01  0.77640380685E-02  0.13859539091E-01  0.23468400904E-01  0.00000000000E+00 0. -1.
     999901    1    3    3    0    0  0.11355982058E+00 -0.70292743419E-01  0.44446845346E-01  0.89118596527E+00  0.88000000000E+00 0. -1.
        -11    1    4    4    0    0 -0.20862258606E-01  0.18251628887E-01 -0.17300747141E-01  0.32679240563E-01  0.51100000000E-03 0.  1.
         11    1    4    4    0    0 -0.75423340425E-01  0.44277076464E-01 -0.41005637297E-01  0.96596393267E-01  0.51100000000E-03 0. -1.
</event>
<event>
 8    1  0.1086235E+005  0.1043930E+01  0.7957747E-01            NaN
         13   -1    0    0    0    0  0.00000000000E+00  0.00000000000E+00  0.74505805969E-08  0.10566000000E+00  0.10566000000E+00 0.  1.
     999900   -1    0    0    0    0 -0.00000000000E+00 -0.00000000000E+00 -0.74505805969E-08  0.93827000000E+00  0.93827000000E+00 0. -1.
     999902    2    1    2    0    0  0.15182163316E-01  0.17125421958E-01 -0.50689693960E-02  0.10204891679E+01  0.10202199121E+01 0.  0.
     999903    2    3    3    0    0  0.77711592232E-01  0.95984950153E-03  0.10411496890E+00  0.13139277962E+00  0.19599053771E-01 0.  0.
         14    1    1    2    0    0 -0.15182163316E-01 -0.17125421958E-01  0.50689693960E-02  0.23440832130E-01  0.00000000000E+00 0.  1.
     999901    1    3    3    0    0 -0.62529428916E-01  0.16165572457E-01 -0.10918393830E+00  0.88909638825E+00  0.88000000000E+00 0. -1.
        -11    1    4    4    0    0  0.47697892544E-01 -0.34773679187E-02  0.48971915329E-01  0.68452104809E-01  0.51100000000E-03 0. -1.
         11    1    4    4    0    0  0.30013699687E-01  0.44372174202E-02  0.55143053574E-01  0.62940674813E-01  0.51100000000E-03 0.  1.
</event>
<event>
 8    1  0.1086235E+005  0.1043930E+01  0.7957747E-01            NaN
         13   -1    0    0    0    0  0.00000000000E+00  0.00000000000E+00  0.74505805969E-08  0.10566000000E+00  0.10566000000E+00 0.  1.
     999900   -1    0    0    0    0 -0.00000000000E+00 -0.00000000000E+00 -0.74505805969E-08  0.93827000000E+00  0.93827000000E+00 0.  1.
     999902    2    1    2    0    0 -0.13347034464E-01 -0.47330726618E-02 -0.19408041614E-01  0.10199046512E+01  0.10196216358E+01 0.  0.
     999903    2    3    3    0    0  0.13922227833E-02  0.97356093339E-01 -0.82836469108E-01  0.13161268966E+00  0.31302911533E-01 0.  0.
         14    1    1    2    0    0  0.13347034464E-01  0.47330726618E-02  0.19408041614E-01  0.24025348803E-01  0.00000000000E+00 0. -1.
     999901    1    3    3    0    0 -0.14739257247E-01 -0.10208916600E+00  0.63428427493E-01  0.88829196154E+00  0.88000000000E+00 0. -1.
        -11    1    4    4    0    0 -0.35382431028E-02  0.69839780190E-01 -0.75068100868E-01  0.10259432221E+00  0.51100000000E-03 0. -1.
         11    1    4    4    0    0  0.49304658861E-02  0.27516313149E-01 -0.77683682402E-02  0.29018367447E-01  0.51100000000E-03 0.  1.
</event>
<event>
 8    1  0.1086235E+005  0.1043930E+01  0.7957747E-01            NaN
         13   -1    0    0    0    0  0.00000000000E+00  0.00000000000E+00  0.74505805969E-08  0.10566000000E+00  0.10566000000E+00 0.  1.
     999900   -1    0    0    0    0 -0.00000000000E+00 -0.00000000000E+00 -0.74505805969E-08  0.93827000000E+00  0.93827000000E+00 0. -1.
     999902    2    1    2    0    0 -0.23783017213E-02  0.14209808532E-01 -0.28482478406E-01  0.10120109375E+01  0.10115074448E+01 0.  0.
     999903    2    3    3    0    0  0.80299161333E-01  0.92723179026E-01 -0.18102099145E-02  0.12425459580E+00  0.19758149656E-01 0.  0.
         14    1    1    2    0    0  0.23783017213E-02 -0.14209808532E-01  0.28482478406E-01  0.31919062545E-01  0.00000000000E+00 0.  1.
     999901    1    3    3    0    0 -0.82677463054E-01 -0.78513370494E-01 -0.26672268492E-01  0.88775634166E+00  0.88000000000E+00 0. -1.
        -11    1    4    4    0    0  0.63243090845E-01  0.83658450702E-01 -0.27376088984E-02  0.10491034523E+00  0.51100000000E-03 0.  1.
         11    1    4    4    0    0  0.17056070488E-01  0.90647283235E-02  0.92739898385E-03  0.19344250566E-01  0.51100000000E-03 0. -1.
</event>
<event>
 8    1  0.1086235E+005  0.1043930E+01  0.7957747E-01            NaN
         13   -1    0    0    0    0  0.00000000000E+00  0.00000000000E+00  0.74505805969E-08  0.10566000000E+00  0.10566000000E+00 0. -1.
     999900   -1    0    0    0    0 -0.00000000000E+00 -0.00000000000E+00 -0.74505805969E-08  0.93827000000E+00  0.93827000000E+00 0. -1.
     999902    2    1    2    0    0  0.14964926410E-01  0.38878922427E-02 -0.17473827973E-01  0.10205976321E+01  0.10203308910E+01 0.  0.
     999903    2    3    3    0    0  0.82415519780E-01  0.52834315667E-01 -0.89018892057E-01  0.13376955906E+00  0.19650673649E-01 0.  0.
         14    1    1    2    0    0 -0.14964926410E-01 -0.38878922427E-02  0.17473827973E-01  0.23332367917E-01  0.00000000000E+00 0. -1.
     999901    1    3    3    0    0 -0.67450593370E-01 -0.48946423424E-01  0.71545064083E-01  0.88682807303E+00  0.88000000000E+00 0. -1.
        -11    1    4    4    0    0  0.43217272872E-01  0.16607455823E-01 -0.45262530334E-01  0.64749502212E-01  0.51100000000E-03 0. -1.
         11    1    4    4    0    0  0.39198246908E-01  0.36226859844E-01 -0.43756361723E-01  0.69020056846E-01  0.51100000000E-03 0.  1.
</event>
<event>
 8    1  0.1086235E+005  0.1043930E+01  0.7957747E-01            NaN
         13   -1    0    0    0    0  0.00000000000E+00  0.00000000000E+00  0.74505805969E-08  0.10566000000E+00  0.10566000000E+00 0.  1.
     999900   -1    0    0    0    0 -0.00000000000E+00 -0.00000000000E+00 -0.74505805969E-08  0.93827000000E+00  0.93827000000E+00 0. -1.
     999902    2    1    2    0    0  0.74361579198E-02 -0.18878737344E-01 -0.13248228034E-01  0.10196974039E+01  0.10194094255E+01 0.  0.
     999903    2    3    3    0    0 -0.10400642888E+00  0.34630028311E-02 -0.75664893107E-01  0.13019504662E+00  0.19905890563E-01 0.  0.
         14    1    1    2    0    0 -0.74361579198E-02  0.18878737344E-01  0.13248228034E-01  0.24232596113E-01  0.00000000000E+00 0.  1.
     999901    1    3    3    0    0  0.11144258680E+00 -0.22341740175E-01  0.62416665072E-01  0.88950235727E+00  0.88000000000E+00 0.  1.
        -11    1    4    4    0    0 -0.60444410905E-01 -0.69831624086E-02 -0.38689487252E-01  0.72107065616E-01  0.51100000000E-03 0. -1.
         11    1    4    4    0    0 -0.43562017971E-01  0.10446165240E-01 -0.36975405855E-01  0.58087981004E-01  0.51100000000E-03 0.  1.
</event>
<event>
 8    1  0.1086235E+005  0.1043930E+01  0.7957747E-01            NaN
         13   -1    0    0    0    0  0.00000000000E+00  0.00000000000E+00  0.74505805969E-08  0.10566000000E+00  0.10566000000E+00 0. -1.
     999900   -1    0    0    0    0 -0.00000000000E+00 -0.00000000000E+00 -0.74505805969E-08  0.93827000000E+00  0.93827000000E+00 0. -1.
     999902    2    1    2    0    0 -0.83064519238E-02 -0.21986318235E-01  0.15176316022E-02  0.10203779610E+01  0.10201061145E+01 0.  0.
     999903    2    3    3    0    0  0.83218637469E-02  0.12188943200E+00 -0.32343887945E-01  0.12789640107E+00  0.19623334834E-01 0.  0.
         14    1    1    2    0    0  0.83064519238E-02  0.21986318235E-01 -0.15176316022E-02  0.23552038951E-01  0.00000000000E+00 0.  1.
     999901    1    3    3    0    0 -0.16628315671E-01 -0.14387575024E+00  0.33861519547E-01  0.89248155997E+00  0.88000000000E+00 0.  1.
        -11    1    4    4    0    0 -0.46244544365E-02  0.71144433411E-01 -0.16521948923E-01  0.73185735642E-01  0.51100000000E-03 0. -1.
         11    1    4    4    0    0  0.12946318183E-01  0.50744998592E-01 -0.15821939022E-01  0.54710665432E-01  0.51100000000E-03 0.  1.
</event>
<event>
 8    1  0.1086235E+005  0.1043930E+01  0.7957747E-01            NaN
         13   -1    0    0    0    0  0.00000000000E+00  0.00000000000E+00  0.74505805969E-08  0.10566000000E+00  0.10566000000E+00 0.  1.
     999900   -1    0    0    0    0 -0.00000000000E+00 -0.00000000000E+00 -0.74505805969E-08  0.93827000000E+00  0.93827000000E+00 0. -1.
     999902    2    1    2    0    0 -0.14095408761E-02  0.19286420278E-02 -0.28516544664E-01  0.10153135749E+01  0.10149102205E+01 0.  0.
     999903    2    3    3    0    0  0.16496688011E-01  0.12150468652E+00 -0.26924422589E-01  0.12704469765E+00  0.19491051987E-01 0.  0.
         14    1    1    2    0    0  0.14095408761E-02 -0.19286420278E-02  0.28516544664E-01  0.28616425093E-01  0.00000000000E+00 0.  1.
     999901    1    3    3    0    0 -0.17906228887E-01 -0.11957604449E+00 -0.15921220751E-02  0.88826887726E+00  0.88000000000E+00 0. -1.
        -11    1    4    4    0    0  0.17543504201E-01  0.70992961026E-01 -0.21522530091E-01  0.76231591072E-01  0.51100000000E-03 0.  1.
         11    1    4    4    0    0 -0.10468161905E-02  0.50511725494E-01 -0.54018924982E-02  0.50813106578E-01  0.51100000000E-03 0. -1.
</event>
<event>
 8    1  0.1086235E+005  0.1043930E+01  0.7957747E-01            NaN
         13   -1    0    0    0    0  0.00000000000E+00  0.00000000000E+00  0.74505805969E-08  0.10566000000E+00  0.10566000000E+00 0.  1.
     999900   -1    0    0    0    0 -0.00000000000E+00 -0.00000000000E+00 -0.74505805969E-08  0.93827000000E+00  0.93827000000E+00 0. -1.
     999902    2    1    2    0    0  0.10304938148E-01  0.16434258233E-01 -0.13579497394E-01  0.10202513315E+01  0.10199765193E+01 0.  0.
     999903    2    3    3    0    0  0.62327366945E-01 -0.72672246909E-01  0.82323288326E-01  0.12904784928E+00  0.26650843556E-01 0.  0.
         14    1    1    2    0    0 -0.10304938148E-01 -0.16434258233E-01  0.13579497394E-01  0.23678668530E-01  0.00000000000E+00 0.  1.
     999901    1    3    3    0    0 -0.52022428797E-01  0.89106505142E-01 -0.95902785719E-01  0.89120348219E+00  0.88000000000E+00 0. -1.
        -11    1    4    4    0    0  0.55504624731E-01 -0.52936469323E-01  0.73945982816E-01  0.10654249221E+00  0.51100000000E-03 0. -1.
         11    1    4    4    0    0  0.68227422138E-02 -0.19735777587E-01  0.83773055098E-02  0.22505357070E-01  0.51100000000E-03 0.  1.
</event>
<event>
 8    1  0.1086235E+005  0.1043930E+01  0.7957747E-01            NaN
         13   -1    0    0    0    0  0.00000000000E+00  0.00000000000E+00  0.74505805969E-08  0.10566000000E+00  0.10566000000E+00 0. -1.
     999900   -1    0    0    0    0 -0.00000000000E+00 -0.00000000000E+00 -0.74505805969E-08  0.93827000000E+00  0.93827000000E+00 0. -1.
     999902    2    1    2    0    0 -0.71529319148E-02  0.97995924902E-02  0.19271163183E-01  0.10211577762E+01  0.10209038298E+01 0.  0.
     999903    2    3    3    0    0 -0.11318565493E-01 -0.10222770565E+00  0.80449570118E-01  0.13193886864E+00  0.18897565906E-01 0.  0.
         14    1    1    2    0    0  0.71529319148E-02 -0.97995924902E-02 -0.19271163183E-01  0.22772223835E-01  0.00000000000E+00 0.  1.
     999901    1    3    3    0    0  0.41656335786E-02  0.11202729814E+00 -0.61178406935E-01  0.88921890753E+00  0.88000000000E+00 0.  1.
        -11    1    4    4    0    0 -0.15334765764E-01 -0.85825453359E-01  0.62396145817E-01  0.10721335560E+00  0.51100000000E-03 0. -1.
         11    1    4    4    0    0  0.40162002708E-02 -0.16402252293E-01  0.18053424300E-01  0.24725513036E-01  0.51100000000E-03 0.  1.
</event>
<event>
 8    1  0.1086235E+005  0.1043930E+01  0.7957747E-01            NaN
         13   -1    0    0    0    0  0.00000000000E+00  0.00000000000E+00  0.74505805969E-08  0.10566000000E+00  0.10566000000E+00 0. -1.
     999900   -1    0    0    0    0 -0.00000000000E+00 -0.00000000000E+00 -0.74505805969E-08  0.93827000000E+00  0.93827000000E+00 0. -1.
     999902    2    1    2    0    0 -0.13125772599E-01  0.83935511507E-02 -0.20502014092E-01  0.10181798507E+01  0.10178541832E+01 0.  0.
     999903    2    3    3    0    0 -0.77091297819E-01  0.97376104060E-01 -0.38159710664E-01  0.13120675224E+00  0.18272232333E-01 0.  0.
         14    1    1    2    0    0  0.13125772599E-01 -0.83935511507E-02  0.20502014092E-01  0.25750149301E-01  0.00000000000E+00 0. -1.
     999901    1    3    3    0    0  0.63965525221E-01 -0.88982552909E-01  0.17657696573E-01  0.88697309846E+00  0.88000000000E+00 0.  1.
        -11    1    4    4    0    0 -0.18972948617E-01  0.23038131902E-01 -0.17529768667E-01  0.34616213127E-01  0.51100000000E-03 0.  1.
         11    1    4    4    0    0 -0.58118349203E-01  0.74337972158E-01 -0.20629941998E-01  0.96590539114E-01  0.51100000000E-03 0. -1.
</event>
<event>
 8    1  0.1086235E+005  0.1043930E+01  0.7957747E-01            NaN
         13   -1    0    0    0    0  0.00000000000E+00  0.00000000000E+00  0.74505805969E-08  0.10566000000E+00  0.10566000000E+00 0. -1.
     999900   -1    0    0    0    0 -0.00000000000E+00 -0.00000000000E+00 -0.74505805969E-08  0.93827000000E+00  0.93827000000E+00 0. -1.
     999902    2    1    2    0    0 -0.15645449951E-01  0.16048662253E-01  0.89649836089E-02  0.10197906008E+01  0.10195048596E+01 0.  0.
     999903    2    3    3    0    0  0.44982271922E-01  0.58616979240E-01  0.10672060227E+00  0.13128402046E+00  0.19668554517E-01 0.  0.
         14    1    1    2    0    0  0.15645449951E-01 -0.16048662253E-01 -0.89649836089E-02  0.24139399234E-01  0.00000000000E+00 0.  1.
     999901    1    3    3    0    0 -0.60627721873E-01 -0.42568316987E-01 -0.97755618659E-01  0.88850658031E+00  0.88000000000E+00 0. -1.
        -11    1    4    4    0    0  0.30774048238E-01  0.52730165504E-01  0.86335063595E-01  0.10574269112E+00  0.51100000000E-03 0.  1.
         11    1    4    4    0    0  0.14208223684E-01  0.58868137360E-02  0.20385538673E-01  0.25541329336E-01  0.51100000000E-03 0. -1.
</event>
<event>
 8    1  0.1086235E+005  0.1043930E+01  0.7957747E-01            NaN
         13   -1    0    0    0    0  0.00000000000E+00  0.00000000000E+00  0.74505805969E-08  0.10566000000E+00  0.10566000000E+00 0. -1.
     999900   -1    0    0    0    0 -0.00000000000E+00 -0.00000000000E+00 -0.74505805969E-08  0.93827000000E+00  0.93827000000E+00 0.  1.
     999902    2    1    2    0    0  0.24183334451E-02  0.21048473573E-01  0.15990635975E-01  0.10173859420E+01  0.10170396098E+01 0.  0.
     999903    2    3    3    0    0 -0.85323189619E-01  0.73338103024E-01  0.62236323679E-01  0.13027183217E+00  0.20949134362E-01 0.  0.
         14    1    1    2    0    0 -0.24183334451E-02 -0.21048473573E-01 -0.15990635975E-01  0.26544058003E-01  0.00000000000E+00 0.  1.
     999901    1    3    3    0    0  0.87741523064E-01 -0.52289629452E-01 -0.46245687704E-01  0.88711410982E+00  0.88000000000E+00 0. -1.
        -11    1    4    4    0    0 -0.55318186233E-02  0.37823988393E-02  0.10462904917E-01  0.12435475808E-01  0.51100000000E-03 0. -1.
         11    1    4    4    0    0 -0.79791370996E-01  0.69555704185E-01  0.51773418762E-01  0.11783635636E+00  0.51100000000E-03 0.  1.
</event>
<event>
 8    1  0.1086235E+005  0.1043930E+01  0.7957747E-01            NaN
         13   -1    0    0    0    0  0.00000000000E+00  0.00000000000E+00  0.74505805969E-08  0.10566000000E+00  0.10566000000E+00 0.  1.
     999900   -1    0    0    0    0 -0.00000000000E+00 -0.00000000000E+00 -0.74505805969E-08  0.93827000000E+00  0.93827000000E+00 0.  1.
     999902    2    1    2    0    0  0.48834486313E-03 -0.17604663492E-01  0.14385789218E-01  0.10211898683E+01  0.10209366452E+01 0.  0.
     999903    2    3    3    0    0 -0.10988418611E+00  0.52042567908E-01  0.44659458173E-01  0.13104980773E+00  0.19915362653E-01 0.  0.
         14    1    1    2    0    0 -0.48834486313E-03  0.17604663492E-01 -0.14385789218E-01  0.22740131680E-01  0.00000000000E+00 0.  1.
     999901    1    3    3    0    0  0.11037253098E+00 -0.69647231400E-01 -0.30273668955E-01  0.89014006059E+00  0.88000000000E+00 0.  1.
        -11    1    4    4    0    0 -0.37645500275E-01  0.28282037893E-01  0.19220786071E-01  0.50860172006E-01  0.51100000000E-03 0.  1.
         11    1    4    4    0    0 -0.72238685838E-01  0.23760530015E-01  0.25438672102E-01  0.80189635724E-01  0.51100000000E-03 0. -1.
</event>
<event>
 8    1  0.1086235E+005  0.1043930E+01  0.7957747E-01            NaN
         13   -1    0    0    0    0  0.00000000000E+00  0.00000000000E+00  0.74505805969E-08  0.10566000000E+00  0.10566000000E+00 0.  1.
     999900   -1    0    0    0    0 -0.00000000000E+00 -0.00000000000E+00 -0.74505805969E-08  0.93827000000E+00  0.93827000000E+00 0.  1.
     999902    2    1    2    0    0  0.74181972441E-02  0.12344775820E-01  0.19168920361E-01  0.10199535397E+01  0.10196716886E+01 0.  0.
     999903    2    3    3    0    0 -0.84593678148E-01  0.33117701716E-01  0.93388593376E-01  0.13180588333E+00  0.19962188214E-01 0.  0.
         14    1    1    2    0    0 -0.74181972441E-02 -0.12344775820E-01 -0.19168920361E-01  0.23976460293E-01  0.00000000000E+00 0. -1.
     999901    1    3    3    0    0  0.92011875392E-01 -0.20772925896E-01 -0.74219673016E-01  0.88814765638E+00  0.88000000000E+00 0. -1.
        -11    1    4    4    0    0 -0.59377184602E-01  0.28645214199E-01  0.56095387585E-01  0.86562994271E-01  0.51100000000E-03 0. -1.
         11    1    4    4    0    0 -0.25216493546E-01  0.44724875166E-02  0.37293205791E-01  0.45242889060E-01  0.51100000000E-03 0.  1.
</event>
<event>
 8    1  0.1086235E+005  0.1043930E+01  0.7957747E-01            NaN
         13   -1    0    0    0    0  0.00000000000E+00  0.00000000000E+00  0.74505805969E-08  0.10566000000E+00  0.10566000000E+00 0. -1.
     999900   -1    0    0    0    0 -0.00000000000E+00 -0.00000000000E+00 -0.74505805969E-08  0.93827000000E+00  0.93827000000E+00 0.  1.
     999902    2    1    2    0    0 -0.91676669474E-02  0.52346787790E-02  0.21691076502E-01  0.10198063440E+01  0.10195209799E+01 0.  0.
     999903    2    3    3    0    0 -0.67799200665E-01 -0.88180107771E-01  0.67774819127E-01  0.13172544091E+00  0.19639314090E-01 0.  0.
         14    1    1    2    0    0  0.91676669474E-02 -0.52346787790E-02 -0.21691076502E-01  0.24123656004E-01  0.00000000000E+00 0.  1.
     999901    1    3    3    0    0  0.58631533717E-01  0.93414786550E-01 -0.46083742625E-01  0.88808090309E+00  0.88000000000E+00 0.  1.
        -11    1    4    4    0    0 -0.53861384869E-01 -0.64040702919E-01  0.41460014885E-01  0.93388727188E-01  0.51100000000E-03 0.  1.
         11    1    4    4    0    0 -0.13937815795E-01 -0.24139404852E-01  0.26314804242E-01  0.38336713722E-01  0.51100000000E-03 0. -1.
</event>
<event>
 8    1  0.1086235E+005  0.1043930E+01  0.7957747E-01            NaN
         13   -1    0    0    0    0  0.00000000000E+00  0.00000000000E+00  0.74505805969E-08  0.10566000000E+00  0.10566000000E+00 0.  1.
     999900   -1    0    0    0    0 -0.00000000000E+00 -0.00000000000E+00 -0.74505805969E-08  0.93827000000E+00  0.93827000000E+00 0. -1.
     999902    2    1    2    0    0 -0.93371733255E-02 -0.14437408111E-01  0.16811342025E-01  0.10198833208E+01  0.10195997966E+01 0.  0.
     999903    2    3    3    0    0  0.52716826117E-01  0.98159703241E-01  0.62910229548E-01  0.12934757434E+00  0.18939559400E-01 0.  0.
         14    1    1    2    0    0  0.93371733255E-02  0.14437408111E-01 -0.16811342025E-01  0.24046679175E-01  0.00000000000E+00 0. -1.
     999901    1    3    3    0    0 -0.62053999443E-01 -0.11259711135E+00 -0.46098887524E-01  0.89053574648E+00  0.88000000000E+00 0.  1.
        -11    1    4    4    0    0  0.50929569341E-01  0.81370909809E-01  0.51228330749E-01  0.10881015113E+00  0.51100000000E-03 0. -1.
         11    1    4    4    0    0  0.17872567760E-02  0.16788793433E-01  0.11681898800E-01  0.20537423214E-01  0.51100000000E-03 0.  1.
</event>
<event>
 8    1  0.1086235E+005  0.1043930E+01  0.7957747E-01            NaN
         13   -1    0    0    0    0  0.00000000000E+00  0.00000000000E+00  0.74505805969E-08  0.10566000000E+00  0.10566000000E+00 0. -1.
     999900   -1    0    0    0    0 -0.00000000000E+00 -0.00000000000E+00 -0.74505805969E-08  0.93827000000E+00  0.93827000000E+00 0.  1.
     999902    2    1    2    0    0  0.83207991702E-02 -0.22585339424E-01 -0.95472093456E-03  0.10198417301E+01  0.10195572126E+01 0.  0.
     999903    2    3    3    0    0  0.11061436247E-01  0.82836655718E-01  0.95349955511E-01  0.12832846666E+00  0.19806928998E-01 0.  0.
         14    1    1    2    0    0 -0.83207991702E-02  0.22585339424E-01  0.95472093456E-03  0.24088269921E-01  0.00000000000E+00 0. -1.
     999901    1    3    3    0    0 -0.27406370767E-02 -0.10542199514E+00 -0.96304676445E-01  0.89151326342E+00  0.88000000000E+00 0.  1.
        -11    1    4    4    0    0 -0.53838379603E-02  0.25508894934E-01  0.25375453834E-01  0.36384944828E-01  0.51100000000E-03 0.  1.
         11    1    4    4    0    0  0.16445274207E-01  0.57327760785E-01  0.69974501677E-01  0.91943521829E-01  0.51100000000E-03 0. -1.
</event>
<event>
 8    1  0.1086235E+005  0.1043930E+01  0.7957747E-01            NaN
         13   -1    0    0    0    0  0.00000000000E+00  0.00000000000E+00  0.74505805969E-08  0.10566000000E+00  0.10566000000E+00 0.  1.
     999900   -1    0    0    0    0 -0.00000000000E+00 -0.00000000000E+00 -0.74505805969E-08  0.93827000000E+00  0.93827000000E+00 0.  1.
     999902    2    1    2    0    0  0.87951377664E-02  0.17310000377E-01  0.15662437476E-01  0.10189840082E+01  0.10186786080E+01 0.  0.
     999903    2    3    3    0    0  0.35601773579E-02 -0.65189972614E-01  0.11077157844E+00  0.13000740608E+00  0.19213944235E-01 0.  0.
         14    1    1    2    0    0 -0.87951377664E-02 -0.17310000377E-01 -0.15662437476E-01  0.24945991844E-01  0.00000000000E+00 0.  1.
     999901    1    3    3    0    0  0.52349604085E-02  0.82499972991E-01 -0.95109140960E-01  0.88897660208E+00  0.88000000000E+00 0.  1.
        -11    1    4    4    0    0  0.95554828954E-02 -0.49643620401E-01  0.73861365483E-01  0.89507311053E-01  0.51100000000E-03 0. -1.
         11    1    4    4    0    0 -0.59953055375E-02 -0.15546352213E-01  0.36910212952E-01  0.40500095022E-01  0.51100000000E-03 0.  1.
</event>
<event>
 8    1  0.1086235E+005  0.1043930E+01  0.7957747E-01            NaN
         13   -1    0    0    0    0  0.00000000000E+00  0.00000000000E+00  0.74505805969E-08  0.10566000000E+00  0.10566000000E+00 0.  1.
     999900   -1    0    0    0    0 -0.00000000000E+00 -0.00000000000E+00 -0.74505805969E-08  0.93827000000E+00  0.93827000000E+00 0.  1.
     999902    2    1    2    0    0 -0.20157393148E-01 -0.97671841809E-02 -0.51194026850E-02  0.10209533451E+01  0.10206947664E+01 0.  0.
     999903    2    3    3    0    0 -0.63463332469E-01 -0.11360031295E+00  0.22170009563E-01  0.13337155451E+00  0.19074500243E-01 0.  0.
         14    1    1    2    0    0  0.20157393148E-01  0.97671841809E-02  0.51194026850E-02  0.22976654874E-01  0.00000000000E+00 0. -1.
     999901    1    3    3    0    0  0.43305939321E-01  0.10383312876E+00 -0.27289412247E-01  0.88758179061E+00  0.88000000000E+00 0.  1.
        -11    1    4    4    0    0 -0.51131639906E-01 -0.95074916196E-01  0.11135077850E-01  0.10852619669E+00  0.51100000000E-03 0.  1.
         11    1    4    4    0    0 -0.12331692563E-01 -0.18525396749E-01  0.11034931712E-01  0.24845357818E-01  0.51100000000E-03 0. -1.
</event>
<event>
 8    1  0.1086235E+005  0.1043930E+01  0.7957747E-01            NaN
         13   -1    0    0    0    0  0.00000000000E+00  0.00000000000E+00  0.74505805969E-08  0.10566000000E+00  0.10566000000E+00 0.  1.
     999900   -1    0    0    0    0 -0.00000000000E+00 -0.00000000000E+00 -0.74505805969E-08  0.93827000000E+00  0.93827000000E+00 0. -1.
     999902    2    1    2    0    0  0.22009718409E-01  0.20085169388E-02 -0.14223538330E-01  0.10176474794E+01  0.10173080269E+01 0.  0.
     999903    2    3    3    0    0  0.32745857608E-01 -0.86228378485E-01  0.86015024907E-01  0.12750772414E+00  0.18761949743E-01 0.  0.
         14    1    1    2    0    0 -0.22009718409E-01 -0.20085169388E-02  0.14223538330E-01  0.26282520567E-01  0.00000000000E+00 0.  1.
     999901    1    3    3    0    0 -0.10736139199E-01  0.88236895423E-01 -0.10023856324E+00  0.89013975530E+00  0.88000000000E+00 0. -1.
        -11    1    4    4    0    0  0.26050020391E-01 -0.48760059549E-01  0.42781356760E-01  0.69904596250E-01  0.51100000000E-03 0. -1.
         11    1    4    4    0    0  0.66958372163E-02 -0.37468318935E-01  0.43233668147E-01  0.57603127886E-01  0.51100000000E-03 0.  1.
</event>
<event>
 8    1  0.1086235E+005  0.1043930E+01  0.7957747E-01            NaN
         13   -1    0    0    0    0  0.00000000000E+00  0.00000000000E+00  0.74505805969E-08  0.10566000000E+00  0.10566000000E+00 0.  1.
     999900   -1    0    0    0    0 -0.00000000000E+00 -0.00000000000E+00 -0.74505805969E-08  0.93827000000E+00  0.93827000000E+00 0.  1.
     999902    2    1    2    0    0  0.17735720243E-01 -0.22804187512E-02  0.13864258382E-01  0.10213031632E+01  0.10210524852E+01 0.  0.
     999903    2    3    3    0    0 -0.11952110502E+00 -0.22559001861E-01 -0.37369077659E-01  0.12896045342E+00  0.20979691881E-01 0.  0.
         14    1    1    2    0    0 -0.17735720243E-01  0.22804187512E-02 -0.13864258382E-01  0.22626836781E-01  0.00000000000E+00 0. -1.
     999901    1    3    3    0    0  0.13725682526E+00  0.20278583110E-01  0.51233336041E-01  0.89234270980E+00  0.88000000000E+00 0. -1.
        -11    1    4    4    0    0 -0.25364526793E-01 -0.11808971313E-01 -0.29686961731E-02  0.28140456657E-01  0.51100000000E-03 0. -1.
         11    1    4    4    0    0 -0.94156578224E-01 -0.10750030548E-01 -0.34400381486E-01  0.10081999676E+00  0.51100000000E-03 0.  1.
</event>
<event>
 8    1  0.1086235E+005  0.1043930E+01  0.7957747E-01            NaN
         13   -1    0    0    0    0  0.00000000000E+00  0.00000000000E+00  0.74505805969E-08  0.10566000000E+00  0.10566000000E+00 0.  1.
     999900   -1    0    0    0    0 -0.00000000000E+00 -0.00000000000E+00 -0.74505805969E-08  0.93827000000E+00  0.93827000000E+00 0.  1.
     999902    2    1    2    0    0  0.27943722830E-02  0.18605762912E-01  0.13361371031E-01  0.10208538399E+01  0.10205929910E+01 0.  0.
     999903    2    3    3    0    0 -0.88845805103E-01 -0.77688274287E-01 -0.47540360691E-01  0.12878910869E+00  0.19937491712E-01 0.  0.
         14    1    1    2    0    0 -0.27943722830E-02 -0.18605762912E-01 -0.13361371031E-01  0.23076160119E-01  0.00000000000E+00 0. -1.
     999901    1    3    3    0    0  0.91640177386E-01  0.96294037199E-01  0.60901731723E-01  0.89206473119E+00  0.88000000000E+00 0.  1.
        -11    1    4    4    0    0 -0.19332588888E-01 -0.28790873824E-01 -0.14858375977E-01  0.37731894550E-01  0.51100000000E-03 0. -1.
         11    1    4    4    0    0 -0.69513216215E-01 -0.48897400463E-01 -0.32681984715E-01  0.91057214138E-01  0.51100000000E-03 0.  1.
</event>
<event>
 8    1  0.1086235E+005  0.1043930E+01  0.7957747E-01            NaN
         13   -1    0    0    0    0  0.00000000000E+00  0.00000000000E+00  0.74505805969E-08  0.10566000000E+00  0.10566000000E+00 0. -1.
     999900   -1    0    0    0    0 -0.00000000000E+00 -0.00000000000E+00 -0.74505805969E-08  0.93827000000E+00  0.93827000000E+00 0.  1.
     999902    2    1    2    0    0 -0.38747153499E-02  0.17399388292E-01  0.16532440439E-01  0.10196179923E+01  0.10193281005E+01 0.  0.
     999903    2    3    3    0    0  0.69203805179E-02  0.12668234834E+00 -0.29003531797E-01  0.13162428498E+00  0.19683457339E-01 0.  0.
         14    1    1    2    0    0  0.38747153499E-02 -0.17399388292E-01 -0.16532440439E-01  0.24312007709E-01  0.00000000000E+00 0.  1.
     999901    1    3    3    0    0 -0.10795095868E-01 -0.10928296005E+00  0.45535972235E-01  0.88799370731E+00  0.88000000000E+00 0. -1.
        -11    1    4    4    0    0 -0.42930657168E-02  0.15659669026E-01 -0.78723297636E-02  0.18052433192E-01  0.51100000000E-03 0. -1.
         11    1    4    4    0    0  0.11213446235E-01  0.11102267932E+00 -0.21131202033E-01  0.11357185179E+00  0.51100000000E-03 0.  1.
</event>
<event>
 8    1  0.1086235E+005  0.1043930E+01  0.7957747E-01            NaN
         13   -1    0    0    0    0  0.00000000000E+00  0.00000000000E+00  0.74505805969E-08  0.10566000000E+00  0.10566000000E+00 0. -1.
     999900   -1    0    0    0    0 -0.00000000000E+00 -0.00000000000E+00 -0.74505805969E-08  0.93827000000E+00  0.93827000000E+00 0. -1.
     999902    2    1    2    0    0 -0.12446991032E-01  0.16481236275E-01  0.84036514247E-02  0.10216324644E+01  0.10213891092E+01 0.  0.
     999903    2    3    3    0    0  0.97774377118E-01 -0.31883324581E-01 -0.75662834373E-01  0.12946933206E+00  0.21472499413E-01 0.  0.
         14    1    1    2    0    0  0.12446991032E-01 -0.16481236275E-01 -0.84036514247E-02  0.22297535562E-01  0.00000000000E+00 0.  1.
     999901    1    3    3    0    0 -0.11022136815E+00  0.48364560855E-01  0.84066485797E-01  0.89216313238E+00  0.88000000000E+00 0.  1.
        -11    1    4    4    0    0  0.60218121035E-01 -0.28534072170E-01 -0.40944960351E-01  0.78212315365E-01  0.51100000000E-03 0. -1.
         11    1    4    4    0    0  0.37556256083E-01 -0.33492524111E-02 -0.34717874022E-01  0.51257016693E-01  0.51100000000E-03 0.  1.
</event>
<event>
 8    1  0.1086235E+005  0.1043930E+01  0.7957747E-01            NaN
         13   -1    0    0    0    0  0.00000000000E+00  0.00000000000E+00  0.74505805969E-08  0.10566000000E+00  0.10566000000E+00 0.  1.
     999900   -1    0    0    0    0 -0.00000000000E+00 -0.00000000000E+00 -0.74505805969E-08  0.93827000000E+00  0.93827000000E+00 0. -1.
     999902    2    1    2    0    0 -0.20733519708E-01  0.29148901693E-02 -0.12256829243E-01  0.10196688111E+01  0.10193801445E+01 0.  0.
     999903    2    3    3    0    0  0.53434963165E-02  0.10600555008E+00 -0.74365313592E-01  0.13109402034E+00  0.19741142372E-01 0.  0.
         14    1    1    2    0    0  0.20733519708E-01 -0.29148901693E-02  0.12256829243E-01  0.24261188909E-01  0.00000000000E+00 0.  1.
     999901    1    3    3    0    0 -0.26077016025E-01 -0.10309065991E+00  0.62108484349E-01  0.88857479075E+00  0.88000000000E+00 0.  1.
        -11    1    4    4    0    0  0.35988574623E-02  0.24122078471E-01 -0.27377995298E-01  0.36669363130E-01  0.51100000000E-03 0. -1.
         11    1    4    4    0    0  0.17446388542E-02  0.81883471613E-01 -0.46987318294E-01  0.94424657212E-01  0.51100000000E-03 0.  1.
</event>
<event>
 8    1  0.1086235E+005  0.1043930E+01  0.7957747E-01            NaN
         13   -1    0    0    0    0  0.00000000000E+00  0.00000000000E+00  0.74505805969E-08  0.10566000000E+00  0.10566000000E+00 0.  1.
     999900   -1    0    0    0    0 -0.00000000000E+00 -0.00000000000E+00 -0.74505805969E-08  0.93827000000E+00  0.93827000000E+00 0.  1.
     999902    2    1    2    0    0  0.12822810069E-01  0.15651175837E-01 -0.14873438003E-01  0.10188181916E+01  0.10185086669E+01 0.  0.
     999903    2    3    3    0    0  0.38766004794E-01 -0.50618329760E-01  0.10828212866E+00  0.12739686006E+00  0.20974320725E-01 0.  0.
         14    1    1    2    0    0 -0.12822810069E-01 -0.15651175837E-01  0.14873438003E-01  0.25111808401E-01  0.00000000000E+00 0. -1.
     999901    1    3    3    0    0 -0.25943194725E-01  0.66269505596E-01 -0.12315556667E+00  0.89142133154E+00  0.88000000000E+00 0.  1.
        -11    1    4    4    0    0  0.41542111617E-02 -0.15505083154E-01  0.40582316216E-01  0.43644593989E-01  0.51100000000E-03 0. -1.
         11    1    4    4    0    0  0.34611793632E-01 -0.35113246606E-01  0.67699812446E-01  0.83752266070E-01  0.51100000000E-03 0.  1.
</event>
<event>
 8    1  0.1086235E+005  0.1043930E+01  0.7957747E-01            NaN
         13   -1    0    0    0    0  0.00000000000E+00  0.00000000000E+00  0.74505805969E-08  0.10566000000E+00  0.10566000000E+00 0. -1.
     999900   -1    0    0    0    0 -0.00000000000E+00 -0.00000000000E+00 -0.74505805969E-08  0.93827000000E+00  0.93827000000E+00 0.  1.
     999902    2    1    2    0    0  0.11926763189E-01 -0.60782289324E-02 -0.18464034550E-01  0.10211240113E+01  0.10208693028E+01 0.  0.
     999903    2    3    3    0    0 -0.71606252042E-01 -0.18164377116E-01 -0.10841577931E+00  0.13252108764E+00  0.18720511174E-01 0.  0.
         14    1    1    2    0    0 -0.11926763189E-01  0.60782289324E-02  0.18464034550E-01  0.22805988665E-01  0.00000000000E+00 0. -1.
     999901    1    3    3    0    0  0.83533015232E-01  0.12086148184E-01  0.89951744761E-01  0.88860292369E+00  0.88000000000E+00 0. -1.
        -11    1    4    4    0    0 -0.47652468596E-01 -0.36480465487E-02 -0.61648836836E-01  0.78005808829E-01  0.51100000000E-03 0.  1.
         11    1    4    4    0    0 -0.23953783447E-01 -0.14516330567E-01 -0.46766942475E-01  0.54515278812E-01  0.51100000000E-03 0. -1.
</event>
<event>
 8    1  0.1086235E+005  0.1043930E+01  0.7957747E-01            NaN
         13   -1    0    0    0    0  0.00000000000E+00  0.00000000000E+00  0.74505805969E-08  0.10566000000E+00  0.10566000000E+00 0. -1.
     999900   -1    0    0    0    0 -0.00000000000E+00 -0.00000000000E+00 -0.74505805969E-08  0.93827000000E+00  0.93827000000E+00 0.  1.
     999902    2    1    2    0    0 -0.11003269867E-01 -0.18723508933E-01 -0.95916260776E-02  0.10201888748E+01  0.10199125939E+01 0.  0.
     999903    2    3    3    0    0  0.12706990788E+00 -0.41508056120E-02 -0.13502452820E-01  0.12929501993E+00  0.19258641439E-01 0.  0.
         14    1    1    2    0    0  0.11003269867E-01  0.18723508933E-01  0.95916260776E-02  0.23741125191E-01  0.00000000000E+00 0.  1.
     999901    1    3    3    0    0 -0.13807317775E+00 -0.14572703321E-01  0.39108267423E-02  0.89089385488E+00  0.88000000000E+00 0.  1.
        -11    1    4    4    0    0  0.40871942011E-01  0.60744974958E-02  0.73914575733E-03  0.41330649898E-01  0.51100000000E-03 0.  1.
         11    1    4    4    0    0  0.86197965871E-01 -0.10225303108E-01 -0.14241598577E-01  0.87964370031E-01  0.51100000000E-03 0. -1.
</event>
<event>
 8    1  0.1086235E+005  0.1043930E+01  0.7957747E-01            NaN
         13   -1    0    0    0    0  0.00000000000E+00  0.00000000000E+00  0.74505805969E-08  0.10566000000E+00  0.10566000000E+00 0. -1.
     999900   -1    0    0    0    0 -0.00000000000E+00 -0.00000000000E+00 -0.74505805969E-08  0.93827000000E+00  0.93827000000E+00 0. -1.
     999902    2    1    2    0    0  0.91256820992E-02 -0.33139120808E-02 -0.22189006348E-01  0.10197099238E+01  0.10194222465E+01 0.  0.
     999903    2    3    3    0    0  0.12197710231E+00 -0.39647136166E-01 -0.23710190417E-01  0.13175842728E+00  0.18649427261E-01 0.  0.
         14    1    1    2    0    0 -0.91256820992E-02  0.33139120808E-02  0.22189006348E-01  0.24220076171E-01  0.00000000000E+00 0. -1.
     999901    1    3    3    0    0 -0.11285142021E+00  0.36333224085E-01  0.15211840698E-02  0.88795149654E+00  0.88000000000E+00 0.  1.
        -11    1    4    4    0    0  0.36908233023E-02 -0.34560421894E-02  0.19170786295E-02  0.54316402436E-02  0.51100000000E-03 0. -1.
         11    1    4    4    0    0  0.11828627901E+00 -0.36191093976E-01 -0.25627269047E-01  0.12632678704E+00  0.51100000000E-03 0.  1.
</event>
<event>
 8    1  0.1086235E+005  0.1043930E+01  0.7957747E-01            NaN
         13   -1    0    0    0    0  0.00000000000E+00  0.00000000000E+00  0.74505805969E-08  0.10566000000E+00  0.10566000000E+00 0. -1.
     999900   -1    0    0    0    0 -0.00000000000E+00 -0.00000000000E+00 -0.74505805969E-08  0.93827000000E+00  0.93827000000E+00 0.  1.
     999902    2    1    2    0    0 -0.65002297950E-02  0.46138152623E-02 -0.22225160912E-01  0.10203186033E+01  0.10200453686E+01 0.  0.
     999903    2    3    3    0    0 -0.52852977757E-01  0.11654182647E+00 -0.25951860982E-01  0.13201102970E+00  0.19441664013E-01 0.  0.
         14    1    1    2    0    0  0.65002297950E-02 -0.46138152623E-02  0.22225160912E-01  0.23611396744E-01  0.00000000000E+00 0. -1.
     999901    1    3    3    0    0  0.46352747962E-01 -0.11192801121E+00  0.37267000708E-02  0.88830757355E+00  0.88000000000E+00 0. -1.
        -11    1    4    4    0    0 -0.11844735554E-01  0.21467503542E-01 -0.12720448510E-01  0.27626480051E-01  0.51100000000E-03 0.  1.
         11    1    4    4    0    0 -0.41008242203E-01  0.95074322930E-01 -0.13231412472E-01  0.10438454965E+00  0.51100000000E-03 0. -1.
</event>
<event>
 8    1  0.1086235E+005  0.1043930E+01  0.7957747E-01            NaN
         13   -1    0    0    0    0  0.00000000000E+00  0.00000000000E+00  0.74505805969E-08  0.10566000000E+00  0.10566000000E+00 0.  1.
     999900   -1    0    0    0    0 -0.00000000000E+00 -0.00000000000E+00 -0.74505805969E-08  0.93827000000E+00  0.93827000000E+00 0.  1.
     999902    2    1    2    0    0 -0.21120173203E-01 -0.96838246068E-02  0.39198814656E-02  0.10203672403E+01  0.10200951433E+01 0.  0.
     999903    2    3    3    0    0 -0.86127455455E-01 -0.66097747746E-01 -0.73662969524E-01  0.13277072370E+00  0.20371086185E-01 0.  0.
         14    1    1    2    0    0  0.21120173203E-01  0.96838246068E-02 -0.39198814656E-02  0.23562759725E-01  0.00000000000E+00 0. -1.
     999901    1    3    3    0    0  0.65007282252E-01  0.56413923140E-01  0.77582850989E-01  0.88759651658E+00  0.88000000000E+00 0. -1.
        -11    1    4    4    0    0 -0.68392629581E-01 -0.41710014793E-01 -0.56962153421E-01  0.98296618245E-01  0.51100000000E-03 0.  1.
         11    1    4    4    0    0 -0.17734825874E-01 -0.24387732954E-01 -0.16700816103E-01  0.34474105455E-01  0.51100000000E-03 0. -1.
</event>
<event>
 8    1  0.1552856E+005  0.1043930E+01  0.7957747E-01            NaN
         13   -1    0    0    0    0  0.00000000000E+00  0.00000000000E+00  0.74505805969E-08  0.10566000000E+00  0.10566000000E+00 0.  1.
     999900   -1    0    0    0    0 -0.00000000000E+00 -0.00000000000E+00 -0.74505805969E-08  0.93827000000E+00  0.93827000000E+00 0.  1.
     999902    2    1    2    0    0 -0.90348188682E-04  0.50215841666E-02 -0.22655081582E-01  0.10207248887E+01  0.10204610826E+01 0.  0.
     999903    2    3    3    0    0  0.44774888574E-01 -0.66661265397E-01 -0.10400551744E+00  0.13293594201E+00  0.20156936000E-01 0.  0.
         14    1    1    2    0    0  0.90348188682E-04 -0.50215841666E-02  0.22655081582E-01  0.23205111330E-01  0.00000000000E+00 0.  1.
     999901    1    3    3    0    0 -0.44865236763E-01  0.71682849564E-01  0.81350435862E-01  0.88778894666E+00  0.88000000000E+00 0. -1.
        -11    1    4    4    0    0  0.11711854708E-01 -0.35386596570E-01 -0.47275681227E-01  0.60204899418E-01  0.51100000000E-03 0.  1.
         11    1    4    4    0    0  0.33063033866E-01 -0.31274668827E-01 -0.56729836217E-01  0.72731042595E-01  0.51100000000E-03 0. -1.
</event>
<event>
 8    1  0.1086235E+005  0.1043930E+01  0.7957747E-01            NaN
         13   -1    0    0    0    0  0.00000000000E+00  0.00000000000E+00  0.74505805969E-08  0.10566000000E+00  0.10566000000E+00 0.  1.
     999900   -1    0    0    0    0 -0.00000000000E+00 -0.00000000000E+00 -0.74505805969E-08  0.93827000000E+00  0.93827000000E+00 0.  1.
     999902    2    1    2    0    0 -0.20209408468E-01  0.13910001970E-02  0.86996652714E-02  0.10218837022E+01  0.10216458591E+01 0.  0.
     999903    2    3    3    0    0 -0.33699182223E-01  0.52967748705E-01 -0.11410498256E+00  0.13175836464E+00  0.19977545428E-01 0.  0.
         14    1    1    2    0    0  0.20209408468E-01 -0.13910001970E-02 -0.86996652714E-02  0.22046297830E-01  0.00000000000E+00 0. -1.
     999901    1    3    3    0    0  0.13489773754E-01 -0.51576748508E-01  0.12280464784E+00  0.89012533753E+00  0.88000000000E+00 0. -1.
        -11    1    4    4    0    0 -0.32835993596E-02  0.96062077394E-02 -0.35846241078E-01  0.37259567527E-01  0.51100000000E-03 0. -1.
         11    1    4    4    0    0 -0.30415582863E-01  0.43361540966E-01 -0.78258741486E-01  0.94498797113E-01  0.51100000000E-03 0.  1.
</event>
<event>
 8    1  0.1086235E+005  0.1043930E+01  0.7957747E-01            NaN
         13   -1    0    0    0    0  0.00000000000E+00  0.00000000000E+00  0.74505805969E-08  0.10566000000E+00  0.10566000000E+00 0.  1.
     999900   -1    0    0    0    0 -0.00000000000E+00 -0.00000000000E+00 -0.74505805969E-08  0.93827000000E+00  0.93827000000E+00 0.  1.
     999902    2    1    2    0    0 -0.75083184476E-02  0.11843522703E-01 -0.18744910683E-01  0.10205202680E+01  0.10202517345E+01 0.  0.
     999903    2    3    3    0    0 -0.66963449603E-01  0.86390079823E-01 -0.74173283557E-01  0.13363560452E+00  0.20234854245E-01 0.  0.
         14    1    1    2    0    0  0.75083184476E-02 -0.11843522703E-01  0.18744910683E-01  0.23409732002E-01  0.00000000000E+00 0. -1.
     999901    1    3    3    0    0  0.59455131156E-01 -0.74546557120E-01  0.55428372874E-01  0.88688466348E+00  0.88000000000E+00 0.  1.
        -11    1    4    4    0    0 -0.53981709203E-01  0.75529517383E-01 -0.69787795878E-01  0.11614357709E+00  0.51100000000E-03 0.  1.
         11    1    4    4    0    0 -0.12981740400E-01  0.10860562440E-01 -0.43854876784E-02  0.17492027427E-01  0.51100000000E-03 0. -1.
</event>
<event>
 8    1  0.1086235E+005  0.1043930E+01  0.7957747E-01            NaN
         13   -1    0    0    0    0  0.00000000000E+00  0.00000000000E+00  0.74505805969E-08  0.10566000000E+00  0.10566000000E+00 0.  1.
     999900   -1    0    0    0    0 -0.00000000000E+00 -0.00000000000E+00 -0.74505805969E-08  0.93827000000E+00  0.93827000000E+00 0. -1.
     999902    2    1    2    0    0 -0.22946672999E-01  0.44182874469E-02  0.18231080041E-02  0.10204908279E+01  0.10202216108E+01 0.  0.
     999903    2    3    3    0    0  0.98492327865E-01  0.46297755217E-01  0.66031878200E-01  0.12884959573E+00  0.19944638222E-01 0.  0.
         14    1    1    2    0    0  0.22946672999E-01 -0.44182874469E-02 -0.18231080041E-02  0.23439172095E-01  0.00000000000E+00 0.  1.
     999901    1    3    3    0    0 -0.12143900086E+00 -0.41879467770E-01 -0.64208770196E-01  0.89164123218E+00  0.88000000000E+00 0. -1.
        -11    1    4    4    0    0  0.88599007952E-01  0.43700331209E-01  0.52487448774E-01  0.11186910457E+00  0.51100000000E-03 0.  1.
         11    1    4    4    0    0  0.98933199135E-02  0.25974240079E-02  0.13544429426E-01  0.16980491155E-01  0.51100000000E-03 0. -1.
</event>
<event>
 8    1  0.1086235E+005  0.1043930E+01  0.7957747E-01            NaN
         13   -1    0    0    0    0  0.00000000000E+00  0.00000000000E+00  0.74505805969E-08  0.10566000000E+00  0.10566000000E+00 0.  1.
     999900   -1    0    0    0    0 -0.00000000000E+00 -0.00000000000E+00 -0.74505805969E-08  0.93827000000E+00  0.93827000000E+00 0.  1.
     999902    2    1    2    0    0 -0.98374217390E-02 -0.21492377961E-01  0.20794414658E-02  0.10202019311E+01  0.10199259576E+01 0.  0.
     999903    2    3    3    0    0 -0.90531768502E-01  0.88719000296E-01 -0.17843096448E-01  0.12944100189E+00  0.19223286844E-01 0.  0.
         14    1    1    2    0    0  0.98374217390E-02  0.21492377961E-01 -0.20794414658E-02  0.23728068899E-01  0.00000000000E+00 0.  1.
     999901    1    3    3    0    0  0.80694346763E-01 -0.11021137826E+00  0.19922537914E-01  0.89076092921E+00  0.88000000000E+00 0.  1.
        -11    1    4    4    0    0 -0.49882252441E-01  0.39100525346E-01 -0.15512352444E-01  0.65253232796E-01  0.51100000000E-03 0.  1.
         11    1    4    4    0    0 -0.40649516061E-01  0.49618474950E-01 -0.23307440041E-02  0.64187769091E-01  0.51100000000E-03 0. -1.
</event>
<event>
 8    1  0.1086235E+005  0.1043930E+01  0.7957747E-01            NaN
         13   -1    0    0    0    0  0.00000000000E+00  0.00000000000E+00  0.74505805969E-08  0.10566000000E+00  0.10566000000E+00 0. -1.
     999900   -1    0    0    0    0 -0.00000000000E+00 -0.00000000000E+00 -0.74505805969E-08  0.93827000000E+00  0.93827000000E+00 0. -1.
     999902    2    1    2    0    0 -0.52946982784E-02 -0.16797110989E-02 -0.25182749894E-01  0.10181418990E+01  0.10178152585E+01 0.  0.
     999903    2    3    3    0    0  0.28069518932E-01  0.11048633114E+00  0.52441976934E-01  0.12700779564E+00  0.19639041371E-01 0.  0.
         14    1    1    2    0    0  0.52946982784E-02  0.16797110989E-02  0.25182749894E-01  0.25788100967E-01  0.00000000000E+00 0. -1.
     999901    1    3    3    0    0 -0.33364217211E-01 -0.11216604224E+00 -0.77624726828E-01  0.89113410340E+00  0.88000000000E+00 0. -1.
        -11    1    4    4    0    0  0.25693422364E-01  0.67081016271E-01  0.37530654866E-01  0.81048293458E-01  0.51100000000E-03 0.  1.
         11    1    4    4    0    0  0.23760965685E-02  0.43405314868E-01  0.14911322068E-01  0.45959502179E-01  0.51100000000E-03 0. -1.
</event>
<event>
 8    1  0.1086235E+005  0.1043930E+01  0.7957747E-01            NaN
         13   -1    0    0    0    0  0.00000000000E+00  0.00000000000E+00  0.74505805969E-08  0.10566000000E+00  0.10566000000E+00 0. -1.
     999900   -1    0    0    0    0 -0.00000000000E+00 -0.00000000000E+00 -0.74505805969E-08  0.93827000000E+00  0.93827000000E+00 0. -1.
     999902    2    1    2    0    0 -0.68664206608E-02  0.70678794110E-02 -0.21372699455E-01  0.10203950274E+01  0.10201235793E+01 0.  0.
     999903    2    3    3    0    0 -0.47072109858E-01 -0.86399619146E-02 -0.12273443527E+00  0.13352556961E+00  0.21792284651E-01 0.  0.
         14    1    1    2    0    0  0.68664206608E-02 -0.70678794110E-02  0.21372699455E-01  0.23534972574E-01  0.00000000000E+00 0. -1.
     999901    1    3    3    0    0  0.40205689197E-01  0.15707841326E-01  0.10136173581E+00  0.88686945782E+00  0.88000000000E+00 0.  1.
        -11    1    4    4    0    0 -0.24597897315E-01 -0.83686784059E-02 -0.90977299462E-01  0.94616179742E-01  0.51100000000E-03 0.  1.
         11    1    4    4    0    0 -0.22474212543E-01 -0.27128350872E-03 -0.31757135806E-01  0.38909389866E-01  0.51100000000E-03 0. -1.
</event>
<event>
 8    1  0.1086235E+005  0.1043930E+01  0.7957747E-01            NaN
         13   -1    0    0    0    0  0.00000000000E+00  0.00000000000E+00  0.74505805969E-08  0.10566000000E+00  0.10566000000E+00 0.  1.
     999900   -1    0    0    0    0 -0.00000000000E+00 -0.00000000000E+00 -0.74505805969E-08  0.93827000000E+00  0.93827000000E+00 0. -1.
     999902    2    1    2    0    0  0.19243202080E-01  0.92909941679E-02 -0.85113698083E-02  0.10209285475E+01  0.10206694041E+01 0.  0.
     999903    2    3    3    0    0 -0.83360504401E-01 -0.36060779710E-01 -0.91670111471E-01  0.12991806484E+00  0.15031324217E-01 0.  0.
         14    1    1    2    0    0 -0.19243202080E-01 -0.92909941679E-02  0.85113698083E-02  0.23001452453E-01  0.00000000000E+00 0. -1.
     999901    1    3    3    0    0  0.10260370648E+00  0.45351773878E-01  0.83158741662E-01  0.89101048271E+00  0.88000000000E+00 0.  1.
        -11    1    4    4    0    0 -0.58140837111E-01 -0.31888639790E-01 -0.62439634558E-01  0.91083540622E-01  0.51100000000E-03 0. -1.
         11    1    4    4    0    0 -0.25219667290E-01 -0.41721399205E-02 -0.29230476913E-01  0.38834524219E-01  0.51100000000E-03 0.  1.
</event>
<event>
 8    1  0.1086235E+005  0.1043930E+01  0.7957747E-01            NaN
         13   -1    0    0    0    0  0.00000000000E+00  0.00000000000E+00  0.74505805969E-08  0.10566000000E+00  0.10566000000E+00 0.  1.
     999900   -1    0    0    0    0 -0.00000000000E+00 -0.00000000000E+00 -0.74505805969E-08  0.93827000000E+00  0.93827000000E+00 0. -1.
     999902    2    1    2    0    0  0.36689987317E-02  0.22939667810E-01 -0.39977302363E-02  0.10203573091E+01  0.10200849800E+01 0.  0.
     999903    2    3    3    0    0  0.19075709582E-01 -0.82669312243E-01 -0.95395438606E-01  0.12920964201E+00  0.19918433624E-01 0.  0.
         14    1    1    2    0    0 -0.36689987317E-02 -0.22939667810E-01  0.39977302363E-02  0.23572690936E-01  0.00000000000E+00 0.  1.
     999901    1    3    3    0    0 -0.15406710850E-01  0.10560898005E+00  0.91397708369E-01  0.89114766706E+00  0.88000000000E+00 0.  1.
        -11    1    4    4    0    0  0.71466667627E-02 -0.67233225566E-01 -0.72879054133E-01  0.99413274356E-01  0.51100000000E-03 0. -1.
         11    1    4    4    0    0  0.11929042819E-01 -0.15436086677E-01 -0.22516384472E-01  0.29796367651E-01  0.51100000000E-03 0.  1.
</event>
<event>
 8    1  0.1086235E+005  0.1043930E+01  0.7957747E-01            NaN
         13   -1    0    0    0    0  0.00000000000E+00  0.00000000000E+00  0.74505805969E-08  0.10566000000E+00  0.10566000000E+00 0. -1.
     999900   -1    0    0    0    0 -0.00000000000E+00 -0.00000000000E+00 -0.74505805969E-08  0.93827000000E+00  0.93827000000E+00 0.  1.
     999902    2    1    2    0    0 -0.91882266195E-02 -0.16906429767E-01 -0.12932031842E-01  0.10207462056E+01  0.10204828896E+01 0.  0.
     999903    2    3    3    0    0 -0.11913715712E-01  0.48663497577E-01 -0.12066795438E+00  0.13175021422E+00  0.16949664121E-01 0.  0.
         14    1    1    2    0    0  0.91882266195E-02  0.16906429767E-01  0.12932031842E-01  0.23183794414E-01  0.00000000000E+00 0. -1.
     999901    1    3    3    0    0  0.27254890929E-02 -0.65569927344E-01  0.10773592254E+00  0.88899599137E+00  0.88000000000E+00 0. -1.
        -11    1    4    4    0    0 -0.77017159772E-02  0.59756759282E-02 -0.27486313189E-01  0.29168196131E-01  0.51100000000E-03 0.  1.
         11    1    4    4    0    0 -0.42119997353E-02  0.42687821649E-01 -0.93181641191E-01  0.10258201809E+00  0.51100000000E-03 0. -1.
</event>
<event>
 8    1  0.1086235E+005  0.1043930E+01  0.7957747E-01            NaN
         13   -1    0    0    0    0  0.00000000000E+00  0.00000000000E+00  0.74505805969E-08  0.10566000000E+00  0.10566000000E+00 0.  1.
     999900   -1    0    0    0    0 -0.00000000000E+00 -0.00000000000E+00 -0.74505805969E-08  0.93827000000E+00  0.93827000000E+00 0. -1.
     999902    2    1    2    0    0 -0.10283206725E-01  0.17651529353E-01 -0.67377569927E-02  0.10224191144E+01  0.10221928034E+01 0.  0.
     999903    2    3    3    0    0 -0.72066530140E-02 -0.12616448714E+00 -0.25702970508E-01  0.13053784928E+00  0.20250277521E-01 0.  0.
         14    1    1    2    0    0  0.10283206725E-01 -0.17651529353E-01  0.67377569927E-02  0.21510885578E-01  0.00000000000E+00 0. -1.
     999901    1    3    3    0    0 -0.30765537106E-02  0.14381601649E+00  0.18965213515E-01  0.89188126514E+00  0.88000000000E+00 0.  1.
        -11    1    4    4    0    0 -0.10132926743E-01 -0.77081464547E-01 -0.75131363428E-02  0.78108493263E-01  0.51100000000E-03 0. -1.
         11    1    4    4    0    0  0.29262737285E-02 -0.49083022593E-01 -0.18189834165E-01  0.52429356021E-01  0.51100000000E-03 0.  1.
</event>
<event>
 8    1  0.1086235E+005  0.1043930E+01  0.7957747E-01            NaN
         13   -1    0    0    0    0  0.00000000000E+00  0.00000000000E+00  0.74505805969E-08  0.10566000000E+00  0.10566000000E+00 0. -1.
     999900   -1    0    0    0    0 -0.00000000000E+00 -0.00000000000E+00 -0.74505805969E-08  0.93827000000E+00  0.93827000000E+00 0.  1.
     999902    2    1    2    0    0  0.23037007611E-01 -0.40673223953E-02 -0.60299501884E-02  0.10197720379E+01  0.10194858519E+01 0.  0.
     999903    2    3    3    0    0 -0.61877624499E-01 -0.11133733221E+00  0.46445243141E-02  0.12913670620E+00  0.20733434961E-01 0.  0.
         14    1    1    2    0    0 -0.23037007611E-01  0.40673223953E-02  0.60299501884E-02  0.24157962050E-01  0.00000000000E+00 0. -1.
     999901    1    3    3    0    0  0.84914632110E-01  0.10727000981E+00 -0.10674474502E-01  0.89063533175E+00  0.88000000000E+00 0. -1.
        -11    1    4    4    0    0 -0.50643237266E-01 -0.78774434514E-01  0.10337568687E-01  0.94219294526E-01  0.51100000000E-03 0.  1.
         11    1    4    4    0    0 -0.11234387234E-01 -0.32562897696E-01 -0.56930443727E-02  0.34917411676E-01  0.51100000000E-03 0. -1.
</event>
<event>
 8    1  0.1086235E+005  0.1043930E+01  0.7957747E-01            NaN
         13   -1    0    0    0    0  0.00000000000E+00  0.00000000000E+00  0.74505805969E-08  0.10566000000E+00  0.10566000000E+00 0.  1.
     999900   -1    0    0    0    0 -0.00000000000E+00 -0.00000000000E+00 -0.74505805969E-08  0.93827000000E+00  0.93827000000E+00 0.  1.
     999902    2    1    2    0    0  0.15968335273E-01  0.17055383303E-02 -0.17505934769E-01  0.10201738567E+01  0.10198972221E+01 0.  0.
     999903    2    3    3    0    0  0.77595840662E-01  0.76379391265E-02  0.10197226371E+00  0.12994457010E+00  0.20193962718E-01 0.  0.
         14    1    1    2    0    0 -0.15968335273E-01 -0.17055383303E-02  0.17505934769E-01  0.23756143301E-01  0.00000000000E+00 0.  1.
     999901    1    3    3    0    0 -0.61627505389E-01 -0.59324007962E-02 -0.11947819848E+00  0.89022928660E+00  0.88000000000E+00 0.  1.
        -11    1    4    4    0    0  0.14672244941E-01  0.73082728145E-02  0.31164398389E-01  0.35215997374E-01  0.51100000000E-03 0.  1.
         11    1    4    4    0    0  0.62923595721E-01  0.32966631210E-03  0.70807865326E-01  0.94728572729E-01  0.51100000000E-03 0. -1.
</event>
<event>
 8    1  0.1086235E+005  0.1043930E+01  0.7957747E-01            NaN
         13   -1    0    0    0    0  0.00000000000E+00  0.00000000000E+00  0.74505805969E-08  0.10566000000E+00  0.10566000000E+00 0.  1.
     999900   -1    0    0    0    0 -0.00000000000E+00 -0.00000000000E+00 -0.74505805969E-08  0.93827000000E+00  0.93827000000E+00 0.  1.
     999902    2    1    2    0    0  0.49965400863E-02 -0.16645443605E-01  0.16882516203E-01  0.10197007706E+01  0.10194128731E+01 0.  0.
     999903    2    3    3    0    0 -0.71899219181E-01  0.70480476798E-01  0.80230250229E-01  0.12980368707E+00  0.16586404011E-01 0.  0.
         14    1    1    2    0    0 -0.49965400863E-02  0.16645443605E-01 -0.16882516203E-01  0.24229229434E-01  0.00000000000E+00 0. -1.
     999901    1    3    3    0    0  0.76895759267E-01 -0.87125920403E-01 -0.63347734026E-01  0.88989708349E+00  0.88000000000E+00 0.  1.
        -11    1    4    4    0    0 -0.59318734008E-01  0.64928753991E-01  0.72777095555E-01  0.11415437818E+00  0.51100000000E-03 0.  1.
         11    1    4    4    0    0 -0.12580485173E-01  0.55517228069E-02  0.74531546734E-02  0.15649308895E-01  0.51100000000E-03 0. -1.
</event>
<event>
 8    1  0.1086235E+005  0.1043930E+01  0.7957747E-01            NaN
         13   -1    0    0    0    0  0.00000000000E+00  0.00000000000E+00  0.74505805969E-08  0.10566000000E+00  0.10566000000E+00 0.  1.
     999900   -1    0    0    0    0 -0.00000000000E+00 -0.00000000000E+00 -0.74505805969E-08  0.93827000000E+00  0.93827000000E+00 0.  1.
     999902    2    1    2    0    0  0.14403128300E-01  0.18089614536E-01  0.95452487880E-02  0.10189140844E+01  0.10186069484E+01 0.  0.
     999903    2    3    3    0    0 -0.12496782649E+00 -0.31186574403E-02  0.20718716634E-01  0.12762350315E+00  0.15225296548E-01 0.  0.
         14    1    1    2    0    0 -0.14403128300E-01 -0.18089614536E-01 -0.95452487880E-02  0.25015915600E-01  0.00000000000E+00 0. -1.
     999901    1    3    3    0    0  0.13937095479E+00  0.21208271976E-01 -0.11173467846E-01  0.89129058125E+00  0.88000000000E+00 0. -1.
        -11    1    4    4    0    0 -0.11226650611E+00 -0.71622030093E-02  0.16979262408E-01  0.11377004008E+00  0.51100000000E-03 0.  1.
         11    1    4    4    0    0 -0.12701320379E-01  0.40435455691E-02  0.37394542263E-02  0.13853463070E-01  0.51100000000E-03 0. -1.
</event>
<event>
 8    1  0.1086235E+005  0.1043930E+01  0.7957747E-01            NaN
         13   -1    0    0    0    0  0.00000000000E+00  0.00000000000E+00  0.74505805969E-08  0.10566000000E+00  0.10566000000E+00 0. -1.
     999900   -1    0    0    0    0 -0.00000000000E+00 -0.00000000000E+00 -0.74505805969E-08  0.93827000000E+00  0.93827000000E+00 0.  1.
     999902    2    1    2    0    0 -0.23098846603E-02 -0.99586257801E-02  0.20907865950E-01  0.10206566536E+01  0.10203912759E+01 0.  0.
     999903    2    3    3    0    0  0.80048069363E-01 -0.89732527660E-01 -0.45866754561E-01  0.13070971250E+00  0.22839654955E-01 0.  0.
         14    1    1    2    0    0  0.23098846603E-02  0.99586257801E-02 -0.20907865950E-01  0.23273346411E-01  0.00000000000E+00 0.  1.
     999901    1    3    3    0    0 -0.82357954023E-01  0.79773901880E-01  0.66774620511E-01  0.88994694109E+00  0.88000000000E+00 0. -1.
        -11    1    4    4    0    0  0.39736584455E-01 -0.61296676892E-01 -0.26476803521E-01  0.77701743790E-01  0.51100000000E-03 0.  1.
         11    1    4    4    0    0  0.40311484907E-01 -0.28435850768E-01 -0.19389951039E-01  0.53007968709E-01  0.51100000000E-03 0. -1.
</event>
<event>
 8    1  0.1086235E+005  0.1043930E+01  0.7957747E-01            NaN
         13   -1    0    0    0    0  0.00000000000E+00  0.00000000000E+00  0.74505805969E-08  0.10566000000E+00  0.10566000000E+00 0. -1.
     999900   -1    0    0    0    0 -0.00000000000E+00 -0.00000000000E+00 -0.74505805969E-08  0.93827000000E+00  0.93827000000E+00 0.  1.
     999902    2    1    2    0    0  0.23634942295E-01 -0.90672148673E-02  0.81654608230E-02  0.10173311347E+01  0.10169833519E+01 0.  0.
     999903    2    3    3    0    0 -0.18190031836E-01  0.11090314200E+00 -0.53615396028E-01  0.12606288709E+00  0.19668671733E-01 0.  0.
         14    1    1    2    0    0 -0.23634942295E-01  0.90672148673E-02 -0.81654608230E-02  0.26598865262E-01  0.00000000000E+00 0. -1.
     999901    1    3    3    0    0  0.41824974131E-01 -0.11997035687E+00  0.61780856851E-01  0.89126824765E+00  0.88000000000E+00 0. -1.
        -11    1    4    4    0    0  0.57400747319E-03  0.50020860839E-01 -0.18662705571E-01  0.53394510054E-01  0.51100000000E-03 0. -1.
         11    1    4    4    0    0 -0.18764039309E-01  0.60882281160E-01 -0.34952690457E-01  0.72668377039E-01  0.51100000000E-03 0.  1.
</event>
<event>
 8    1  0.1086235E+005  0.1043930E+01  0.7957747E-01            NaN
         13   -1    0    0    0    0  0.00000000000E+00  0.00000000000E+00  0.74505805969E-08  0.10566000000E+00  0.10566000000E+00 0.  1.
     999900   -1    0    0    0    0 -0.00000000000E+00 -0.00000000000E+00 -0.74505805969E-08  0.93827000000E+00  0.93827000000E+00 0.  1.
     999902    2    1    2    0    0  0.11723434747E-01 -0.18805334003E-01 -0.25569280202E-02  0.10216226606E+01  0.10213790889E+01 0.  0.
     999903    2    3    3    0    0  0.68355277228E-01  0.71626512273E-01 -0.84206438488E-01  0.13142508313E+00  0.19468615996E-01 0.  0.
         14    1    1    2    0    0 -0.11723434747E-01  0.18805334003E-01  0.25569280202E-02  0.22307339379E-01  0.00000000000E+00 0. -1.
     999901    1    3    3    0    0 -0.56631842481E-01 -0.90431846276E-01  0.81649510467E-01  0.89019757749E+00  0.88000000000E+00 0. -1.
        -11    1    4    4    0    0  0.24260108696E-01  0.30742703316E-01 -0.44913287641E-01  0.59591368577E-01  0.51100000000E-03 0.  1.
         11    1    4    4    0    0  0.44095168533E-01  0.40883808956E-01 -0.39293150847E-01  0.71833714558E-01  0.51100000000E-03 0. -1.
</event>
<event>
 8    1  0.1086235E+005  0.1043930E+01  0.7957747E-01            NaN
         13   -1    0    0    0    0  0.00000000000E+00  0.00000000000E+00  0.74505805969E-08  0.10566000000E+00  0.10566000000E+00 0. -1.
     999900   -1    0    0    0    0 -0.00000000000E+00 -0.00000000000E+00 -0.74505805969E-08  0.93827000000E+00  0.93827000000E+00 0.  1.
     999902    2    1    2    0    0 -0.81535666648E-02  0.19594951632E-01  0.89449947111E-02  0.10208983759E+01  0.10206385443E+01 0.  0.
     999903    2    3    3    0    0  0.37190972504E-02  0.17611084513E-01  0.12981462386E+00  0.13255476943E+00  0.19873307452E-01 0.  0.
         14    1    1    2    0    0  0.81535666648E-02 -0.19594951632E-01 -0.89449947111E-02  0.23031624111E-01  0.00000000000E+00 0.  1.
     999901    1    3    3    0    0 -0.11872663915E-01  0.19838671191E-02 -0.12086962915E+00  0.88834360645E+00  0.88000000000E+00 0.  1.
        -11    1    4    4    0    0 -0.34391003415E-02 -0.16304922734E-02  0.49762735671E-01  0.49910689222E-01  0.51100000000E-03 0.  1.
         11    1    4    4    0    0  0.71581975920E-02  0.19241576786E-01  0.80051888193E-01  0.82644080212E-01  0.51100000000E-03 0. -1.
</event>
<event>
 8    1  0.1086235E+005  0.1043930E+01  0.7957747E-01            NaN
         13   -1    0    0    0    0  0.00000000000E+00  0.00000000000E+00  0.74505805969E-08  0.10566000000E+00  0.10566000000E+00 0. -1.
     999900   -1    0    0    0    0 -0.00000000000E+00 -0.00000000000E+00 -0.74505805969E-08  0.93827000000E+00  0.93827000000E+00 0. -1.
     999902    2    1    2    0    0  0.14222895388E-03 -0.73207262407E-02  0.22118795474E-01  0.10206307645E+01  0.10203647892E+01 0.  0.
     999903    2    3    3    0    0 -0.84514969204E-01  0.79687538958E-01  0.58554375721E-01  0.13154987340E+00  0.19592610593E-01 0.  0.
         14    1    1    2    0    0 -0.14222895388E-03  0.73207262407E-02 -0.22118795474E-01  0.23299235502E-01  0.00000000000E+00 0.  1.
     999901    1    3    3    0    0  0.84657198158E-01 -0.87008265198E-01 -0.36435580247E-01  0.88908089110E+00  0.88000000000E+00 0. -1.
        -11    1    4    4    0    0 -0.65773466249E-01  0.56114669548E-01  0.34840913430E-01  0.93215639088E-01  0.51100000000E-03 0.  1.
         11    1    4    4    0    0 -0.18741502955E-01  0.23572869410E-01  0.23713462291E-01  0.38334234309E-01  0.51100000000E-03 0. -1.
</event>
<event>
 8    1  0.1086235E+005  0.1043930E+01  0.7957747E-01            NaN
         13   -1    0    0    0    0  0.00000000000E+00  0.00000000000E+00  0.74505805969E-08  0.10566000000E+00  0.10566000000E+00 0. -1.
     999900   -1    0    0    0    0 -0.00000000000E+00 -0.00000000000E+00 -0.74505805969E-08  0.93827000000E+00  0.93827000000E+00 0.  1.
     999902    2    1    2    0    0  0.12646569973E-01  0.19516747829E-01  0.17877192999E-02  0.10206054396E+01  0.10203388791E+01 0.  0.
     999903    2    3    3    0    0  0.89562645181E-01  0.91535885491E-01  0.32049139978E-01  0.13380298561E+00  0.21812974101E-01 0.  0.
         14    1    1    2    0    0 -0.12646569973E-01 -0.19516747829E-01 -0.17877192999E-02  0.23324560408E-01  0.00000000000E+00 0.  1.
     999901    1    3    3    0    0 -0.76916075208E-01 -0.72019137661E-01 -0.30261420679E-01  0.88680245399E+00  0.88000000000E+00 0.  1.
        -11    1    4    4    0    0  0.51623885076E-01  0.56661021996E-01  0.84379271033E-02  0.77116513528E-01  0.51100000000E-03 0.  1.
         11    1    4    4    0    0  0.37938760105E-01  0.34874863495E-01  0.23611212875E-01  0.56686472077E-01  0.51100000000E-03 0. -1.
</event>
<event>
 8    1  0.1086235E+005  0.1043930E+01  0.7957747E-01            NaN
         13   -1    0    0    0    0  0.00000000000E+00  0.00000000000E+00  0.74505805969E-08  0.10566000000E+00  0.10566000000E+00 0. -1.
     999900   -1    0    0    0    0 -0.00000000000E+00 -0.00000000000E+00 -0.74505805969E-08  0.93827000000E+00  0.93827000000E+00 0.  1.
     999902    2    1    2    0    0 -0.15188700168E-01 -0.10687834878E-01 -0.13929201811E-01  0.10207147229E+01  0.10204506830E+01 0.  0.
     999903    2    3    3    0    0  0.92135084387E-02  0.96242512480E-01 -0.86037253287E-01  0.13097929142E+00  0.20140900691E-01 0.  0.
         14    1    1    2    0    0  0.15188700168E-01  0.10687834878E-01  0.13929201811E-01  0.23215277088E-01  0.00000000000E+00 0. -1.
     999901    1    3    3    0    0 -0.24402208607E-01 -0.10693034736E+00  0.72108051476E-01  0.88973543150E+00  0.88000000000E+00 0. -1.
        -11    1    4    4    0    0 -0.27508284360E-02  0.44341398992E-01 -0.48759549085E-01  0.65965759827E-01  0.51100000000E-03 0. -1.
         11    1    4    4    0    0  0.11964336875E-01  0.51901113488E-01 -0.37277704202E-01  0.65013531589E-01  0.51100000000E-03 0.  1.
</event>
<event>
 8    1  0.1086235E+005  0.1043930E+01  0.7957747E-01            NaN
         13   -1    0    0    0    0  0.00000000000E+00  0.00000000000E+00  0.74505805969E-08  0.10566000000E+00  0.10566000000E+00 0.  1.
     999900   -1    0    0    0    0 -0.00000000000E+00 -0.00000000000E+00 -0.74505805969E-08  0.93827000000E+00  0.93827000000E+00 0. -1.
     999902    2    1    2    0    0  0.10650477236E-01 -0.14991263036E-01 -0.14835319314E-01  0.10203025301E+01  0.10200289190E+01 0.  0.
     999903    2    3    3    0    0 -0.28997034909E-02  0.98202708217E-01 -0.83224395352E-01  0.13031739080E+00  0.20103287839E-01 0.  0.
         14    1    1    2    0    0 -0.10650477236E-01  0.14991263036E-01  0.14835319314E-01  0.23627469858E-01  0.00000000000E+00 0.  1.
     999901    1    3    3    0    0  0.13550180726E-01 -0.11319397125E+00  0.68389076038E-01  0.88998513934E+00  0.88000000000E+00 0.  1.
        -11    1    4    4    0    0 -0.11032848138E-01  0.69780041078E-01 -0.60782358668E-01  0.93197285997E-01  0.51100000000E-03 0.  1.
         11    1    4    4    0    0  0.81331446474E-02  0.28422667139E-01 -0.22442036684E-01  0.37120104804E-01  0.51100000000E-03 0. -1.
</event>
<event>
 8    1  0.1086235E+005  0.1043930E+01  0.7957747E-01            NaN
         13   -1    0    0    0    0  0.00000000000E+00  0.00000000000E+00  0.74505805969E-08  0.10566000000E+00  0.10566000000E+00 0.  1.
     999900   -1    0    0    0    0 -0.00000000000E+00 -0.00000000000E+00 -0.74505805969E-08  0.93827000000E+00  0.93827000000E+00 0.  1.
     999902    2    1    2    0    0  0.16835842139E-01  0.23825296371E-02  0.15699754910E-01  0.10207868729E+01  0.10205244904E+01 0.  0.
     999903    2    3    3    0    0  0.12319275114E-01 -0.12819549003E+00  0.16008091733E-01  0.13114024998E+00  0.18858896024E-01 0.  0.
         14    1    1    2    0    0 -0.16835842139E-01 -0.23825296371E-02 -0.15699754910E-01  0.23143127106E-01  0.00000000000E+00 0. -1.
     999901    1    3    3    0    0  0.45165670253E-02  0.13057801967E+00 -0.30833682298E-03  0.88964662292E+00  0.88000000000E+00 0. -1.
        -11    1    4    4    0    0  0.11018781110E-01 -0.85888024731E-01  0.19176154482E-01  0.88691331883E-01  0.51100000000E-03 0.  1.
         11    1    4    4    0    0  0.13004940036E-02 -0.42307465299E-01 -0.31680627483E-02  0.42448918093E-01  0.51100000000E-03 0. -1.
</event>
<event>
 8    1  0.1086235E+005  0.1043930E+01  0.7957747E-01            NaN
         13   -1    0    0    0    0  0.00000000000E+00  0.00000000000E+00  0.74505805969E-08  0.10566000000E+00  0.10566000000E+00 0. -1.
     999900   -1    0    0    0    0 -0.00000000000E+00 -0.00000000000E+00 -0.74505805969E-08  0.93827000000E+00  0.93827000000E+00 0.  1.
     999902    2    1    2    0    0 -0.36285243680E-02  0.16637090829E-01  0.16994779438E-01  0.10198721217E+01  0.10195883302E+01 0.  0.
     999903    2    3    3    0    0  0.85921680141E-01 -0.74805361025E-01  0.58585710165E-01  0.12964138383E+00  0.19905421590E-01 0.  0.
         14    1    1    2    0    0  0.36285243680E-02 -0.16637090829E-01 -0.16994779438E-01  0.24057878304E-01  0.00000000000E+00 0.  1.
     999901    1    3    3    0    0 -0.89550204509E-01  0.91442451854E-01 -0.41590930727E-01  0.89023073787E+00  0.88000000000E+00 0. -1.
        -11    1    4    4    0    0  0.21012400728E-01 -0.99722448712E-02  0.17536576577E-01  0.29133473723E-01  0.51100000000E-03 0.  1.
         11    1    4    4    0    0  0.64909279413E-01 -0.64833116153E-01  0.41049133588E-01  0.10050791010E+00  0.51100000000E-03 0. -1.
</event>
<event>
 8    1  0.1086235E+005  0.1043930E+01  0.7957747E-01            NaN
         13   -1    0    0    0    0  0.00000000000E+00  0.00000000000E+00  0.74505805969E-08  0.10566000000E+00  0.10566000000E+00 0.  1.
     999900   -1    0    0    0    0 -0.00000000000E+00 -0.00000000000E+00 -0.74505805969E-08  0.93827000000E+00  0.93827000000E+00 0. -1.
     999902    2    1    2    0    0  0.54555468798E-02 -0.48208259463E-02 -0.22298772178E-01  0.10204728349E+01  0.10202031994E+01 0.  0.
     999903    2    3    3    0    0  0.40456609939E-01  0.85011121394E-01  0.85478820570E-01  0.12867080378E+00  0.19644819470E-01 0.  0.
         14    1    1    2    0    0 -0.54555468798E-02  0.48208259463E-02  0.22298772178E-01  0.23457165114E-01  0.00000000000E+00 0.  1.
     999901    1    3    3    0    0 -0.35001063059E-01 -0.89831947341E-01 -0.10777759275E+00  0.89180203110E+00  0.88000000000E+00 0. -1.
        -11    1    4    4    0    0  0.29428954117E-01  0.62300991312E-01  0.50044659203E-01  0.85159884304E-01  0.51100000000E-03 0. -1.
         11    1    4    4    0    0  0.11027655822E-01  0.22710130082E-01  0.35434161367E-01  0.43510919481E-01  0.51100000000E-03 0.  1.
</event>
<event>
 8    1  0.1086235E+005  0.1043930E+01  0.7957747E-01            NaN
         13   -1    0    0    0    0  0.00000000000E+00  0.00000000000E+00  0.74505805969E-08  0.10566000000E+00  0.10566000000E+00 0.  1.
     999900   -1    0    0    0    0 -0.00000000000E+00 -0.00000000000E+00 -0.74505805969E-08  0.93827000000E+00  0.93827000000E+00 0.  1.
     999902    2    1    2    0    0 -0.34247139258E-02 -0.55248505398E-02  0.21805452084E-01  0.10211763106E+01  0.10209227821E+01 0.  0.
     999903    2    3    3    0    0  0.28465354670E-01 -0.88369303992E-01  0.94157806854E-01  0.13375586734E+00  0.20137754390E-01 0.  0.
         14    1    1    2    0    0  0.34247139258E-02  0.55248505398E-02 -0.21805452084E-01  0.22753689362E-01  0.00000000000E+00 0. -1.
     999901    1    3    3    0    0 -0.31890068595E-01  0.82844453453E-01 -0.72352354769E-01  0.88742044330E+00  0.88000000000E+00 0.  1.
        -11    1    4    4    0    0  0.21520764270E-01 -0.56543315669E-01  0.47856279280E-01  0.77141262818E-01  0.51100000000E-03 0. -1.
         11    1    4    4    0    0  0.69445903995E-02 -0.31825988323E-01  0.46301527573E-01  0.56614604522E-01  0.51100000000E-03 0.  1.
</event>
<event>
 8    1  0.1086235E+005  0.1043930E+01  0.7957747E-01            NaN
         13   -1    0    0    0    0  0.00000000000E+00  0.00000000000E+00  0.74505805969E-08  0.10566000000E+00  0.10566000000E+00 0. -1.
     999900   -1    0    0    0    0 -0.00000000000E+00 -0.00000000000E+00 -0.74505805969E-08  0.93827000000E+00  0.93827000000E+00 0. -1.
     999902    2    1    2    0    0  0.33030836309E-02  0.22454174669E-01  0.83099467065E-02  0.10197606902E+01  0.10194742320E+01 0.  0.
     999903    2    3    3    0    0  0.46499743953E-02  0.12293633419E+00  0.46978131492E-01  0.13319782892E+00  0.19993805652E-01 0.  0.
         14    1    1    2    0    0 -0.33030836309E-02 -0.22454174669E-01 -0.83099467065E-02  0.24169309792E-01  0.00000000000E+00 0.  1.
     999901    1    3    3    0    0 -0.13468907644E-02 -0.10048215952E+00 -0.38668184786E-01  0.88656286129E+00  0.88000000000E+00 0.  1.
        -11    1    4    4    0    0 -0.54756917265E-02  0.43382447441E-01  0.23450106845E-01  0.49620445160E-01  0.51100000000E-03 0.  1.
         11    1    4    4    0    0  0.10125666122E-01  0.79553886752E-01  0.23528024648E-01  0.83577383762E-01  0.51100000000E-03 0. -1.
</event>
<event>
 8    1  0.1086235E+005  0.1043930E+01  0.7957747E-01            NaN
         13   -1    0    0    0    0  0.00000000000E+00  0.00000000000E+00  0.74505805969E-08  0.10566000000E+00  0.10566000000E+00 0.  1.
     999900   -1    0    0    0    0 -0.00000000000E+00 -0.00000000000E+00 -0.74505805969E-08  0.93827000000E+00  0.93827000000E+00 0. -1.
     999902    2    1    2    0    0  0.18117076824E-01  0.54722187216E-02  0.13088156991E-01  0.10209197087E+01  0.10206603638E+01 0.  0.
     999903    2    3    3    0    0 -0.84186150830E-01  0.62437095372E-01 -0.72686822321E-01  0.12902941580E+00  0.19481199485E-01 0.  0.
         14    1    1    2    0    0 -0.18117076824E-01 -0.54722187216E-02 -0.13088156991E-01  0.23010291259E-01  0.00000000000E+00 0.  1.
     999901    1    3    3    0    0  0.10230322765E+00 -0.56964876651E-01  0.85774979312E-01  0.89189029294E+00  0.88000000000E+00 0.  1.
        -11    1    4    4    0    0 -0.16507859795E-01  0.81840294851E-02 -0.52717811032E-02  0.19171347647E-01  0.51100000000E-03 0. -1.
         11    1    4    4    0    0 -0.67678291036E-01  0.54253065887E-01 -0.67415041218E-01  0.10985806816E+00  0.51100000000E-03 0.  1.
</event>
<event>
 8    1  0.1086235E+005  0.1043930E+01  0.7957747E-01            NaN
         13   -1    0    0    0    0  0.00000000000E+00  0.00000000000E+00  0.74505805969E-08  0.10566000000E+00  0.10566000000E+00 0. -1.
     999900   -1    0    0    0    0 -0.00000000000E+00 -0.00000000000E+00 -0.74505805969E-08  0.93827000000E+00  0.93827000000E+00 0. -1.
     999902    2    1    2    0    0  0.15550765269E-01  0.93313463233E-02 -0.14535139958E-01  0.10206884291E+01  0.10204237839E+01 0.  0.
     999903    2    3    3    0    0 -0.43165486587E-01 -0.11586750797E+00  0.29777062591E-01  0.12878825382E+00  0.20278121950E-01 0.  0.
         14    1    1    2    0    0 -0.15550765269E-01 -0.93313463233E-02  0.14535139958E-01  0.23241570908E-01  0.00000000000E+00 0. -1.
     999901    1    3    3    0    0  0.58716251857E-01  0.12519885430E+00 -0.44312202549E-01  0.89190017527E+00  0.88000000000E+00 0.  1.
        -11    1    4    4    0    0 -0.39299356826E-01 -0.81484760521E-01  0.18043813241E-01  0.92249910360E-01  0.51100000000E-03 0. -1.
         11    1    4    4    0    0 -0.38661297616E-02 -0.34382747453E-01  0.11733249350E-01  0.36538343463E-01  0.51100000000E-03 0.  1.
</event>
<event>
 8    1  0.1086235E+005  0.1043930E+01  0.7957747E-01            NaN
         13   -1    0    0    0    0  0.00000000000E+00  0.00000000000E+00  0.74505805969E-08  0.10566000000E+00  0.10566000000E+00 0. -1.
     999900   -1    0    0    0    0 -0.00000000000E+00 -0.00000000000E+00 -0.74505805969E-08  0.93827000000E+00  0.93827000000E+00 0.  1.
     999902    2    1    2    0    0 -0.73502184461E-02 -0.19059332593E-01 -0.11799234445E-01  0.10203396248E+01  0.10200668822E+01 0.  0.
     999903    2    3    3    0    0 -0.45779632189E-01  0.98220585789E-01 -0.69880232940E-01  0.12983145441E+00  0.15162499838E-01 0.  0.
         14    1    1    2    0    0  0.73502184461E-02  0.19059332593E-01  0.11799234445E-01  0.23590375232E-01  0.00000000000E+00 0. -1.
     999901    1    3    3    0    0  0.38429413743E-01 -0.11727991838E+00  0.58080998495E-01  0.89050817036E+00  0.88000000000E+00 0.  1.
        -11    1    4    4    0    0 -0.30423004309E-01  0.63113828736E-01 -0.36462133036E-01  0.78985206434E-01  0.51100000000E-03 0.  1.
         11    1    4    4    0    0 -0.15356627879E-01  0.35106757053E-01 -0.33418099904E-01  0.50846247972E-01  0.51100000000E-03 0. -1.
</event>
<event>
 8    1  0.1086235E+005  0.1043930E+01  0.7957747E-01            NaN
         13   -1    0    0    0    0  0.00000000000E+00  0.00000000000E+00  0.74505805969E-08  0.10566000000E+00  0.10566000000E+00 0. -1.
     999900   -1    0    0    0    0 -0.00000000000E+00 -0.00000000000E+00 -0.74505805969E-08  0.93827000000E+00  0.93827000000E+00 0.  1.
     999902    2    1    2    0    0  0.30545421370E-02 -0.12543610874E-01 -0.20879643557E-01  0.10193814376E+01  0.10190858077E+01 0.  0.
     999903    2    3    3    0    0  0.19139749875E-01  0.12459457114E+00 -0.12572620092E-01  0.12857583505E+00  0.21989483847E-01 0.  0.
         14    1    1    2    0    0 -0.30545421370E-02  0.12543610874E-01  0.20879643557E-01  0.24548562412E-01  0.00000000000E+00 0. -1.
     999901    1    3    3    0    0 -0.16085207738E-01 -0.13713818201E+00 -0.83070234649E-02  0.89080560254E+00  0.88000000000E+00 0.  1.
        -11    1    4    4    0    0  0.67336051019E-02  0.90854162213E-01 -0.20998807342E-02  0.91128979196E-01  0.51100000000E-03 0.  1.
         11    1    4    4    0    0  0.12406144773E-01  0.33740408927E-01 -0.10472739358E-01  0.37446855854E-01  0.51100000000E-03 0. -1.
</event>
<event>
 8    1  0.1086235E+005  0.1043930E+01  0.7957747E-01            NaN
         13   -1    0    0    0    0  0.00000000000E+00  0.00000000000E+00  0.74505805969E-08  0.10566000000E+00  0.10566000000E+00 0.  1.
     999900   -1    0    0    0    0 -0.00000000000E+00 -0.00000000000E+00 -0.74505805969E-08  0.93827000000E+00  0.93827000000E+00 0.  1.
     999902    2    1    2    0    0  0.20877625261E-01  0.13531568205E-03  0.24033965642E-02  0.10229140570E+01  0.10226981461E+01 0.  0.
     999903    2    3    3    0    0  0.29446869899E-01 -0.10209649293E+00 -0.78121267097E-01  0.13330234610E+00  0.19384815848E-01 0.  0.
         14    1    1    2    0    0 -0.20877625261E-01 -0.13531568205E-03 -0.24033965642E-02  0.21015943041E-01  0.00000000000E+00 0. -1.
     999901    1    3    3    0    0 -0.85692446382E-02  0.10223180862E+00  0.80524663662E-01  0.88961171086E+00  0.88000000000E+00 0. -1.
        -11    1    4    4    0    0  0.22964382486E-01 -0.55413934119E-01 -0.52160552353E-01  0.79492460650E-01  0.51100000000E-03 0. -1.
         11    1    4    4    0    0  0.64824874131E-02 -0.46682558815E-01 -0.25960714744E-01  0.53809885445E-01  0.51100000000E-03 0.  1.
</event>
<event>
 8    1  0.1086235E+005  0.1043930E+01  0.7957747E-01            NaN
         13   -1    0    0    0    0  0.00000000000E+00  0.00000000000E+00  0.74505805969E-08  0.10566000000E+00  0.10566000000E+00 0.  1.
     999900   -1    0    0    0    0 -0.00000000000E+00 -0.00000000000E+00 -0.74505805969E-08  0.93827000000E+00  0.93827000000E+00 0.  1.
     999902    2    1    2    0    0  0.82623876805E-02 -0.53915515694E-02 -0.22086416074E-01  0.10197402159E+01  0.10194532664E+01 0.  0.
     999903    2    3    3    0    0  0.68881958932E-01  0.99539061605E-01  0.40510159987E-01  0.12923277781E+00  0.20181396084E-01 0.  0.
         14    1    1    2    0    0 -0.82623876805E-02  0.53915515694E-02  0.22086416074E-01  0.24189784073E-01  0.00000000000E+00 0.  1.
     999901    1    3    3    0    0 -0.60619571251E-01 -0.10493061317E+00 -0.62596576061E-01  0.89050743811E+00  0.88000000000E+00 0. -1.
        -11    1    4    4    0    0  0.38637463577E-01  0.70881722432E-01  0.22256385054E-01  0.83741745642E-01  0.51100000000E-03 0. -1.
         11    1    4    4    0    0  0.30244495354E-01  0.28657339173E-01  0.18253774933E-01  0.45491032172E-01  0.51100000000E-03 0.  1.
</event>
<event>
 8    1  0.1086235E+005  0.1043930E+01  0.7957747E-01            NaN
         13   -1    0    0    0    0  0.00000000000E+00  0.00000000000E+00  0.74505805969E-08  0.10566000000E+00  0.10566000000E+00 0.  1.
     999900   -1    0    0    0    0 -0.00000000000E+00 -0.00000000000E+00 -0.74505805969E-08  0.93827000000E+00  0.93827000000E+00 0. -1.
     999902    2    1    2    0    0 -0.13564187769E-01  0.19456605123E-01  0.14715676691E-02  0.10201663264E+01  0.10198895143E+01 0.  0.
     999903    2    3    3    0    0 -0.12748733233E+00 -0.23429566015E-01  0.12222816780E-01  0.13172201417E+00  0.19983175390E-01 0.  0.
         14    1    1    2    0    0  0.13564187769E-01 -0.19456605123E-01 -0.14715676691E-02  0.23763673625E-01  0.00000000000E+00 0.  1.
     999901    1    3    3    0    0  0.11392314456E+00  0.42886171138E-01 -0.10751249111E-01  0.88844431221E+00  0.88000000000E+00 0.  1.
        -11    1    4    4    0    0 -0.64346534447E-01 -0.10916827268E-01 -0.38284952380E-02  0.65380211912E-01  0.51100000000E-03 0. -1.
         11    1    4    4    0    0 -0.63140797878E-01 -0.12512738746E-01  0.16051312018E-01  0.66341802253E-01  0.51100000000E-03 0.  1.
</event>
<event>
 8    1  0.1086235E+005  0.1043930E+01  0.7957747E-01            NaN
         13   -1    0    0    0    0  0.00000000000E+00  0.00000000000E+00  0.74505805969E-08  0.10566000000E+00  0.10566000000E+00 0.  1.
     999900   -1    0    0    0    0 -0.00000000000E+00 -0.00000000000E+00 -0.74505805969E-08  0.93827000000E+00  0.93827000000E+00 0.  1.
     999902    2    1    2    0    0  0.10512169408E-02  0.10299263747E-01  0.21238298591E-01  0.10203027865E+01  0.10200291814E+01 0.  0.
     999903    2    3    3    0    0  0.42123250533E-02 -0.12074157130E+00 -0.39089351519E-01  0.12855107306E+00  0.20028236591E-01 0.  0.
         14    1    1    2    0    0 -0.10512169408E-02 -0.10299263747E-01 -0.21238298591E-01  0.23627213501E-01  0.00000000000E+00 0. -1.
     999901    1    3    3    0    0 -0.31611081125E-02  0.13104083504E+00  0.60327650110E-01  0.89175171344E+00  0.88000000000E+00 0. -1.
        -11    1    4    4    0    0  0.96351653694E-02 -0.45806349773E-01 -0.20797252043E-01  0.51223480014E-01  0.51100000000E-03 0.  1.
         11    1    4    4    0    0 -0.54228403161E-02 -0.74935221524E-01 -0.18292099476E-01  0.77327593046E-01  0.51100000000E-03 0. -1.
</event>
<event>
 8    1  0.1086235E+005  0.1043930E+01  0.7957747E-01            NaN
         13   -1    0    0    0    0  0.00000000000E+00  0.00000000000E+00  0.74505805969E-08  0.10566000000E+00  0.10566000000E+00 0.  1.
     999900   -1    0    0    0    0 -0.00000000000E+00 -0.00000000000E+00 -0.74505805969E-08  0.93827000000E+00  0.93827000000E+00 0.  1.
     999902    2    1    2    0    0 -0.34744281425E-02  0.21269118420E-01  0.97705662408E-02  0.10202675611E+01  0.10199931300E+01 0.  0.
     999903    2    3    3    0    0 -0.15659401872E-01 -0.34958577394E-01  0.12369160864E+00  0.13106115580E+00  0.20250765656E-01 0.  0.
         14    1    1    2    0    0  0.34744281425E-02 -0.21269118420E-01 -0.97705662408E-02  0.23662438884E-01  0.00000000000E+00 0. -1.
     999901    1    3    3    0    0  0.12184973730E-01  0.56227695813E-01 -0.11392104240E+00  0.88920640532E+00  0.88000000000E+00 0.  1.
        -11    1    4    4    0    0  0.13936127915E-02 -0.21334366551E-01  0.65876376849E-01  0.69260778948E-01  0.51100000000E-03 0. -1.
         11    1    4    4    0    0 -0.17053014664E-01 -0.13624210842E-01  0.57815231793E-01  0.61800376848E-01  0.51100000000E-03 0.  1.
</event>
<event>
 8    1  0.1086235E+005  0.1043930E+01  0.7957747E-01            NaN
         13   -1    0    0    0    0  0.00000000000E+00  0.00000000000E+00  0.74505805969E-08  0.10566000000E+00  0.10566000000E+00 0.  1.
     999900   -1    0    0    0    0 -0.00000000000E+00 -0.00000000000E+00 -0.74505805969E-08  0.93827000000E+00  0.93827000000E+00 0.  1.
     999902    2    1    2    0    0  0.17335608340E-01  0.15375914503E-01 -0.49440440171E-03  0.10207527159E+01  0.10204895494E+01 0.  0.
     999903    2    3    3    0    0  0.11364751891E+00  0.62078912553E-01  0.26773788222E-01  0.13384758653E+00  0.20707263108E-01 0.  0.
         14    1    1    2    0    0 -0.17335608340E-01 -0.15375914503E-01  0.49440440171E-03  0.23177284116E-01  0.00000000000E+00 0. -1.
     999901    1    3    3    0    0 -0.96311910573E-01 -0.46702998050E-01 -0.27268192623E-01  0.88690512935E+00  0.88000000000E+00 0. -1.
        -11    1    4    4    0    0  0.62066747743E-01  0.25029955624E-01  0.20672459457E-01  0.70045639085E-01  0.51100000000E-03 0.  1.
         11    1    4    4    0    0  0.51580771170E-01  0.37048956929E-01  0.61013287644E-02  0.63801947445E-01  0.51100000000E-03 0. -1.
</event>
<event>
 8    1  0.1086235E+005  0.1043930E+01  0.7957747E-01            NaN
         13   -1    0    0    0    0  0.00000000000E+00  0.00000000000E+00  0.74505805969E-08  0.10566000000E+00  0.10566000000E+00 0. -1.
     999900   -1    0    0    0    0 -0.00000000000E+00 -0.00000000000E+00 -0.74505805969E-08  0.93827000000E+00  0.93827000000E+00 0.  1.
     999902    2    1    2    0    0  0.46179640813E-02  0.73089006888E-02 -0.22490065702E-01  0.10198354223E+01  0.10195507539E+01 0.  0.
     999903    2    3    3    0    0  0.18938489791E-01  0.14122811354E-01  0.12455003644E+00  0.12749451292E+00  0.13565362136E-01 0.  0.
         14    1    1    2    0    0 -0.46179640813E-02 -0.73089006888E-02  0.22490065702E-01  0.24094577748E-01  0.00000000000E+00 0. -1.
     999901    1    3    3    0    0 -0.14320525710E-01 -0.68139106649E-02 -0.14704010215E+00  0.89234090934E+00  0.88000000000E+00 0.  1.
        -11    1    4    4    0    0  0.17633503779E-01  0.93870414164E-02  0.11519954559E+00  0.11691985900E+00  0.51100000000E-03 0.  1.
         11    1    4    4    0    0  0.13049860119E-02  0.47357699373E-02  0.93504908511E-02  0.10574653921E-01  0.51100000000E-03 0. -1.
</event>
<event>
 8    1  0.1086235E+005  0.1043930E+01  0.7957747E-01            NaN
         13   -1    0    0    0    0  0.00000000000E+00  0.00000000000E+00  0.74505805969E-08  0.10566000000E+00  0.10566000000E+00 0.  1.
     999900   -1    0    0    0    0 -0.00000000000E+00 -0.00000000000E+00 -0.74505805969E-08  0.93827000000E+00  0.93827000000E+00 0. -1.
     999902    2    1    2    0    0  0.18779639954E-01  0.12504401353E-01 -0.46249792254E-02  0.10208990347E+01  0.10206392182E+01 0.  0.
     999903    2    3    3    0    0 -0.24792010192E-01 -0.42144640435E-02  0.12529576386E+00  0.13013677200E+00  0.24579371615E-01 0.  0.
         14    1    1    2    0    0 -0.18779639954E-01 -0.12504401353E-01  0.46249792254E-02  0.23030965304E-01  0.00000000000E+00 0. -1.
     999901    1    3    3    0    0  0.43571650146E-01  0.16718865396E-01 -0.12992074309E+00  0.89076226269E+00  0.88000000000E+00 0. -1.
        -11    1    4    4    0    0 -0.21304409121E-01  0.15358761120E-02  0.11902467996E+00  0.12092713643E+00  0.51100000000E-03 0.  1.
         11    1    4    4    0    0 -0.34876010712E-02 -0.57503401555E-02  0.62710838968E-02  0.92096355724E-02  0.51100000000E-03 0. -1.
</event>
<event>
 8    1  0.1086235E+005  0.1043930E+01  0.7957747E-01            NaN
         13   -1    0    0    0    0  0.00000000000E+00  0.00000000000E+00  0.74505805969E-08  0.10566000000E+00  0.10566000000E+00 0. -1.
     999900   -1    0    0    0    0 -0.00000000000E+00 -0.00000000000E+00 -0.74505805969E-08  0.93827000000E+00  0.93827000000E+00 0.  1.
     999902    2    1    2    0    0 -0.35132325647E-03 -0.22831090572E-01  0.14363428342E-02  0.10210510751E+01  0.10207947162E+01 0.  0.
     999903    2    3    3    0    0  0.34446524003E-01 -0.11044426102E+00  0.64105092226E-01  0.13380007905E+00  0.20211395173E-01 0.  0.
         14    1    1    2    0    0  0.35132325647E-03  0.22831090572E-01 -0.14363428342E-02  0.22878924919E-01  0.00000000000E+00 0. -1.
     999901    1    3    3    0    0 -0.34797847260E-01  0.87613170453E-01 -0.62668749391E-01  0.88725099603E+00  0.88000000000E+00 0.  1.
        -11    1    4    4    0    0  0.14115540794E-01 -0.72306624369E-01  0.34085172308E-01  0.81176083373E-01  0.51100000000E-03 0.  1.
         11    1    4    4    0    0  0.20330983209E-01 -0.38137636656E-01  0.30019919917E-01  0.52623995675E-01  0.51100000000E-03 0. -1.
</event>
<event>
 8    1  0.1086235E+005  0.1043930E+01  0.7957747E-01            NaN
         13   -1    0    0    0    0  0.00000000000E+00  0.00000000000E+00  0.74505805969E-08  0.10566000000E+00  0.10566000000E+00 0.  1.
     999900   -1    0    0    0    0 -0.00000000000E+00 -0.00000000000E+00 -0.74505805969E-08  0.93827000000E+00  0.93827000000E+00 0.  1.
     999902    2    1    2    0    0 -0.24570139937E-01  0.35984467223E-02 -0.19281329844E-01  0.10124910071E+01  0.10120027812E+01 0.  0.
     999903    2    3    3    0    0  0.14998972569E-01 -0.11902659409E+00  0.14154879551E-01  0.12247943671E+00  0.20212682220E-01 0.  0.
         14    1    1    2    0    0  0.24570139937E-01 -0.35984467223E-02  0.19281329844E-01  0.31438992921E-01  0.00000000000E+00 0. -1.
     999901    1    3    3    0    0 -0.39569112506E-01  0.12262504081E+00 -0.33436209395E-01  0.89001157037E+00  0.88000000000E+00 0. -1.
        -11    1    4    4    0    0  0.10855654625E-01 -0.32714234054E-01  0.10309185571E-01  0.35980644453E-01  0.51100000000E-03 0. -1.
         11    1    4    4    0    0  0.41433179438E-02 -0.86312360034E-01  0.38456939803E-02  0.86498792254E-01  0.51100000000E-03 0.  1.
</event>
<event>
 8    1  0.1086235E+005  0.1043930E+01  0.7957747E-01            NaN
         13   -1    0    0    0    0  0.00000000000E+00  0.00000000000E+00  0.74505805969E-08  0.10566000000E+00  0.10566000000E+00 0.  1.
     999900   -1    0    0    0    0 -0.00000000000E+00 -0.00000000000E+00 -0.74505805969E-08  0.93827000000E+00  0.93827000000E+00 0.  1.
     999902    2    1    2    0    0  0.45343588897E-02 -0.91386685891E-02  0.20316932562E-01  0.10211955895E+01  0.10209424952E+01 0.  0.
     999903    2    3    3    0    0  0.42908441015E-01 -0.31020653620E-01  0.12177762069E+00  0.13426511716E+00  0.19847355593E-01 0.  0.
         14    1    1    2    0    0 -0.45343588897E-02  0.91386685891E-02 -0.20316932562E-01  0.22734410545E-01  0.00000000000E+00 0. -1.
     999901    1    3    3    0    0 -0.38374082125E-01  0.21881985031E-01 -0.10146068813E+00  0.88693047229E+00  0.88000000000E+00 0. -1.
        -11    1    4    4    0    0  0.23332448673E-01 -0.28345908910E-01  0.76095105747E-01  0.84490354199E-01  0.51100000000E-03 0.  1.
         11    1    4    4    0    0  0.19575992342E-01 -0.26747447104E-02  0.45682514943E-01  0.49774762962E-01  0.51100000000E-03 0. -1.
</event>
<event>
 8    1  0.1086235E+005  0.1043930E+01  0.7957747E-01            NaN
         13   -1    0    0    0    0  0.00000000000E+00  0.00000000000E+00  0.74505805969E-08  0.10566000000E+00  0.10566000000E+00 0. -1.
     999900   -1    0    0    0    0 -0.00000000000E+00 -0.00000000000E+00 -0.74505805969E-08  0.93827000000E+00  0.93827000000E+00 0.  1.
     999902    2    1    2    0    0 -0.20163826670E-01 -0.12905271475E-01 -0.31627613929E-02  0.10197819359E+01  0.10194959872E+01 0.  0.
     999903    2    3    3    0    0 -0.42048070521E-02 -0.45184008954E-01  0.12059159501E+00  0.13039352365E+00  0.20021567231E-01 0.  0.
         14    1    1    2    0    0  0.20163826670E-01  0.12905271475E-01  0.31627613929E-02  0.24148064052E-01  0.00000000000E+00 0. -1.
     999901    1    3    3    0    0 -0.15959019617E-01  0.32278737478E-01 -0.12375435641E+00  0.88938841230E+00  0.88000000000E+00 0.  1.
        -11    1    4    4    0    0 -0.17893974295E-02 -0.45070677257E-01  0.10061043257E+00  0.11026009321E+00  0.51100000000E-03 0. -1.
         11    1    4    4    0    0 -0.24154096225E-02 -0.11333169706E-03  0.19981162441E-01  0.20133430439E-01  0.51100000000E-03 0.  1.
</event>
<event>
 8    1  0.1086235E+005  0.1043930E+01  0.7957747E-01            NaN
         13   -1    0    0    0    0  0.00000000000E+00  0.00000000000E+00  0.74505805969E-08  0.10566000000E+00  0.10566000000E+00 0.  1.
     999900   -1    0    0    0    0 -0.00000000000E+00 -0.00000000000E+00 -0.74505805969E-08  0.93827000000E+00  0.93827000000E+00 0. -1.
     999902    2    1    2    0    0 -0.63839380670E-02 -0.15178469806E-01 -0.17931089040E-01  0.10195852970E+01  0.10192946155E+01 0.  0.
     999903    2    3    3    0    0  0.26102703994E-01 -0.56620004949E-02  0.12321878955E+00  0.12769447781E+00  0.20238580923E-01 0.  0.
         14    1    1    2    0    0  0.63839380670E-02  0.15178469806E-01  0.17931089040E-01  0.24344703019E-01  0.00000000000E+00 0.  1.
     999901    1    3    3    0    0 -0.32486642061E-01 -0.95164693112E-02 -0.14114987859E+00  0.89189081917E+00  0.88000000000E+00 0. -1.
        -11    1    4    4    0    0  0.17187992624E-01  0.49309449536E-02  0.88952260588E-01  0.90733164242E-01  0.51100000000E-03 0.  1.
         11    1    4    4    0    0  0.89147113699E-02 -0.10592945449E-01  0.34266528966E-01  0.36961313565E-01  0.51100000000E-03 0. -1.
</event>
<event>
 8    1  0.1086235E+005  0.1043930E+01  0.7957747E-01            NaN
         13   -1    0    0    0    0  0.00000000000E+00  0.00000000000E+00  0.74505805969E-08  0.10566000000E+00  0.10566000000E+00 0.  1.
     999900   -1    0    0    0    0 -0.00000000000E+00 -0.00000000000E+00 -0.74505805969E-08  0.93827000000E+00  0.93827000000E+00 0. -1.
     999902    2    1    2    0    0 -0.15013306907E-01  0.14867264058E-01  0.10434756170E-01  0.10203647913E+01  0.10200926371E+01 0.  0.
     999903    2    3    3    0    0  0.41276978581E-01  0.11101896819E+00  0.55321943050E-01  0.13220455463E+00  0.19711078688E-01 0.  0.
         14    1    1    2    0    0  0.15013306907E-01 -0.14867264058E-01 -0.10434756170E-01  0.23565208702E-01  0.00000000000E+00 0. -1.
     999901    1    3    3    0    0 -0.56290285488E-01 -0.96151704135E-01 -0.44887186880E-01  0.88816023667E+00  0.88000000000E+00 0.  1.
        -11    1    4    4    0    0  0.48748388818E-02  0.39458912566E-01  0.17122775030E-01  0.43292266985E-01  0.51100000000E-03 0.  1.
         11    1    4    4    0    0  0.36402139699E-01  0.71560055627E-01  0.38199168021E-01  0.88912287646E-01  0.51100000000E-03 0. -1.
</event>
<event>
 8    1  0.1086235E+005  0.1043930E+01  0.7957747E-01            NaN
         13   -1    0    0    0    0  0.00000000000E+00  0.00000000000E+00  0.74505805969E-08  0.10566000000E+00  0.10566000000E+00 0. -1.
     999900   -1    0    0    0    0 -0.00000000000E+00 -0.00000000000E+00 -0.74505805969E-08  0.93827000000E+00  0.93827000000E+00 0.  1.
     999902    2    1    2    0    0 -0.20233387938E-01 -0.12198097693E-01 -0.35933318769E-02  0.10200323932E+01  0.10197524149E+01 0.  0.
     999903    2    3    3    0    0  0.70297098652E-01  0.39279448477E-01  0.97820060987E-01  0.12810729380E+00  0.18925042714E-01 0.  0.
         14    1    1    2    0    0  0.20233387938E-01  0.12198097693E-01  0.35933318769E-02  0.23897606758E-01  0.00000000000E+00 0. -1.
     999901    1    3    3    0    0 -0.90530486590E-01 -0.51477546170E-01 -0.10141339286E+00  0.89192509944E+00  0.88000000000E+00 0.  1.
        -11    1    4    4    0    0  0.14201463599E-01  0.17434476726E-01  0.28083258721E-01  0.35980176326E-01  0.51100000000E-03 0. -1.
         11    1    4    4    0    0  0.56095635052E-01  0.21844971751E-01  0.69736802267E-01  0.92127117474E-01  0.51100000000E-03 0.  1.
</event>
<event>
 8    1  0.1111293E+005  0.1043930E+01  0.7957747E-01            NaN
         13   -1    0    0    0    0  0.00000000000E+00  0.00000000000E+00  0.74505805969E-08  0.10566000000E+00  0.10566000000E+00 0.  1.
     999900   -1    0    0    0    0 -0.00000000000E+00 -0.00000000000E+00 -0.74505805969E-08  0.93827000000E+00  0.93827000000E+00 0. -1.
     999902    2    1    2    0    0 -0.15362145159E-01 -0.69735683748E-02  0.16955827267E-01  0.10200108395E+01  0.10197303499E+01 0.  0.
     999903    2    3    3    0    0 -0.20255016478E-01  0.55226970738E-01 -0.11240894004E+00  0.12836736241E+00  0.19548041889E-01 0.  0.
         14    1    1    2    0    0  0.15362145159E-01  0.69735683748E-02 -0.16955827267E-01  0.23919160480E-01  0.00000000000E+00 0. -1.
     999901    1    3    3    0    0  0.48928713193E-02 -0.62200539113E-01  0.12936476731E+00  0.89164347711E+00  0.88000000000E+00 0.  1.
        -11    1    4    4    0    0 -0.18166129952E-01  0.23593270462E-01 -0.62599460879E-01  0.69322466141E-01  0.51100000000E-03 0. -1.
         11    1    4    4    0    0 -0.20888865257E-02  0.31633700277E-01 -0.49809479159E-01  0.59044896267E-01  0.51100000000E-03 0.  1.
</event>
<event>
 8    1  0.1086235E+005  0.1043930E+01  0.7957747E-01            NaN
         13   -1    0    0    0    0  0.00000000000E+00  0.00000000000E+00  0.74505805969E-08  0.10566000000E+00  0.10566000000E+00 0.  1.
     999900   -1    0    0    0    0 -0.00000000000E+00 -0.00000000000E+00 -0.74505805969E-08  0.93827000000E+00  0.93827000000E+00 0. -1.
     999902    2    1    2    0    0 -0.10117410327E-01 -0.15919598144E-01 -0.12484796986E-01  0.10213099701E+01  0.10210594445E+01 0.  0.
     999903    2    3    3    0    0  0.55399719039E-01  0.23190772678E-01 -0.11536665207E+00  0.13203678854E+00  0.22744412747E-01 0.  0.
         14    1    1    2    0    0  0.10117410327E-01  0.15919598144E-01  0.12484796986E-01  0.22620029897E-01  0.00000000000E+00 0.  1.
     999901    1    3    3    0    0 -0.65517129366E-01 -0.39110370822E-01  0.10288185508E+00  0.88927318157E+00  0.88000000000E+00 0.  1.
        -11    1    4    4    0    0  0.27464943309E-01  0.16908561093E-01 -0.39826528132E-01  0.51250717197E-01  0.51100000000E-03 0.  1.
         11    1    4    4    0    0  0.27934775730E-01  0.62822115854E-02 -0.75540123935E-01  0.80786071340E-01  0.51100000000E-03 0. -1.
</event>
<event>
 8    1  0.1086235E+005  0.1043930E+01  0.7957747E-01            NaN
         13   -1    0    0    0    0  0.00000000000E+00  0.00000000000E+00  0.74505805969E-08  0.10566000000E+00  0.10566000000E+00 0. -1.
     999900   -1    0    0    0    0 -0.00000000000E+00 -0.00000000000E+00 -0.74505805969E-08  0.93827000000E+00  0.93827000000E+00 0. -1.
     999902    2    1    2    0    0 -0.35158036499E-02 -0.13592140863E-01  0.18933145667E-01  0.10203594427E+01  0.10200871635E+01 0.  0.
     999903    2    3    3    0    0  0.70690378743E-01  0.10186113783E+00  0.31884595087E-01  0.12962729599E+00  0.20341765274E-01 0.  0.
         14    1    1    2    0    0  0.35158036499E-02  0.13592140863E-01 -0.18933145667E-01  0.23570557341E-01  0.00000000000E+00 0.  1.
     999901    1    3    3    0    0 -0.74206182393E-01 -0.11545327870E+00 -0.12951449421E-01  0.89073214667E+00  0.88000000000E+00 0. -1.
        -11    1    4    4    0    0  0.48347464938E-01  0.80421007979E-01  0.17394387135E-01  0.95435013046E-01  0.51100000000E-03 0.  1.
         11    1    4    4    0    0  0.22342913806E-01  0.21440129854E-01  0.14490207952E-01  0.34192282944E-01  0.51100000000E-03 0. -1.
</event>
<event>
 8    1  0.1086235E+005  0.1043930E+01  0.7957747E-01            NaN
         13   -1    0    0    0    0  0.00000000000E+00  0.00000000000E+00  0.74505805969E-08  0.10566000000E+00  0.10566000000E+00 0. -1.
     999900   -1    0    0    0    0 -0.00000000000E+00 -0.00000000000E+00 -0.74505805969E-08  0.93827000000E+00  0.93827000000E+00 0.  1.
     999902    2    1    2    0    0 -0.10189336047E-01 -0.19236245801E-01  0.11085661306E-01  0.10195015820E+01  0.10192088736E+01 0.  0.
     999903    2    3    3    0    0  0.33488836186E-01  0.79980215678E-01 -0.90658684439E-01  0.12703107777E+00  0.19989012104E-01 0.  0.
         14    1    1    2    0    0  0.10189336047E-01  0.19236245801E-01 -0.11085661306E-01  0.24428418045E-01  0.00000000000E+00 0.  1.
     999901    1    3    3    0    0 -0.43678172233E-01 -0.99216461479E-01  0.10174434575E+00  0.89247050419E+00  0.88000000000E+00 0. -1.
        -11    1    4    4    0    0  0.13560001675E-01  0.56382987979E-01 -0.61969725441E-01  0.84872981397E-01  0.51100000000E-03 0. -1.
         11    1    4    4    0    0  0.19928834511E-01  0.23597227699E-01 -0.28688958998E-01  0.42158096369E-01  0.51100000000E-03 0.  1.
</event>
<event>
 8    1  0.1086235E+005  0.1043930E+01  0.7957747E-01            NaN
         13   -1    0    0    0    0  0.00000000000E+00  0.00000000000E+00  0.74505805969E-08  0.10566000000E+00  0.10566000000E+00 0.  1.
     999900   -1    0    0    0    0 -0.00000000000E+00 -0.00000000000E+00 -0.74505805969E-08  0.93827000000E+00  0.93827000000E+00 0.  1.
     999902    2    1    2    0    0 -0.10330214491E-01  0.44107676160E-02  0.19611274214E-01  0.10213297726E+01  0.10210796904E+01 0.  0.
     999903    2    3    3    0    0  0.77890675968E-01  0.22208078617E-01  0.10295323089E+00  0.13282228724E+00  0.21959874295E-01 0.  0.
         14    1    1    2    0    0  0.10330214491E-01 -0.44107676160E-02 -0.19611274214E-01  0.22600227403E-01  0.00000000000E+00 0. -1.
     999901    1    3    3    0    0 -0.88220890459E-01 -0.17797311001E-01 -0.83341956674E-01  0.88850748536E+00  0.88000000000E+00 0.  1.
        -11    1    4    4    0    0  0.32910422655E-01  0.18051354977E-01  0.58026371036E-01  0.69110550515E-01  0.51100000000E-03 0. -1.
         11    1    4    4    0    0  0.44980253313E-01  0.41567236404E-02  0.44926859851E-01  0.63711736726E-01  0.51100000000E-03 0.  1.
</event>
<event>
 8    1  0.1086235E+005  0.1043930E+01  0.7957747E-01            NaN
         13   -1    0    0    0    0  0.00000000000E+00  0.00000000000E+00  0.74505805969E-08  0.10566000000E+00  0.10566000000E+00 0. -1.
     999900   -1    0    0    0    0 -0.00000000000E+00 -0.00000000000E+00 -0.74505805969E-08  0.93827000000E+00  0.93827000000E+00 0. -1.
     999902    2    1    2    0    0 -0.17994968748E-01  0.14656541027E-01  0.17683841115E-01  0.10147520746E+01  0.10143325005E+01 0.  0.
     999903    2    3    3    0    0  0.40307840975E-01  0.80312710355E-01  0.88333981685E-01  0.12756472540E+00  0.19874942927E-01 0.  0.
         14    1    1    2    0    0  0.17994968748E-01 -0.14656541027E-01 -0.17683841115E-01  0.29177925418E-01  0.00000000000E+00 0.  1.
     999901    1    3    3    0    0 -0.58302809724E-01 -0.65656169328E-01 -0.70650140570E-01  0.88718734919E+00  0.88000000000E+00 0. -1.
        -11    1    4    4    0    0  0.27235905304E-01  0.51353743376E-01  0.69575676572E-01  0.90664421842E-01  0.51100000000E-03 0.  1.
         11    1    4    4    0    0  0.13071935671E-01  0.28958966979E-01  0.18758305113E-01  0.36900303554E-01  0.51100000000E-03 0. -1.
</event>
<event>
 8    1  0.1086235E+005  0.1043930E+01  0.7957747E-01            NaN
         13   -1    0    0    0    0  0.00000000000E+00  0.00000000000E+00  0.74505805969E-08  0.10566000000E+00  0.10566000000E+00 0.  1.
     999900   -1    0    0    0    0 -0.00000000000E+00 -0.00000000000E+00 -0.74505805969E-08  0.93827000000E+00  0.93827000000E+00 0.  1.
     999902    2    1    2    0    0  0.20251132762E-01  0.10632128182E-01 -0.50764650089E-02  0.10205009363E+01  0.10202319540E+01 0.  0.
     999903    2    3    3    0    0  0.26473184600E-02 -0.12756936776E+00  0.83578185970E-02  0.12943975563E+00  0.20095903044E-01 0.  0.
         14    1    1    2    0    0 -0.20251132762E-01 -0.10632128182E-01  0.50764650089E-02  0.23429063678E-01  0.00000000000E+00 0.  1.
     999901    1    3    3    0    0  0.17603814302E-01  0.13820149595E+00 -0.13434283606E-01  0.89106118069E+00  0.88000000000E+00 0.  1.
        -11    1    4    4    0    0 -0.57405119995E-02 -0.72285564913E-01 -0.21285234225E-02  0.72546179126E-01  0.51100000000E-03 0.  1.
         11    1    4    4    0    0  0.83878304595E-02 -0.55283802851E-01  0.10486342020E-01  0.56893576504E-01  0.51100000000E-03 0. -1.
</event>
<event>
 8    1  0.1086235E+005  0.1043930E+01  0.7957747E-01            NaN
         13   -1    0    0    0    0  0.00000000000E+00  0.00000000000E+00  0.74505805969E-08  0.10566000000E+00  0.10566000000E+00 0. -1.
     999900   -1    0    0    0    0 -0.00000000000E+00 -0.00000000000E+00 -0.74505805969E-08  0.93827000000E+00  0.93827000000E+00 0. -1.
     999902    2    1    2    0    0 -0.16681577469E-01 -0.15768267479E-01  0.17675911111E-02  0.10209074531E+01  0.10206478287E+01 0.  0.
     999903    2    3    3    0    0 -0.41455836024E-01  0.53655237637E-01 -0.11016736298E+00  0.13075981318E+00  0.19073804308E-01 0.  0.
         14    1    1    2    0    0  0.16681577469E-01  0.15768267479E-01 -0.17675911111E-02  0.23022546872E-01  0.00000000000E+00 0.  1.
     999901    1    3    3    0    0  0.24774258554E-01 -0.69423505116E-01  0.11193495409E+00  0.89014763994E+00  0.88000000000E+00 0.  1.
        -11    1    4    4    0    0 -0.51739966493E-02  0.53981581814E-02 -0.26781306619E-01  0.27810247362E-01  0.51100000000E-03 0.  1.
         11    1    4    4    0    0 -0.36281839374E-01  0.48257079456E-01 -0.83386056364E-01  0.10294956582E+00  0.51100000000E-03 0. -1.
</event>
<event>
 8    1  0.1086235E+005  0.1043930E+01  0.7957747E-01            NaN
         13   -1    0    0    0    0  0.00000000000E+00  0.00000000000E+00  0.74505805969E-08  0.10566000000E+00  0.10566000000E+00 0. -1.
     999900   -1    0    0    0    0 -0.00000000000E+00 -0.00000000000E+00 -0.74505805969E-08  0.93827000000E+00  0.93827000000E+00 0. -1.
     999902    2    1    2    0    0  0.22654494046E-02  0.16039185504E-01 -0.10876318691E-01  0.10244189252E+01  0.10242331044E+01 0.  0.
     999903    2    3    3    0    0 -0.10931697016E+00 -0.16539437847E-01 -0.74165134419E-01  0.13452147195E+00  0.19282278995E-01 0.  0.
         14    1    1    2    0    0 -0.22654494046E-02 -0.16039185504E-01  0.10876318691E-01  0.19511074827E-01  0.00000000000E+00 0.  1.
     999901    1    3    3    0    0  0.11158241956E+00  0.32578623352E-01  0.63288815728E-01  0.88989745322E+00  0.88000000000E+00 0. -1.
        -11    1    4    4    0    0 -0.82287671877E-01 -0.50768792051E-02 -0.59680527198E-01  0.10177947776E+00  0.51100000000E-03 0. -1.
         11    1    4    4    0    0 -0.27029298281E-01 -0.11462558642E-01 -0.14484607222E-01  0.32741994191E-01  0.51100000000E-03 0.  1.
</event>
<event>
 8    1  0.1119613E+005  0.1043930E+01  0.7957747E-01            NaN
         13   -1    0    0    0    0  0.00000000000E+00  0.00000000000E+00  0.74505805969E-08  0.10566000000E+00  0.10566000000E+00 0.  1.
     999900   -1    0    0    0    0 -0.00000000000E+00 -0.00000000000E+00 -0.74505805969E-08  0.93827000000E+00  0.93827000000E+00 0. -1.
     999902    2    1    2    0    0 -0.10934413560E-01  0.41167090513E-02  0.23477816384E-01  0.10177056496E+01  0.10173677175E+01 0.  0.
     999903    2    3    3    0    0  0.89790493627E-01  0.88268100013E-01 -0.51406412887E-02  0.12751130020E+00  0.19470882377E-01 0.  0.
         14    1    1    2    0    0  0.10934413560E-01 -0.41167090513E-02 -0.23477816384E-01  0.26224350430E-01  0.00000000000E+00 0. -1.
     999901    1    3    3    0    0 -0.10072490719E+00 -0.84151390962E-01  0.28618457672E-01  0.89019434937E+00  0.88000000000E+00 0.  1.
        -11    1    4    4    0    0  0.26161496815E-01  0.38699115547E-01 -0.32784074262E-02  0.46830060174E-01  0.51100000000E-03 0. -1.
         11    1    4    4    0    0  0.63628996812E-01  0.49568984467E-01 -0.18622338626E-02  0.80681240027E-01  0.51100000000E-03 0.  1.
</event>
<event>
 8    1  0.1086235E+005  0.1043930E+01  0.7957747E-01            NaN
         13   -1    0    0    0    0  0.00000000000E+00  0.00000000000E+00  0.74505805969E-08  0.10566000000E+00  0.10566000000E+00 0.  1.
     999900   -1    0    0    0    0 -0.00000000000E+00 -0.00000000000E+00 -0.74505805969E-08  0.93827000000E+00  0.93827000000E+00 0. -1.
     999902    2    1    2    0    0  0.24000865579E-01 -0.61371905157E-02  0.29119783616E-02  0.10189863380E+01  0.10186809956E+01 0.  0.
     999903    2    3    3    0    0 -0.49544333174E-01 -0.11742997619E+00 -0.75363078790E-03  0.12892543161E+00  0.19410273023E-01 0.  0.
         14    1    1    2    0    0 -0.24000865579E-01  0.61371905157E-02 -0.29119783616E-02  0.24943662000E-01  0.00000000000E+00 0. -1.
     999901    1    3    3    0    0  0.73545198753E-01  0.11129278567E+00  0.36656091495E-02  0.89006090639E+00  0.88000000000E+00 0.  1.
        -11    1    4    4    0    0 -0.97509160884E-02 -0.29097938253E-01  0.77921343771E-02  0.31666209977E-01  0.51100000000E-03 0. -1.
         11    1    4    4    0    0 -0.39793417085E-01 -0.88332037932E-01 -0.85457651650E-02  0.97259221628E-01  0.51100000000E-03 0.  1.
</event>
<event>
 8    1  0.1086235E+005  0.1043930E+01  0.7957747E-01            NaN
         13   -1    0    0    0    0  0.00000000000E+00  0.00000000000E+00  0.74505805969E-08  0.10566000000E+00  0.10566000000E+00 0. -1.
     999900   -1    0    0    0    0 -0.00000000000E+00 -0.00000000000E+00 -0.74505805969E-08  0.93827000000E+00  0.93827000000E+00 0.  1.
     999902    2    1    2    0    0 -0.13407975602E-01  0.11462535796E-01 -0.80074514758E-02  0.10245577824E+01  0.10243746222E+01 0.  0.
     999903    2    3    3    0    0 -0.14385969676E-01 -0.11265703252E+00  0.66081801158E-01  0.13276417337E+00  0.18998899555E-01 0.  0.
         14    1    1    2    0    0  0.13407975602E-01 -0.11462535796E-01  0.80074514758E-02  0.19372217626E-01  0.00000000000E+00 0.  1.
     999901    1    3    3    0    0  0.97799407477E-03  0.12411956832E+00 -0.74089252634E-01  0.89179360901E+00  0.88000000000E+00 0.  1.
        -11    1    4    4    0    0 -0.28898002869E-02 -0.27296965312E-01  0.70523197515E-02  0.28345574537E-01  0.51100000000E-03 0. -1.
         11    1    4    4    0    0 -0.11496169390E-01 -0.85360067212E-01  0.59029481407E-01  0.10441859883E+00  0.51100000000E-03 0.  1.
</event>
<event>
 7    1  0.2217749E+005  0.1043930E+01  0.7957747E-01            NaN
         13   -1    0    0    0    0  0.00000000000E+00  0.00000000000E+00  0.74505805969E-08  0.10566000000E+00  0.10566000000E+00 0. -1.
     999900   -1    0    0    0    0 -0.00000000000E+00 -0.00000000000E+00 -0.74505805969E-08  0.93827000000E+00  0.93827000000E+00 0. -1.
     999903    2    1    2    0    0  0.47809442897E-01 -0.82753197729E-01 -0.24318266650E-01  0.10047840817E+00  0.19253515302E-01 0.  0.
         14    1    1    2    0    0  0.20477312347E-01 -0.46479444979E-01 -0.39861271846E-02  0.50946524282E-01  0.00000000000E+00 0. -1.
     999901    1    1    2    0    0 -0.68286755244E-01  0.12923264271E+00  0.28304393835E-01  0.89250506755E+00  0.88000000000E+00 0. -1.
        -11    1    3    3    0    0  0.22214563189E-01 -0.21983345395E-01 -0.42146828104E-02  0.31540116751E-01  0.51100000000E-03 0. -1.
         11    1    3    3    0    0  0.25594879708E-01 -0.60769852334E-01 -0.20103583840E-01  0.68938291422E-01  0.51100000000E-03 0.  1.
</event>
<event>
 8    1  0.1086235E+005  0.1043930E+01  0.7957747E-01            NaN
         13   -1    0    0    0    0  0.00000000000E+00  0.00000000000E+00  0.74505805969E-08  0.10566000000E+00  0.10566000000E+00 0.  1.
     999900   -1    0    0    0    0 -0.00000000000E+00 -0.00000000000E+00 -0.74505805969E-08  0.93827000000E+00  0.93827000000E+00 0.  1.
     999902    2    1    2    0    0 -0.32601361960E-02  0.67883401929E-02  0.22361723882E-01  0.10203343066E+01  0.10200614396E+01 0.  0.
     999903    2    3    3    0    0  0.19870881294E-01  0.50600663692E-01 -0.11458965998E+00  0.12836443875E+00  0.19782817628E-01 0.  0.
         14    1    1    2    0    0  0.32601361960E-02 -0.67883401929E-02 -0.22361723882E-01  0.23595693369E-01  0.00000000000E+00 0. -1.
     999901    1    3    3    0    0 -0.23131017490E-01 -0.43812323499E-01  0.13695138386E+00  0.89196986788E+00  0.88000000000E+00 0. -1.
        -11    1    4    4    0    0  0.33312907736E-02  0.27525284951E-01 -0.41105373341E-01  0.49584792511E-01  0.51100000000E-03 0.  1.
         11    1    4    4    0    0  0.16539590521E-01  0.23075378741E-01 -0.73484286637E-01  0.78779646243E-01  0.51100000000E-03 0. -1.
</event>
<event>
 8    1  0.1086235E+005  0.1043930E+01  0.7957747E-01            NaN
         13   -1    0    0    0    0  0.00000000000E+00  0.00000000000E+00  0.74505805969E-08  0.10566000000E+00  0.10566000000E+00 0. -1.
     999900   -1    0    0    0    0 -0.00000000000E+00 -0.00000000000E+00 -0.74505805969E-08  0.93827000000E+00  0.93827000000E+00 0. -1.
     999902    2    1    2    0    0  0.42447139892E-02  0.85416948345E-02 -0.23002539317E-01  0.10190282940E+01  0.10187239906E+01 0.  0.
     999903    2    3    3    0    0 -0.72579694544E-01  0.11713459298E-02  0.10208645373E+00  0.12683797350E+00  0.19925947266E-01 0.  0.
         14    1    1    2    0    0 -0.42447139892E-02 -0.85416948345E-02  0.23002539317E-01  0.24901706016E-01  0.00000000000E+00 0. -1.
     999901    1    3    3    0    0  0.76824408533E-01  0.73703489047E-02 -0.12508899305E+00  0.89219032049E+00  0.88000000000E+00 0. -1.
        -11    1    4    4    0    0 -0.51114824209E-01  0.95340258635E-02  0.75224217405E-01  0.91447071622E-01  0.51100000000E-03 0. -1.
         11    1    4    4    0    0 -0.21464870335E-01 -0.83626799337E-02  0.26862236324E-01  0.35390901875E-01  0.51100000000E-03 0.  1.
</event>
<event>
 8    1  0.1086235E+005  0.1043930E+01  0.7957747E-01            NaN
         13   -1    0    0    0    0  0.00000000000E+00  0.00000000000E+00  0.74505805969E-08  0.10566000000E+00  0.10566000000E+00 0.  1.
     999900   -1    0    0    0    0 -0.00000000000E+00 -0.00000000000E+00 -0.74505805969E-08  0.93827000000E+00  0.93827000000E+00 0. -1.
     999902    2    1    2    0    0  0.15701600237E-01  0.63891161207E-02  0.15484645050E-01  0.10209705730E+01  0.10207123864E+01 0.  0.
     999903    2    3    3    0    0 -0.12423355867E+00  0.23700536800E-01  0.21704808273E-01  0.12972412876E+00  0.19014687367E-01 0.  0.
         14    1    1    2    0    0 -0.15701600237E-01 -0.63891161207E-02 -0.15484645050E-01  0.22959426978E-01  0.00000000000E+00 0. -1.
     999901    1    3    3    0    0  0.13993515891E+00 -0.17311420679E-01 -0.62201632233E-02  0.89124644426E+00  0.88000000000E+00 0. -1.
        -11    1    4    4    0    0 -0.28346998238E-01 -0.24912945303E-02  0.35922049696E-02  0.28686650469E-01  0.51100000000E-03 0. -1.
         11    1    4    4    0    0 -0.95886560430E-01  0.26191831330E-01  0.18112603304E-01  0.10103747829E+00  0.51100000000E-03 0.  1.
</event>
<event>
 8    1  0.1086235E+005  0.1043930E+01  0.7957747E-01            NaN
         13   -1    0    0    0    0  0.00000000000E+00  0.00000000000E+00  0.74505805969E-08  0.10566000000E+00  0.10566000000E+00 0.  1.
     999900   -1    0    0    0    0 -0.00000000000E+00 -0.00000000000E+00 -0.74505805969E-08  0.93827000000E+00  0.93827000000E+00 0. -1.
     999902    2    1    2    0    0  0.23059634752E-01  0.17006033300E-02 -0.12844508499E-02  0.10207720938E+01  0.10205093722E+01 0.  0.
     999903    2    3    3    0    0  0.51206940290E-01  0.11465466034E+00  0.37160937117E-01  0.13227395779E+00  0.18644645046E-01 0.  0.
         14    1    1    2    0    0 -0.23059634752E-01 -0.17006033300E-02  0.12844508499E-02  0.23157906221E-01  0.00000000000E+00 0. -1.
     999901    1    3    3    0    0 -0.28147305538E-01 -0.11295405701E+00 -0.38445387967E-01  0.88849813599E+00  0.88000000000E+00 0. -1.
        -11    1    4    4    0    0  0.23713833995E-01  0.75049050921E-01  0.24266524073E-01  0.82364016892E-01  0.51100000000E-03 0. -1.
         11    1    4    4    0    0  0.27493106294E-01  0.39605609422E-01  0.12894413044E-01  0.49909940895E-01  0.51100000000E-03 0.  1.
</event>
<event>
 8    1  0.1086235E+005  0.1043930E+01  0.7957747E-01            NaN
         13   -1    0    0    0    0  0.00000000000E+00  0.00000000000E+00  0.74505805969E-08  0.10566000000E+00  0.10566000000E+00 0. -1.
     999900   -1    0    0    0    0 -0.00000000000E+00 -0.00000000000E+00 -0.74505805969E-08  0.93827000000E+00  0.93827000000E+00 0.  1.
     999902    2    1    2    0    0 -0.54933861426E-02 -0.21756180854E-01  0.53410275702E-02  0.10208641102E+01  0.10206034961E+01 0.  0.
     999903    2    3    3    0    0 -0.10981493712E+00 -0.62373942184E-01  0.37460610538E-01  0.13319048992E+00  0.19661642488E-01 0.  0.
         14    1    1    2    0    0  0.54933861426E-02  0.21756180854E-01 -0.53410275702E-02  0.23065889798E-01  0.00000000000E+00 0. -1.
     999901    1    3    3    0    0  0.10432155098E+00  0.40617761330E-01 -0.32119582968E-01  0.88767362028E+00  0.88000000000E+00 0. -1.
        -11    1    4    4    0    0 -0.23642730336E-01 -0.17020933068E-01  0.82840439188E-03  0.29148554597E-01  0.51100000000E-03 0. -1.
         11    1    4    4    0    0 -0.86172206783E-01 -0.45353009116E-01  0.36632206146E-01  0.10404193532E+00  0.51100000000E-03 0.  1.
</event>
<event>
 8    1  0.1086235E+005  0.1043930E+01  0.7957747E-01            NaN
         13   -1    0    0    0    0  0.00000000000E+00  0.00000000000E+00  0.74505805969E-08  0.10566000000E+00  0.10566000000E+00 0.  1.
     999900   -1    0    0    0    0 -0.00000000000E+00 -0.00000000000E+00 -0.74505805969E-08  0.93827000000E+00  0.93827000000E+00 0. -1.
     999902    2    1    2    0    0  0.23049252070E-01 -0.25117279767E-02 -0.14427668153E-02  0.10206994517E+01  0.10204350603E+01 0.  0.
     999903    2    3    3    0    0  0.15457637753E-01 -0.80905754076E-01 -0.10071290557E+00  0.13162250543E+00  0.19917705177E-01 0.  0.
         14    1    1    2    0    0 -0.23049252070E-01  0.25117279767E-02  0.14427668153E-02  0.23230548304E-01  0.00000000000E+00 0.  1.
     999901    1    3    3    0    0  0.75916143177E-02  0.78394026099E-01  0.99270138754E-01  0.88907694627E+00  0.88000000000E+00 0.  1.
        -11    1    4    4    0    0  0.80132584555E-03 -0.43509494978E-01 -0.62663233324E-01  0.76293251392E-01  0.51100000000E-03 0.  1.
         11    1    4    4    0    0  0.14656311907E-01 -0.37396259098E-01 -0.38049672245E-01  0.55329254036E-01  0.51100000000E-03 0. -1.
</event>
<event>
 8    1  0.1086235E+005  0.1043930E+01  0.7957747E-01            NaN
         13   -1    0    0    0    0  0.00000000000E+00  0.00000000000E+00  0.74505805969E-08  0.10566000000E+00  0.10566000000E+00 0. -1.
     999900   -1    0    0    0    0 -0.00000000000E+00 -0.00000000000E+00 -0.74505805969E-08  0.93827000000E+00  0.93827000000E+00 0. -1.
     999902    2    1    2    0    0 -0.22580709776E-01 -0.31884795206E-02  0.78170052354E-02  0.10198227308E+01  0.10195377589E+01 0.  0.
     999903    2    3    3    0    0 -0.43699731943E-01 -0.22694668059E-01  0.12096728494E+00  0.13211247952E+00  0.19897454360E-01 0.  0.
         14    1    1    2    0    0  0.22580709776E-01  0.31884795206E-02 -0.78170052354E-02  0.24107269163E-01  0.00000000000E+00 0.  1.
     999901    1    3    3    0    0  0.21119022167E-01  0.19506188538E-01 -0.11315027971E+00  0.88771025131E+00  0.88000000000E+00 0. -1.
        -11    1    4    4    0    0 -0.72278087410E-02  0.14252235599E-02  0.33728467234E-01  0.34527425395E-01  0.51100000000E-03 0. -1.
         11    1    4    4    0    0 -0.36471923202E-01 -0.24119891619E-01  0.87238817706E-01  0.97585054130E-01  0.51100000000E-03 0.  1.
</event>
<event>
 8    1  0.1086235E+005  0.1043930E+01  0.7957747E-01            NaN
         13   -1    0    0    0    0  0.00000000000E+00  0.00000000000E+00  0.74505805969E-08  0.10566000000E+00  0.10566000000E+00 0.  1.
     999900   -1    0    0    0    0 -0.00000000000E+00 -0.00000000000E+00 -0.74505805969E-08  0.93827000000E+00  0.93827000000E+00 0. -1.
     999902    2    1    2    0    0  0.14936669530E-01  0.17425606853E-01 -0.78553566792E-02  0.10196717540E+01  0.10193831583E+01 0.  0.
     999903    2    3    3    0    0  0.21001872462E-01  0.10973687333E+00 -0.68832956430E-01  0.13272394026E+00  0.19859718383E-01 0.  0.
         14    1    1    2    0    0 -0.14936669530E-01 -0.17425606853E-01  0.78553566792E-02  0.24258246009E-01  0.00000000000E+00 0.  1.
     999901    1    3    3    0    0 -0.60652029313E-02 -0.92311266472E-01  0.60977599751E-01  0.88694781373E+00  0.88000000000E+00 0.  1.
        -11    1    4    4    0    0  0.14646472073E-01  0.61832556200E-01 -0.27937169735E-01  0.69415637462E-01  0.51100000000E-03 0. -1.
         11    1    4    4    0    0  0.63554003887E-02  0.47904317125E-01 -0.40895786694E-01  0.63308302802E-01  0.51100000000E-03 0.  1.
</event>
<event>
 8    1  0.1086235E+005  0.1043930E+01  0.7957747E-01            NaN
         13   -1    0    0    0    0  0.00000000000E+00  0.00000000000E+00  0.74505805969E-08  0.10566000000E+00  0.10566000000E+00 0. -1.
     999900   -1    0    0    0    0 -0.00000000000E+00 -0.00000000000E+00 -0.74505805969E-08  0.93827000000E+00  0.93827000000E+00 0.  1.
     999902    2    1    2    0    0  0.13931049239E-01 -0.16227329047E-01 -0.85438179845E-02  0.10208996468E+01  0.10206398443E+01 0.  0.
     999903    2    3    3    0    0 -0.66415782316E-01 -0.11044723145E+00  0.20570442995E-01  0.13175362759E+00  0.18061787965E-01 0.  0.
         14    1    1    2    0    0 -0.13931049239E-01  0.16227329047E-01  0.85438179845E-02  0.23030353160E-01  0.00000000000E+00 0.  1.
     999901    1    3    3    0    0  0.80346831555E-01  0.94219902399E-01 -0.29114260980E-01  0.88914601925E+00  0.88000000000E+00 0.  1.
        -11    1    4    4    0    0 -0.30840503576E-01 -0.34768861243E-01  0.88053301268E-02  0.47305447177E-01  0.51100000000E-03 0. -1.
         11    1    4    4    0    0 -0.35575278740E-01 -0.75678370203E-01  0.11765112868E-01  0.84448180417E-01  0.51100000000E-03 0.  1.
</event>
<event>
 8    1  0.1086235E+005  0.1043930E+01  0.7957747E-01            NaN
         13   -1    0    0    0    0  0.00000000000E+00  0.00000000000E+00  0.74505805969E-08  0.10566000000E+00  0.10566000000E+00 0.  1.
     999900   -1    0    0    0    0 -0.00000000000E+00 -0.00000000000E+00 -0.74505805969E-08  0.93827000000E+00  0.93827000000E+00 0. -1.
     999902    2    1    2    0    0 -0.21975302699E-01 -0.51114213676E-02 -0.64341109161E-02  0.10204685776E+01  0.10201988431E+01 0.  0.
     999903    2    3    3    0    0  0.68719656949E-01  0.10217037603E+00  0.30970751848E-01  0.12854140373E+00  0.20063100786E-01 0.  0.
         14    1    1    2    0    0  0.21975302699E-01  0.51114213676E-02  0.64341109161E-02  0.23461422386E-01  0.00000000000E+00 0. -1.
     999901    1    3    3    0    0 -0.90694959648E-01 -0.10728179740E+00 -0.37404862764E-01  0.89192717389E+00  0.88000000000E+00 0. -1.
        -11    1    4    4    0    0  0.38102383157E-01  0.39284101711E-01  0.15880320730E-01  0.56986647181E-01  0.51100000000E-03 0.  1.
         11    1    4    4    0    0  0.30617273792E-01  0.62886274318E-01  0.15090431119E-01  0.71554756546E-01  0.51100000000E-03 0. -1.
</event>
<event>
 8    1  0.1086235E+005  0.1043930E+01  0.7957747E-01            NaN
         13   -1    0    0    0    0  0.00000000000E+00  0.00000000000E+00  0.74505805969E-08  0.10566000000E+00  0.10566000000E+00 0.  1.
     999900   -1    0    0    0    0 -0.00000000000E+00 -0.00000000000E+00 -0.74505805969E-08  0.93827000000E+00  0.93827000000E+00 0. -1.
     999902    2    1    2    0    0 -0.93980984682E-02  0.21203991911E-01 -0.95729643230E-02  0.10188386634E+01  0.10185296495E+01 0.  0.
     999903    2    3    3    0    0 -0.85475837987E-01  0.74755210209E-01  0.62215143829E-01  0.13102726003E+00  0.20073824171E-01 0.  0.
         14    1    1    2    0    0  0.93980984682E-02 -0.21203991911E-01  0.95729643230E-02  0.25091336626E-01  0.00000000000E+00 0.  1.
     999901    1    3    3    0    0  0.76077739519E-01 -0.53551218298E-01 -0.71788108152E-01  0.88781140334E+00  0.88000000000E+00 0. -1.
        -11    1    4    4    0    0 -0.60805091756E-01  0.63603084088E-01  0.43905455737E-01  0.98339013892E-01  0.51100000000E-03 0.  1.
         11    1    4    4    0    0 -0.24670746231E-01  0.11152126121E-01  0.18309688093E-01  0.32688246140E-01  0.51100000000E-03 0. -1.
</event>
<event>
 8    1  0.1086235E+005  0.1043930E+01  0.7957747E-01            NaN
         13   -1    0    0    0    0  0.00000000000E+00  0.00000000000E+00  0.74505805969E-08  0.10566000000E+00  0.10566000000E+00 0.  1.
     999900   -1    0    0    0    0 -0.00000000000E+00 -0.00000000000E+00 -0.74505805969E-08  0.93827000000E+00  0.93827000000E+00 0. -1.
     999902    2    1    2    0    0  0.49863831253E-02  0.17138634956E-01 -0.17616660369E-01  0.10188512531E+01  0.10185425530E+01 0.  0.
     999903    2    3    3    0    0 -0.10377688080E+00  0.10106953445E-01  0.71045979056E-01  0.12770594744E+00  0.19735409176E-01 0.  0.
         14    1    1    2    0    0 -0.49863831253E-02 -0.17138634956E-01  0.17616660369E-01  0.25078746926E-01  0.00000000000E+00 0. -1.
     999901    1    3    3    0    0  0.10876326392E+00  0.70316815112E-02 -0.88662639425E-01  0.89114530563E+00  0.88000000000E+00 0. -1.
        -11    1    4    4    0    0 -0.66671943397E-01  0.26975562068E-02  0.55513981382E-01  0.86801429111E-01  0.51100000000E-03 0.  1.
         11    1    4    4    0    0 -0.37104937401E-01  0.74093972383E-02  0.15531997674E-01  0.40904518329E-01  0.51100000000E-03 0. -1.
</event>
<event>
 8    1  0.1086235E+005  0.1043930E+01  0.7957747E-01            NaN
         13   -1    0    0    0    0  0.00000000000E+00  0.00000000000E+00  0.74505805969E-08  0.10566000000E+00  0.10566000000E+00 0.  1.
     999900   -1    0    0    0    0 -0.00000000000E+00 -0.00000000000E+00 -0.74505805969E-08  0.93827000000E+00  0.93827000000E+00 0. -1.
     999902    2    1    2    0    0  0.20448952305E-01  0.97617323791E-02  0.78366958323E-02  0.10199536602E+01  0.10196718119E+01 0.  0.
     999903    2    3    3    0    0  0.58661186769E-01 -0.10970141622E+00  0.34682438835E-01  0.13065488438E+00  0.19806354885E-01 0.  0.
         14    1    1    2    0    0 -0.20448952305E-01 -0.97617323791E-02 -0.78366958323E-02  0.23976339816E-01  0.00000000000E+00 0. -1.
     999901    1    3    3    0    0 -0.38212234464E-01  0.11946314860E+00 -0.26845743002E-01  0.88929877581E+00  0.88000000000E+00 0. -1.
        -11    1    4    4    0    0  0.39943575545E-01 -0.66021151542E-01  0.30399673010E-01  0.82937825619E-01  0.51100000000E-03 0.  1.
         11    1    4    4    0    0  0.18717611223E-01 -0.43680264679E-01  0.42827658245E-02  0.47717058757E-01  0.51100000000E-03 0. -1.
</event>
<event>
 8    1  0.1086235E+005  0.1043930E+01  0.7957747E-01            NaN
         13   -1    0    0    0    0  0.00000000000E+00  0.00000000000E+00  0.74505805969E-08  0.10566000000E+00  0.10566000000E+00 0. -1.
     999900   -1    0    0    0    0 -0.00000000000E+00 -0.00000000000E+00 -0.74505805969E-08  0.93827000000E+00  0.93827000000E+00 0. -1.
     999902    2    1    2    0    0  0.16889849635E-01 -0.14963651049E-01 -0.61779426168E-02  0.10205345977E+01  0.10202663967E+01 0.  0.
     999903    2    3    3    0    0  0.12098801509E-01  0.11770524604E+00 -0.48990026723E-01  0.12954814161E+00  0.19539507037E-01 0.  0.
         14    1    1    2    0    0 -0.16889849635E-01  0.14963651049E-01  0.61779426168E-02  0.23395402292E-01  0.00000000000E+00 0. -1.
     999901    1    3    3    0    0  0.47910481263E-02 -0.13266889709E+00  0.42812084106E-01  0.89098645609E+00  0.88000000000E+00 0.  1.
        -11    1    4    4    0    0  0.68608073777E-02  0.32273565807E-01 -0.22535679022E-01  0.39959625596E-01  0.51100000000E-03 0.  1.
         11    1    4    4    0    0  0.52379941312E-02  0.85431680229E-01 -0.26454347701E-01  0.89588516019E-01  0.51100000000E-03 0. -1.
</event>
<event>
 8    1  0.1086235E+005  0.1043930E+01  0.7957747E-01            NaN
         13   -1    0    0    0    0  0.00000000000E+00  0.00000000000E+00  0.74505805969E-08  0.10566000000E+00  0.10566000000E+00 0. -1.
     999900   -1    0    0    0    0 -0.00000000000E+00 -0.00000000000E+00 -0.74505805969E-08  0.93827000000E+00  0.93827000000E+00 0.  1.
     999902    2    1    2    0    0 -0.22150835342E-01  0.45298163104E-02 -0.26272691894E-02  0.10211686010E+01  0.10209148987E+01 0.  0.
     999903    2    3    3    0    0 -0.73072156669E-01 -0.47446686636E-01 -0.98405419174E-01  0.13298619187E+00  0.20272457997E-01 0.  0.
         14    1    1    2    0    0  0.22150835342E-01 -0.45298163104E-02  0.26272691894E-02  0.22761399024E-01  0.00000000000E+00 0. -1.
     999901    1    3    3    0    0  0.50921321328E-01  0.51976502946E-01  0.95778149985E-01  0.88818240910E+00  0.88000000000E+00 0. -1.
        -11    1    4    4    0    0 -0.51198255036E-01 -0.25511858632E-01 -0.74079309678E-01  0.93595520689E-01  0.51100000000E-03 0. -1.
         11    1    4    4    0    0 -0.21873901633E-01 -0.21934828003E-01 -0.24326109496E-01  0.39390671185E-01  0.51100000000E-03 0.  1.
</event>
<event>
 8    1  0.1086235E+005  0.1043930E+01  0.7957747E-01            NaN
         13   -1    0    0    0    0  0.00000000000E+00  0.00000000000E+00  0.74505805969E-08  0.10566000000E+00  0.10566000000E+00 0. -1.
     999900   -1    0    0    0    0 -0.00000000000E+00 -0.00000000000E+00 -0.74505805969E-08  0.93827000000E+00  0.93827000000E+00 0. -1.
     999902    2    1    2    0    0 -0.15072404959E-01  0.29435559934E-02 -0.24878131007E-01  0.10146936645E+01  0.10142723842E+01 0.  0.
     999903    2    3    3    0    0 -0.10665550057E+00  0.52865628964E-02  0.62958936218E-01  0.12558832568E+00  0.20130979800E-01 0.  0.
         14    1    1    2    0    0  0.15072404959E-01 -0.29435559934E-02  0.24878131007E-01  0.29236335535E-01  0.00000000000E+00 0. -1.
     999901    1    3    3    0    0  0.91583095611E-01 -0.23430069030E-02 -0.87837067224E-01  0.88910533879E+00  0.88000000000E+00 0. -1.
        -11    1    4    4    0    0 -0.46662542288E-01 -0.21078392585E-02  0.17223072757E-01  0.49786857657E-01  0.51100000000E-03 0. -1.
         11    1    4    4    0    0 -0.59992958282E-01  0.73944021549E-02  0.45735863460E-01  0.75801468021E-01  0.51100000000E-03 0.  1.
</event>
<event>
 8    1  0.1086235E+005  0.1043930E+01  0.7957747E-01            NaN
         13   -1    0    0    0    0  0.00000000000E+00  0.00000000000E+00  0.74505805969E-08  0.10566000000E+00  0.10566000000E+00 0.  1.
     999900   -1    0    0    0    0 -0.00000000000E+00 -0.00000000000E+00 -0.74505805969E-08  0.93827000000E+00  0.93827000000E+00 0.  1.
     999902    2    1    2    0    0  0.74681852489E-02  0.22056063839E-01 -0.74259506403E-02  0.10194884680E+01  0.10191954415E+01 0.  0.
     999903    2    3    3    0    0  0.98049550827E-01 -0.70700446891E-01 -0.41607671232E-01  0.12933278270E+00  0.19583226690E-01 0.  0.
         14    1    1    2    0    0 -0.74681852489E-02 -0.22056063839E-01  0.74259506403E-02  0.24441531987E-01  0.00000000000E+00 0.  1.
     999901    1    3    3    0    0 -0.90581365578E-01  0.92756510729E-01  0.34181720591E-01  0.89015568531E+00  0.88000000000E+00 0.  1.
        -11    1    4    4    0    0  0.25543566792E-01 -0.98962791951E-02 -0.13950537895E-01  0.30745548863E-01  0.51100000000E-03 0.  1.
         11    1    4    4    0    0  0.72505984035E-01 -0.60804167695E-01 -0.27657133336E-01  0.98587233836E-01  0.51100000000E-03 0. -1.
</event>
<event>
 8    1  0.1086235E+005  0.1043930E+01  0.7957747E-01            NaN
         13   -1    0    0    0    0  0.00000000000E+00  0.00000000000E+00  0.74505805969E-08  0.10566000000E+00  0.10566000000E+00 0.  1.
     999900   -1    0    0    0    0 -0.00000000000E+00 -0.00000000000E+00 -0.74505805969E-08  0.93827000000E+00  0.93827000000E+00 0.  1.
     999902    2    1    2    0    0 -0.55023068725E-02 -0.17796274039E-01 -0.15114660468E-01  0.10199417589E+01  0.10196596274E+01 0.  0.
     999903    2    3    3    0    0  0.52168356183E-01  0.45007258866E-01 -0.11050226632E+00  0.13068983481E+00  0.11040440344E-01 0.  0.
         14    1    1    2    0    0  0.55023068725E-02  0.17796274039E-01  0.15114660468E-01  0.23988241112E-01  0.00000000000E+00 0. -1.
     999901    1    3    3    0    0 -0.57670663056E-01 -0.62803532905E-01  0.95387605855E-01  0.88925192408E+00  0.88000000000E+00 0. -1.
        -11    1    4    4    0    0  0.34383246941E-01  0.32309821208E-01 -0.66275238925E-01  0.81356011654E-01  0.51100000000E-03 0.  1.
         11    1    4    4    0    0  0.17785109243E-01  0.12697437658E-01 -0.44227027398E-01  0.49333823157E-01  0.51100000000E-03 0. -1.
</event>
<event>
 8    1  0.1086235E+005  0.1043930E+01  0.7957747E-01            NaN
         13   -1    0    0    0    0  0.00000000000E+00  0.00000000000E+00  0.74505805969E-08  0.10566000000E+00  0.10566000000E+00 0.  1.
     999900   -1    0    0    0    0 -0.00000000000E+00 -0.00000000000E+00 -0.74505805969E-08  0.93827000000E+00  0.93827000000E+00 0. -1.
     999902    2    1    2    0    0 -0.15967309617E-01 -0.78096782671E-02 -0.15787526508E-01  0.10201562320E+01  0.10198791819E+01 0.  0.
     999903    2    3    3    0    0 -0.30776050075E-02 -0.98268609066E-01 -0.87043390677E-01  0.13256040010E+00  0.18152593058E-01 0.  0.
         14    1    1    2    0    0  0.15967309617E-01  0.78096782671E-02  0.15787526508E-01  0.23773767986E-01  0.00000000000E+00 0.  1.
     999901    1    3    3    0    0 -0.12889704609E-01  0.90458930799E-01  0.71255864169E-01  0.88759583191E+00  0.88000000000E+00 0.  1.
        -11    1    4    4    0    0 -0.53442628271E-02 -0.27905004432E-01 -0.16321236949E-01  0.32770326731E-01  0.51100000000E-03 0.  1.
         11    1    4    4    0    0  0.22666578196E-02 -0.70363604634E-01 -0.70722153728E-01  0.99790073372E-01  0.51100000000E-03 0. -1.
</event>
<event>
 8    1  0.1086235E+005  0.1043930E+01  0.7957747E-01            NaN
         13   -1    0    0    0    0  0.00000000000E+00  0.00000000000E+00  0.74505805969E-08  0.10566000000E+00  0.10566000000E+00 0. -1.
     999900   -1    0    0    0    0 -0.00000000000E+00 -0.00000000000E+00 -0.74505805969E-08  0.93827000000E+00  0.93827000000E+00 0.  1.
     999902    2    1    2    0    0 -0.19727389331E-01 -0.27892702557E-02 -0.12794591880E-01  0.10202519194E+01  0.10199771211E+01 0.  0.
     999903    2    3    3    0    0 -0.40852885686E-01 -0.95649131249E-01 -0.79580731953E-01  0.13259791651E+00  0.20770170621E-01 0.  0.
         14    1    1    2    0    0  0.19727389331E-01  0.27892702557E-02  0.12794591880E-01  0.23678080576E-01  0.00000000000E+00 0. -1.
     999901    1    3    3    0    0  0.21125496355E-01  0.92859860993E-01  0.66786140073E-01  0.88765400291E+00  0.88000000000E+00 0. -1.
        -11    1    4    4    0    0 -0.51192801495E-02 -0.28519623236E-01 -0.14033993904E-01  0.32199224286E-01  0.51100000000E-03 0.  1.
         11    1    4    4    0    0 -0.35733605536E-01 -0.67129508013E-01 -0.65546738049E-01  0.10039869223E+00  0.51100000000E-03 0. -1.
</event>
<event>
 8    1  0.1086235E+005  0.1043930E+01  0.7957747E-01            NaN
         13   -1    0    0    0    0  0.00000000000E+00  0.00000000000E+00  0.74505805969E-08  0.10566000000E+00  0.10566000000E+00 0. -1.
     999900   -1    0    0    0    0 -0.00000000000E+00 -0.00000000000E+00 -0.74505805969E-08  0.93827000000E+00  0.93827000000E+00 0. -1.
     999902    2    1    2    0    0  0.22712735741E-01 -0.11379492470E-02  0.57729236498E-02  0.10204674780E+01  0.10201977179E+01 0.  0.
     999903    2    3    3    0    0 -0.37292383918E-01 -0.90275558483E-02  0.12326092309E+00  0.13059878523E+00  0.19762815545E-01 0.  0.
         14    1    1    2    0    0 -0.22712735741E-01  0.11379492470E-02 -0.57729236498E-02  0.23462522046E-01  0.00000000000E+00 0. -1.
     999901    1    3    3    0    0  0.60005119659E-01  0.78896066012E-02 -0.11748799945E+00  0.88986869272E+00  0.88000000000E+00 0. -1.
        -11    1    4    4    0    0 -0.28796872124E-01 -0.28641595386E-02  0.61749296615E-01  0.68196040996E-01  0.51100000000E-03 0.  1.
         11    1    4    4    0    0 -0.84955117938E-02 -0.61633963096E-02  0.61511626480E-01  0.62402744234E-01  0.51100000000E-03 0. -1.
</event>
<event>
 8    1  0.1086235E+005  0.1043930E+01  0.7957747E-01            NaN
         13   -1    0    0    0    0  0.00000000000E+00  0.00000000000E+00  0.74505805969E-08  0.10566000000E+00  0.10566000000E+00 0. -1.
     999900   -1    0    0    0    0 -0.00000000000E+00 -0.00000000000E+00 -0.74505805969E-08  0.93827000000E+00  0.93827000000E+00 0.  1.
     999902    2    1    2    0    0  0.10509414941E-01 -0.94963357422E-02 -0.18680601121E-01  0.10204865989E+01  0.10202172835E+01 0.  0.
     999903    2    3    3    0    0 -0.67116437421E-01  0.36614014218E-01 -0.10534843909E+00  0.13163157619E+00  0.19579990394E-01 0.  0.
         14    1    1    2    0    0 -0.10509414941E-01  0.94963357422E-02  0.18680601121E-01  0.23443401058E-01  0.00000000000E+00 0. -1.
     999901    1    3    3    0    0  0.77625852362E-01 -0.46110349960E-01  0.86667837966E-01  0.88885502275E+00  0.88000000000E+00 0. -1.
        -11    1    4    4    0    0 -0.10859312346E-01  0.47229493003E-02 -0.30459950572E-01  0.32684868434E-01  0.51100000000E-03 0.  1.
         11    1    4    4    0    0 -0.56257125075E-01  0.31891064917E-01 -0.74888488515E-01  0.98946707759E-01  0.51100000000E-03 0. -1.
</event>
<event>
 8    1  0.1086235E+005  0.1043930E+01  0.7957747E-01            NaN
         13   -1    0    0    0    0  0.00000000000E+00  0.00000000000E+00  0.74505805969E-08  0.10566000000E+00  0.10566000000E+00 0.  1.
     999900   -1    0    0    0    0 -0.00000000000E+00 -0.00000000000E+00 -0.74505805969E-08  0.93827000000E+00  0.93827000000E+00 0.  1.
     999902    2    1    2    0    0  0.36936913708E-02 -0.96587626235E-02 -0.22313584440E-01  0.10193366858E+01  0.10190399639E+01 0.  0.
     999903    2    3    3    0    0  0.41922151825E-01  0.11989154054E+00 -0.10532046411E-01  0.12895277937E+00  0.19658255237E-01 0.  0.
         14    1    1    2    0    0 -0.36936913708E-02  0.96587626235E-02  0.22313584440E-01  0.24593314171E-01  0.00000000000E+00 0.  1.
     999901    1    3    3    0    0 -0.38228460455E-01 -0.12955030317E+00 -0.11781538029E-01  0.89038390646E+00  0.88000000000E+00 0.  1.
        -11    1    4    4    0    0  0.27367201717E-01  0.99258961908E-01 -0.11967680235E-01  0.10365708726E+00  0.51100000000E-03 0. -1.
         11    1    4    4    0    0  0.14554950108E-01  0.20632578635E-01  0.14356338241E-02  0.25295692108E-01  0.51100000000E-03 0.  1.
</event>
<event>
 8    1  0.1086235E+005  0.1043930E+01  0.7957747E-01            NaN
         13   -1    0    0    0    0  0.00000000000E+00  0.00000000000E+00  0.74505805969E-08  0.10566000000E+00  0.10566000000E+00 0. -1.
     999900   -1    0    0    0    0 -0.00000000000E+00 -0.00000000000E+00 -0.74505805969E-08  0.93827000000E+00  0.93827000000E+00 0.  1.
     999902    2    1    2    0    0 -0.15994329174E-01  0.59554735045E-02 -0.17311704076E-01  0.10196198925E+01  0.10193300465E+01 0.  0.
     999903    2    3    3    0    0 -0.77873595522E-01  0.10103876488E+00  0.23968057920E-01  0.13137786765E+00  0.20311263335E-01 0.  0.
         14    1    1    2    0    0  0.15994329174E-01 -0.59554735045E-02  0.17311704076E-01  0.24310107536E-01  0.00000000000E+00 0. -1.
     999901    1    3    3    0    0  0.61879266348E-01 -0.95083291377E-01 -0.41279761996E-01  0.88824202482E+00  0.88000000000E+00 0.  1.
        -11    1    4    4    0    0 -0.70729445467E-01  0.88043483747E-01  0.27258242967E-01  0.11617909630E+00  0.51100000000E-03 0. -1.
         11    1    4    4    0    0 -0.71441500553E-02  0.12995281134E-01 -0.32901850470E-02  0.15198771345E-01  0.51100000000E-03 0.  1.
</event>
<event>
 8    1  0.1086235E+005  0.1043930E+01  0.7957747E-01            NaN
         13   -1    0    0    0    0  0.00000000000E+00  0.00000000000E+00  0.74505805969E-08  0.10566000000E+00  0.10566000000E+00 0.  1.
     999900   -1    0    0    0    0 -0.00000000000E+00 -0.00000000000E+00 -0.74505805969E-08  0.93827000000E+00  0.93827000000E+00 0. -1.
     999902    2    1    2    0    0  0.11430772917E-01 -0.13900573905E-01 -0.14564626691E-01  0.10207779618E+01  0.10205153749E+01 0.  0.
     999903    2    3    3    0    0 -0.43706591025E-01  0.11008767397E+00 -0.44785568129E-01  0.12986465519E+00  0.28801380095E-01 0.  0.
         14    1    1    2    0    0 -0.11430772917E-01  0.13900573905E-01  0.14564626691E-01  0.23152038247E-01  0.00000000000E+00 0.  1.
     999901    1    3    3    0    0  0.55137363942E-01 -0.12398824787E+00  0.30220941438E-01  0.89091330657E+00  0.88000000000E+00 0.  1.
        -11    1    4    4    0    0 -0.21598359575E-01  0.87547861253E-01 -0.30347577009E-01  0.95143857908E-01  0.51100000000E-03 0. -1.
         11    1    4    4    0    0 -0.22108231451E-01  0.22539812716E-01 -0.14437991120E-01  0.34720797279E-01  0.51100000000E-03 0.  1.
</event>
<event>
 8    1  0.1086235E+005  0.1043930E+01  0.7957747E-01            NaN
         13   -1    0    0    0    0  0.00000000000E+00  0.00000000000E+00  0.74505805969E-08  0.10566000000E+00  0.10566000000E+00 0. -1.
     999900   -1    0    0    0    0 -0.00000000000E+00 -0.00000000000E+00 -0.74505805969E-08  0.93827000000E+00  0.93827000000E+00 0. -1.
     999902    2    1    2    0    0 -0.65047674482E-02 -0.77021509202E-02  0.19879492173E-01  0.10216403312E+01  0.10213971494E+01 0.  0.
     999903    2    3    3    0    0  0.41825456024E-01  0.33307913284E-01 -0.11649664005E+00  0.12888275750E+00  0.13435482139E-01 0.  0.
         14    1    1    2    0    0  0.65047674482E-02  0.77021509202E-02 -0.19879492173E-01  0.22289668849E-01  0.00000000000E+00 0.  1.
     999901    1    3    3    0    0 -0.48330223472E-01 -0.41010064204E-01  0.13637613222E+00  0.89275757365E+00  0.88000000000E+00 0.  1.
        -11    1    4    4    0    0  0.27321865914E-01  0.13746885530E-01 -0.59591448229E-01  0.66984050653E-01  0.51100000000E-03 0.  1.
         11    1    4    4    0    0  0.14503590110E-01  0.19561027754E-01 -0.56905191818E-01  0.61898706850E-01  0.51100000000E-03 0. -1.
</event>
<event>
 8    1  0.1086235E+005  0.1043930E+01  0.7957747E-01            NaN
         13   -1    0    0    0    0  0.00000000000E+00  0.00000000000E+00  0.74505805969E-08  0.10566000000E+00  0.10566000000E+00 0. -1.
     999900   -1    0    0    0    0 -0.00000000000E+00 -0.00000000000E+00 -0.74505805969E-08  0.93827000000E+00  0.93827000000E+00 0. -1.
     999902    2    1    2    0    0 -0.58704979657E-02 -0.80824574015E-04  0.22926089195E-01  0.10202640995E+01  0.10199895872E+01 0.  0.
     999903    2    3    3    0    0  0.10156130486E+00 -0.54443797632E-01 -0.53923217037E-01  0.12874699877E+00  0.19729435103E-01 0.  0.
         14    1    1    2    0    0  0.58704979657E-02  0.80824574015E-04 -0.22926089195E-01  0.23665900463E-01  0.00000000000E+00 0.  1.
     999901    1    3    3    0    0 -0.10743180283E+00  0.54362973058E-01  0.76849306231E-01  0.89151710077E+00  0.88000000000E+00 0. -1.
        -11    1    4    4    0    0  0.68894426265E-01 -0.36864197444E-01 -0.46446816693E-01  0.90900929178E-01  0.51100000000E-03 0. -1.
         11    1    4    4    0    0  0.32666878598E-01 -0.17579600188E-01 -0.74764003438E-02  0.37846069588E-01  0.51100000000E-03 0.  1.
</event>
<event>
 8    1  0.1086235E+005  0.1043930E+01  0.7957747E-01            NaN
         13   -1    0    0    0    0  0.00000000000E+00  0.00000000000E+00  0.74505805969E-08  0.10566000000E+00  0.10566000000E+00 0. -1.
     999900   -1    0    0    0    0 -0.00000000000E+00 -0.00000000000E+00 -0.74505805969E-08  0.93827000000E+00  0.93827000000E+00 0.  1.
     999902    2    1    2    0    0  0.62574484241E-02  0.20806293586E-01  0.93495545551E-02  0.10202768462E+01  0.10200026330E+01 0.  0.
     999903    2    3    3    0    0  0.47414819608E-01  0.11720559340E+00  0.38305533166E-01  0.13358343646E+00  0.19796575004E-01 0.  0.
         14    1    1    2    0    0 -0.62574484241E-02 -0.20806293586E-01 -0.93495545551E-02  0.23653153784E-01  0.00000000000E+00 0. -1.
     999901    1    3    3    0    0 -0.41157371183E-01 -0.96399299817E-01 -0.28955978611E-01  0.88669340976E+00  0.88000000000E+00 0.  1.
        -11    1    4    4    0    0  0.38151480088E-01  0.92970110468E-01  0.38540610466E-01  0.10763185704E+00  0.51100000000E-03 0.  1.
         11    1    4    4    0    0  0.92633395194E-02  0.24235482935E-01 -0.23507730029E-03  0.25951579422E-01  0.51100000000E-03 0. -1.
</event>
<event>
 8    1  0.1086235E+005  0.1043930E+01  0.7957747E-01            NaN
         13   -1    0    0    0    0  0.00000000000E+00  0.00000000000E+00  0.74505805969E-08  0.10566000000E+00  0.10566000000E+00 0.  1.
     999900   -1    0    0    0    0 -0.00000000000E+00 -0.00000000000E+00 -0.74505805969E-08  0.93827000000E+00  0.93827000000E+00 0.  1.
     999902    2    1    2    0    0  0.15552902517E-01  0.52477462482E-02  0.15772636145E-01  0.10211658249E+01  0.10209120600E+01 0.  0.
     999903    2    3    3    0    0  0.11124276706E+00  0.34305835615E-01 -0.60073410271E-01  0.13226001127E+00  0.18222304438E-01 0.  0.
         14    1    1    2    0    0 -0.15552902517E-01 -0.52477462482E-02 -0.15772636145E-01  0.22764175108E-01  0.00000000000E+00 0. -1.
     999901    1    3    3    0    0 -0.95689864543E-01 -0.29058089367E-01  0.75846046415E-01  0.88890581362E+00  0.88000000000E+00 0. -1.
        -11    1    4    4    0    0  0.15443946828E-01 -0.37721509121E-03 -0.12181582989E-01  0.19680189784E-01  0.51100000000E-03 0. -1.
         11    1    4    4    0    0  0.95798820233E-01  0.34683050707E-01 -0.47891827282E-01  0.11257982149E+00  0.51100000000E-03 0.  1.
</event>
<event>
 8    1  0.1086235E+005  0.1043930E+01  0.7957747E-01            NaN
         13   -1    0    0    0    0  0.00000000000E+00  0.00000000000E+00  0.74505805969E-08  0.10566000000E+00  0.10566000000E+00 0. -1.
     999900   -1    0    0    0    0 -0.00000000000E+00 -0.00000000000E+00 -0.74505805969E-08  0.93827000000E+00  0.93827000000E+00 0.  1.
     999902    2    1    2    0    0 -0.21908829573E-01  0.17158138087E-02  0.35199731842E-02  0.10216739662E+01  0.10214315259E+01 0.  0.
     999903    2    3    3    0    0 -0.70461513644E-01 -0.84082442782E-01 -0.72269736510E-01  0.13293171779E+00  0.20328420782E-01 0.  0.
         14    1    1    2    0    0  0.21908829573E-01 -0.17158138087E-02 -0.35199731842E-02  0.22256033823E-01  0.00000000000E+00 0.  1.
     999901    1    3    3    0    0  0.48552684070E-01  0.85798256590E-01  0.75789709694E-01  0.88874224838E+00  0.88000000000E+00 0. -1.
        -11    1    4    4    0    0 -0.22752278085E-01 -0.17149558260E-01 -0.26167250579E-01  0.38687977854E-01  0.51100000000E-03 0. -1.
         11    1    4    4    0    0 -0.47709235559E-01 -0.66932884521E-01 -0.46102485932E-01  0.94243739941E-01  0.51100000000E-03 0.  1.
</event>
<event>
 8    1  0.1086235E+005  0.1043930E+01  0.7957747E-01            NaN
         13   -1    0    0    0    0  0.00000000000E+00  0.00000000000E+00  0.74505805969E-08  0.10566000000E+00  0.10566000000E+00 0.  1.
     999900   -1    0    0    0    0 -0.00000000000E+00 -0.00000000000E+00 -0.74505805969E-08  0.93827000000E+00  0.93827000000E+00 0.  1.
     999902    2    1    2    0    0 -0.21735159613E-01 -0.70922130822E-02 -0.67275687221E-02  0.10200977355E+01  0.10198193042E+01 0.  0.
     999903    2    3    3    0    0  0.51060294000E-01  0.53581314124E-01  0.10265259975E+00  0.12827685875E+00  0.20959136644E-01 0.  0.
         14    1    1    2    0    0  0.21735159613E-01  0.70922130822E-02  0.67275687221E-02  0.23832264490E-01  0.00000000000E+00 0.  1.
     999901    1    3    3    0    0 -0.72795453613E-01 -0.60673527207E-01 -0.10938016847E+00  0.89182087676E+00  0.88000000000E+00 0.  1.
        -11    1    4    4    0    0  0.34186964760E-01  0.45721804039E-01  0.66771931451E-01  0.87852056747E-01  0.51100000000E-03 0. -1.
         11    1    4    4    0    0  0.16873329240E-01  0.78595100856E-02  0.35880668299E-01  0.40424802003E-01  0.51100000000E-03 0.  1.
</event>
<event>
 8    1  0.1086235E+005  0.1043930E+01  0.7957747E-01            NaN
         13   -1    0    0    0    0  0.00000000000E+00  0.00000000000E+00  0.74505805969E-08  0.10566000000E+00  0.10566000000E+00 0.  1.
     999900   -1    0    0    0    0 -0.00000000000E+00 -0.00000000000E+00 -0.74505805969E-08  0.93827000000E+00  0.93827000000E+00 0. -1.
     999902    2    1    2    0    0  0.22285947195E-01  0.10059983700E-01 -0.64118900166E-02  0.10186519651E+01  0.10183382773E+01 0.  0.
     999903    2    3    3    0    0 -0.11143028031E+00  0.42186574090E-01 -0.40338798474E-01  0.12732532328E+00  0.19700377729E-01 0.  0.
         14    1    1    2    0    0 -0.22285947195E-01 -0.10059983700E-01  0.64118900166E-02  0.25278034892E-01  0.00000000000E+00 0.  1.
     999901    1    3    3    0    0  0.13371622751E+00 -0.32126590389E-01  0.33926908457E-01  0.89132664182E+00  0.88000000000E+00 0.  1.
        -11    1    4    4    0    0 -0.53118972751E-01  0.22721332789E-01 -0.29600752101E-01  0.64918024275E-01  0.51100000000E-03 0. -1.
         11    1    4    4    0    0 -0.58311307563E-01  0.19465241300E-01 -0.10738046372E-01  0.62407299008E-01  0.51100000000E-03 0.  1.
</event>
<event>
 8    1  0.1086235E+005  0.1043930E+01  0.7957747E-01            NaN
         13   -1    0    0    0    0  0.00000000000E+00  0.00000000000E+00  0.74505805969E-08  0.10566000000E+00  0.10566000000E+00 0. -1.
     999900   -1    0    0    0    0 -0.00000000000E+00 -0.00000000000E+00 -0.74505805969E-08  0.93827000000E+00  0.93827000000E+00 0. -1.
     999902    2    1    2    0    0 -0.22911956092E-01 -0.33616061511E-03  0.26972835968E-02  0.10208573739E+01  0.10205966058E+01 0.  0.
     999903    2    3    3    0    0 -0.62824765217E-01 -0.11419786631E+00  0.12967030003E-01  0.13256519898E+00  0.20427538254E-01 0.  0.
         14    1    1    2    0    0  0.22911956092E-01  0.33616061511E-03 -0.26972835968E-02  0.23072626090E-01  0.00000000000E+00 0.  1.
     999901    1    3    3    0    0  0.39912809126E-01  0.11386170569E+00 -0.10269746406E-01  0.88829217493E+00  0.88000000000E+00 0.  1.
        -11    1    4    4    0    0 -0.23276340328E-01 -0.48164728828E-01  0.15021574168E-01  0.55565618269E-01  0.51100000000E-03 0.  1.
         11    1    4    4    0    0 -0.39548424889E-01 -0.66033137479E-01 -0.20545441648E-02  0.76999580708E-01  0.51100000000E-03 0. -1.
</event>
<event>
 8    1  0.1086235E+005  0.1043930E+01  0.7957747E-01            NaN
         13   -1    0    0    0    0  0.00000000000E+00  0.00000000000E+00  0.74505805969E-08  0.10566000000E+00  0.10566000000E+00 0. -1.
     999900   -1    0    0    0    0 -0.00000000000E+00 -0.00000000000E+00 -0.74505805969E-08  0.93827000000E+00  0.93827000000E+00 0. -1.
     999902    2    1    2    0    0  0.37353106684E-02 -0.10067500579E-01 -0.21392608826E-01  0.10199936088E+01  0.10197127101E+01 0.  0.
     999903    2    3    3    0    0 -0.41225003000E-01 -0.37732248322E-02  0.11872634768E+00  0.12775240275E+00  0.22605147153E-01 0.  0.
         14    1    1    2    0    0 -0.37353106684E-02  0.10067500579E-01  0.21392608826E-01  0.23936391250E-01  0.00000000000E+00 0. -1.
     999901    1    3    3    0    0  0.44960313668E-01 -0.62942757465E-02 -0.14011895650E+00  0.89224120600E+00  0.88000000000E+00 0. -1.
        -11    1    4    4    0    0 -0.93499116175E-02 -0.92751283184E-02  0.51313594771E-01  0.52979193859E-01  0.51100000000E-03 0. -1.
         11    1    4    4    0    0 -0.31875091382E-01  0.55019034862E-02  0.67412752906E-01  0.74773208892E-01  0.51100000000E-03 0.  1.
</event>
<event>
 8    1  0.1208144E+005  0.1043930E+01  0.7957747E-01            NaN
         13   -1    0    0    0    0  0.00000000000E+00  0.00000000000E+00  0.74505805969E-08  0.10566000000E+00  0.10566000000E+00 0. -1.
     999900   -1    0    0    0    0 -0.00000000000E+00 -0.00000000000E+00 -0.74505805969E-08  0.93827000000E+00  0.93827000000E+00 0.  1.
     999902    2    1    2    0    0 -0.16291035558E-02 -0.32342291189E-02  0.24737847138E-01  0.10189284941E+01  0.10186217162E+01 0.  0.
     999903    2    3    3    0    0  0.20475910409E-03 -0.68443782193E-01 -0.10519440440E+00  0.12699910291E+00  0.19450351559E-01 0.  0.
         14    1    1    2    0    0  0.16291035558E-02  0.32342291189E-02 -0.24737847138E-01  0.25001505903E-01  0.00000000000E+00 0.  1.
     999901    1    3    3    0    0 -0.18338626599E-02  0.65209553074E-01  0.12993225154E+00  0.89192939118E+00  0.88000000000E+00 0. -1.
        -11    1    4    4    0    0  0.93281050198E-02 -0.32205506041E-01 -0.55063015864E-01  0.64470186906E-01  0.51100000000E-03 0.  1.
         11    1    4    4    0    0 -0.91233459157E-02 -0.36238276152E-01 -0.50131388540E-01  0.62528916008E-01  0.51100000000E-03 0. -1.
</event>
<event>
 8    1  0.1086235E+005  0.1043930E+01  0.7957747E-01            NaN
         13   -1    0    0    0    0  0.00000000000E+00  0.00000000000E+00  0.74505805969E-08  0.10566000000E+00  0.10566000000E+00 0.  1.
     999900   -1    0    0    0    0 -0.00000000000E+00 -0.00000000000E+00 -0.74505805969E-08  0.93827000000E+00  0.93827000000E+00 0. -1.
     999902    2    1    2    0    0  0.17055392359E-01  0.13842147201E-02  0.17071427270E-01  0.10197590239E+01  0.10194725257E+01 0.  0.
     999903    2    3    3    0    0  0.71915119477E-01  0.10525537917E+00  0.27365801654E-01  0.13189372855E+00  0.19914549330E-01 0.  0.
         14    1    1    2    0    0 -0.17055392359E-01 -0.13842147201E-02 -0.17071427270E-01  0.24170976148E-01  0.00000000000E+00 0. -1.
     999901    1    3    3    0    0 -0.54859727118E-01 -0.10387116445E+00 -0.10294374383E-01  0.88786529531E+00  0.88000000000E+00 0.  1.
        -11    1    4    4    0    0  0.17421425125E-01  0.42106972588E-01  0.80996493462E-02  0.46285728194E-01  0.51100000000E-03 0. -1.
         11    1    4    4    0    0  0.54493694351E-01  0.63148406586E-01  0.19266152308E-01  0.85608000352E-01  0.51100000000E-03 0.  1.
</event>
<event>
 8    1  0.1086235E+005  0.1043930E+01  0.7957747E-01            NaN
         13   -1    0    0    0    0  0.00000000000E+00  0.00000000000E+00  0.74505805969E-08  0.10566000000E+00  0.10566000000E+00 0. -1.
     999900   -1    0    0    0    0 -0.00000000000E+00 -0.00000000000E+00 -0.74505805969E-08  0.93827000000E+00  0.93827000000E+00 0. -1.
     999902    2    1    2    0    0 -0.14236043379E-01  0.16773281819E-01  0.99817397911E-02  0.10197712947E+01  0.10194850908E+01 0.  0.
     999903    2    3    3    0    0 -0.12558391389E+00 -0.23331078171E-01  0.23785443286E-01  0.13174131196E+00  0.21779975418E-01 0.  0.
         14    1    1    2    0    0  0.14236043379E-01 -0.16773281819E-01 -0.99817397911E-02  0.24158705332E-01  0.00000000000E+00 0.  1.
     999901    1    3    3    0    0  0.11134787051E+00  0.40104359990E-01 -0.13803703495E-01  0.88802998271E+00  0.88000000000E+00 0. -1.
        -11    1    4    4    0    0 -0.91049183288E-01 -0.11844144409E-01  0.83218092059E-02  0.92194095058E-01  0.51100000000E-03 0.  1.
         11    1    4    4    0    0 -0.34534730599E-01 -0.11486933762E-01  0.15463634080E-01  0.39547216902E-01  0.51100000000E-03 0. -1.
</event>
<event>
 8    1  0.1086235E+005  0.1043930E+01  0.7957747E-01            NaN
         13   -1    0    0    0    0  0.00000000000E+00  0.00000000000E+00  0.74505805969E-08  0.10566000000E+00  0.10566000000E+00 0.  1.
     999900   -1    0    0    0    0 -0.00000000000E+00 -0.00000000000E+00 -0.74505805969E-08  0.93827000000E+00  0.93827000000E+00 0.  1.
     999902    2    1    2    0    0  0.17076856993E-01  0.11928502731E-01 -0.88644572231E-02  0.10212918282E+01  0.10210408961E+01 0.  0.
     999903    2    3    3    0    0 -0.92714039260E-01 -0.37793562266E-01  0.78536931573E-01  0.12878674280E+00  0.19842607546E-01 0.  0.
         14    1    1    2    0    0 -0.17076856993E-01 -0.11928502731E-01  0.88644572231E-02  0.22638171835E-01  0.00000000000E+00 0.  1.
     999901    1    3    3    0    0  0.10979089625E+00  0.49722064997E-01 -0.87401388797E-01  0.89250508537E+00  0.88000000000E+00 0.  1.
        -11    1    4    4    0    0 -0.26115228407E-01 -0.19669465818E-01  0.30304340637E-01  0.44581467257E-01  0.51100000000E-03 0. -1.
         11    1    4    4    0    0 -0.66598810853E-01 -0.18124096447E-01  0.48232590936E-01  0.84205275538E-01  0.51100000000E-03 0.  1.
</event>
<event>
 7    1  0.1086235E+005  0.1043930E+01  0.7957747E-01            NaN
         13   -1    0    0    0    0  0.00000000000E+00  0.00000000000E+00  0.74505805969E-08  0.10566000000E+00  0.10566000000E+00 0.  1.
     999900   -1    0    0    0    0 -0.00000000000E+00 -0.00000000000E+00 -0.74505805969E-08  0.93827000000E+00  0.93827000000E+00 0.  1.
     999902    2    1    2    0    0 -0.16266948374E-01 -0.12659296912E-01 -0.11465929111E-01  0.10203431618E+01  0.10200705019E+01 0.  0.
         14    1    1    2    0    0  0.16266948374E-01  0.12659296912E-01  0.11465929111E-01  0.23586838238E-01  0.00000000000E+00 0.  1.
     999901    1    3    3    0    0 -0.46703351418E-03 -0.12079373818E+00  0.59081732216E-01  0.89021457884E+00  0.88000000000E+00 0. -1.
        -11    1    3    3    0    0 -0.97709605511E-02  0.61609159233E-01 -0.42155475207E-01  0.75289477235E-01  0.51100000000E-03 0. -1.
         11    1    3    3    0    0 -0.60289543084E-02  0.46525282034E-01 -0.28392186120E-01  0.54839105683E-01  0.51100000000E-03 0.  1.
</event>
<event>
 8    1  0.1086235E+005  0.1043930E+01  0.7957747E-01            NaN
         13   -1    0    0    0    0  0.00000000000E+00  0.00000000000E+00  0.74505805969E-08  0.10566000000E+00  0.10566000000E+00 0. -1.
     999900   -1    0    0    0    0 -0.00000000000E+00 -0.00000000000E+00 -0.74505805969E-08  0.93827000000E+00  0.93827000000E+00 0.  1.
     999902    2    1    2    0    0 -0.18834428675E-01  0.11489759628E-01  0.74062747468E-02  0.10206576304E+01  0.10203922752E+01 0.  0.
     999903    2    3    3    0    0 -0.11079582849E+00 -0.19345148371E-01 -0.66517593809E-01  0.13224757367E+00  0.20368605214E-01 0.  0.
         14    1    1    2    0    0  0.18834428675E-01 -0.11489759628E-01 -0.74062747468E-02  0.23272369571E-01  0.00000000000E+00 0.  1.
     999901    1    3    3    0    0  0.91961399819E-01  0.30834907998E-01  0.73923868556E-01  0.88841005676E+00  0.88000000000E+00 0. -1.
        -11    1    4    4    0    0 -0.44823372759E-01 -0.17818103015E-01 -0.30408208719E-01  0.57022274762E-01  0.51100000000E-03 0.  1.
         11    1    4    4    0    0 -0.65972455735E-01 -0.15270453557E-02 -0.36109385090E-01  0.75225298908E-01  0.51100000000E-03 0. -1.
</event>
<event>
 8    1  0.1086235E+005  0.1043930E+01  0.7957747E-01            NaN
         13   -1    0    0    0    0  0.00000000000E+00  0.00000000000E+00  0.74505805969E-08  0.10566000000E+00  0.10566000000E+00 0. -1.
     999900   -1    0    0    0    0 -0.00000000000E+00 -0.00000000000E+00 -0.74505805969E-08  0.93827000000E+00  0.93827000000E+00 0.  1.
     999902    2    1    2    0    0  0.46017669947E-02 -0.20553345420E-01 -0.92570196586E-02  0.10209232905E+01  0.10206640272E+01 0.  0.
     999903    2    3    3    0    0 -0.11788582691E+00  0.49982736845E-01 -0.34777011818E-02  0.12962538855E+00  0.19882273088E-01 0.  0.
         14    1    1    2    0    0 -0.46017669947E-02  0.20553345420E-01  0.92570196586E-02  0.23006709464E-01  0.00000000000E+00 0.  1.
     999901    1    3    3    0    0  0.12248759390E+00 -0.70536082265E-01 -0.57793184768E-02  0.89129790199E+00  0.88000000000E+00 0.  1.
        -11    1    4    4    0    0 -0.68862838858E-01  0.24633562939E-01  0.69144060158E-02  0.73464094156E-01  0.51100000000E-03 0. -1.
         11    1    4    4    0    0 -0.49022988050E-01  0.25349173906E-01 -0.10392107198E-01  0.56161294394E-01  0.51100000000E-03 0.  1.
</event>
<event>
 8    1  0.1086235E+005  0.1043930E+01  0.7957747E-01            NaN
         13   -1    0    0    0    0  0.00000000000E+00  0.00000000000E+00  0.74505805969E-08  0.10566000000E+00  0.10566000000E+00 0. -1.
     999900   -1    0    0    0    0 -0.00000000000E+00 -0.00000000000E+00 -0.74505805969E-08  0.93827000000E+00  0.93827000000E+00 0.  1.
     999902    2    1    2    0    0  0.15033808947E-01  0.15210104799E-01  0.12851109849E-01  0.10189797751E+01  0.10186742700E+01 0.  0.
     999903    2    3    3    0    0  0.20319500731E-01 -0.80160274818E-01 -0.94894660051E-01  0.12727769547E+00  0.18869644623E-01 0.  0.
         14    1    1    2    0    0 -0.15033808947E-01 -0.15210104799E-01 -0.12851109849E-01  0.24950224925E-01  0.00000000000E+00 0.  1.
     999901    1    3    3    0    0 -0.52856917838E-02  0.95370379618E-01  0.10774576990E+00  0.89170207961E+00  0.88000000000E+00 0. -1.
        -11    1    4    4    0    0  0.68528975897E-02 -0.40712338692E-01 -0.60435777659E-01  0.73192903135E-01  0.51100000000E-03 0.  1.
         11    1    4    4    0    0  0.13466603141E-01 -0.39447936127E-01 -0.34458882392E-01  0.54084792332E-01  0.51100000000E-03 0. -1.
</event>
<event>
 8    1  0.1086235E+005  0.1043930E+01  0.7957747E-01            NaN
         13   -1    0    0    0    0  0.00000000000E+00  0.00000000000E+00  0.74505805969E-08  0.10566000000E+00  0.10566000000E+00 0.  1.
     999900   -1    0    0    0    0 -0.00000000000E+00 -0.00000000000E+00 -0.74505805969E-08  0.93827000000E+00  0.93827000000E+00 0. -1.
     999902    2    1    2    0    0 -0.14426027601E-01  0.18206362598E-01 -0.49330084564E-02  0.10201830742E+01  0.10199066567E+01 0.  0.
     999903    2    3    3    0    0  0.74489228420E-01  0.90087191696E-01  0.54932601361E-01  0.13076940917E+00  0.20462170566E-01 0.  0.
         14    1    1    2    0    0  0.14426027601E-01 -0.18206362598E-01  0.49330084564E-02  0.23746925776E-01  0.00000000000E+00 0. -1.
     999901    1    3    3    0    0 -0.88915256021E-01 -0.71880829098E-01 -0.59865609818E-01  0.88941366505E+00  0.88000000000E+00 0. -1.
        -11    1    4    4    0    0  0.62969228056E-01  0.62995061141E-01  0.38348784992E-01  0.96976243696E-01  0.51100000000E-03 0.  1.
         11    1    4    4    0    0  0.11520000364E-01  0.27092130555E-01  0.16583816369E-01  0.33793165474E-01  0.51100000000E-03 0. -1.
</event>
<event>
 8    1  0.1086235E+005  0.1043930E+01  0.7957747E-01            NaN
         13   -1    0    0    0    0  0.00000000000E+00  0.00000000000E+00  0.74505805969E-08  0.10566000000E+00  0.10566000000E+00 0. -1.
     999900   -1    0    0    0    0 -0.00000000000E+00 -0.00000000000E+00 -0.74505805969E-08  0.93827000000E+00  0.93827000000E+00 0. -1.
     999902    2    1    2    0    0 -0.12789189413E-02 -0.22810474151E-01  0.53334485027E-02  0.10204694152E+01  0.10201997002E+01 0.  0.
     999903    2    3    3    0    0  0.94976235682E-01 -0.69366578264E-01  0.57787393308E-01  0.13244692568E+00  0.19250916163E-01 0.  0.
         14    1    1    2    0    0  0.12789189413E-02  0.22810474151E-01 -0.53334485027E-02  0.23460584767E-01  0.00000000000E+00 0.  1.
     999901    1    3    3    0    0 -0.96255154623E-01  0.46556104113E-01 -0.52453944805E-01  0.88802248955E+00  0.88000000000E+00 0. -1.
        -11    1    4    4    0    0  0.11436044675E-01 -0.14279885821E-01  0.14793052540E-01  0.23532823488E-01  0.51100000000E-03 0.  1.
         11    1    4    4    0    0  0.83540191007E-01 -0.55086692443E-01  0.42994340767E-01  0.10891410219E+00  0.51100000000E-03 0. -1.
</event>
<event>
 8    1  0.1086235E+005  0.1043930E+01  0.7957747E-01            NaN
         13   -1    0    0    0    0  0.00000000000E+00  0.00000000000E+00  0.74505805969E-08  0.10566000000E+00  0.10566000000E+00 0.  1.
     999900   -1    0    0    0    0 -0.00000000000E+00 -0.00000000000E+00 -0.74505805969E-08  0.93827000000E+00  0.93827000000E+00 0. -1.
     999902    2    1    2    0    0  0.31897784661E-02 -0.23467135672E-01  0.22805605820E-02  0.10201375201E+01  0.10198600285E+01 0.  0.
     999903    2    3    3    0    0 -0.10098352087E+00 -0.68770553222E-01  0.44885000655E-01  0.13181347210E+00  0.20810277890E-01 0.  0.
         14    1    1    2    0    0 -0.31897784661E-02  0.23467135672E-01 -0.22805605820E-02  0.23792479901E-01  0.00000000000E+00 0.  1.
     999901    1    3    3    0    0  0.10417329934E+00  0.45303417550E-01 -0.42604440073E-01  0.88832404800E+00  0.88000000000E+00 0. -1.
        -11    1    4    4    0    0 -0.30307043061E-01 -0.31599079672E-01  0.11598952249E-01  0.45296970202E-01  0.51100000000E-03 0.  1.
         11    1    4    4    0    0 -0.70676477809E-01 -0.37171473549E-01  0.33286048406E-01  0.86516501899E-01  0.51100000000E-03 0. -1.
</event>
<event>
 8    1  0.1086235E+005  0.1043930E+01  0.7957747E-01            NaN
         13   -1    0    0    0    0  0.00000000000E+00  0.00000000000E+00  0.74505805969E-08  0.10566000000E+00  0.10566000000E+00 0. -1.
     999900   -1    0    0    0    0 -0.00000000000E+00 -0.00000000000E+00 -0.74505805969E-08  0.93827000000E+00  0.93827000000E+00 0.  1.
     999902    2    1    2    0    0 -0.20139461952E-01  0.78345843688E-02  0.43458970057E-02  0.10218876439E+01  0.10216498869E+01 0.  0.
     999903    2    3    3    0    0 -0.76302643236E-02 -0.97761969694E-01 -0.84528467895E-01  0.13104211019E+00  0.20281743208E-01 0.  0.
         14    1    1    2    0    0  0.20139461952E-01 -0.78345843688E-02 -0.43458970057E-02  0.22042356061E-01  0.00000000000E+00 0. -1.
     999901    1    3    3    0    0 -0.12509197628E-01  0.10559655406E+00  0.88874364901E-01  0.89084553374E+00  0.88000000000E+00 0. -1.
        -11    1    4    4    0    0 -0.19008814210E-02 -0.89085404420E-01 -0.70782767867E-01  0.11379931449E+00  0.51100000000E-03 0. -1.
         11    1    4    4    0    0 -0.57293829026E-02 -0.86765652734E-02 -0.13745700028E-01  0.17242795703E-01  0.51100000000E-03 0.  1.
</event>
<event>
 8    1  0.1086235E+005  0.1043930E+01  0.7957747E-01            NaN
         13   -1    0    0    0    0  0.00000000000E+00  0.00000000000E+00  0.74505805969E-08  0.10566000000E+00  0.10566000000E+00 0. -1.
     999900   -1    0    0    0    0 -0.00000000000E+00 -0.00000000000E+00 -0.74505805969E-08  0.93827000000E+00  0.93827000000E+00 0.  1.
     999902    2    1    2    0    0  0.40738129148E-02  0.22457658047E-01 -0.86383278135E-02  0.10195258392E+01  0.10192337189E+01 0.  0.
     999903    2    3    3    0    0 -0.31353701832E-01 -0.12552840919E-01  0.12230329555E+00  0.12844416362E+00  0.19979455205E-01 0.  0.
         14    1    1    2    0    0 -0.40738129148E-02 -0.22457658047E-01  0.86383278135E-02  0.24404160793E-01  0.00000000000E+00 0. -1.
     999901    1    3    3    0    0  0.35427514747E-01  0.35010498966E-01 -0.13094162337E+00  0.89108167559E+00  0.88000000000E+00 0.  1.
        -11    1    4    4    0    0 -0.23686508217E-01 -0.17621665997E-01  0.10122259472E+00  0.10544120915E+00  0.51100000000E-03 0. -1.
         11    1    4    4    0    0 -0.76671936150E-02  0.50688250785E-02  0.21080700835E-01  0.23002954469E-01  0.51100000000E-03 0.  1.
</event>
<event>
 8    1  0.1086235E+005  0.1043930E+01  0.7957747E-01            NaN
         13   -1    0    0    0    0  0.00000000000E+00  0.00000000000E+00  0.74505805969E-08  0.10566000000E+00  0.10566000000E+00 0. -1.
     999900   -1    0    0    0    0 -0.00000000000E+00 -0.00000000000E+00 -0.74505805969E-08  0.93827000000E+00  0.93827000000E+00 0.  1.
     999902    2    1    2    0    0 -0.12971391006E-01 -0.16734819299E-01  0.10017500558E-01  0.10205064759E+01  0.10202376223E+01 0.  0.
     999903    2    3    3    0    0  0.55974433629E-01 -0.58104055861E-01 -0.99867192070E-01  0.13003492326E+00  0.20649617148E-01 0.  0.
         14    1    1    2    0    0  0.12971391006E-01  0.16734819299E-01 -0.10017500558E-01  0.23423524052E-01  0.00000000000E+00 0. -1.
     999901    1    3    3    0    0 -0.68945824634E-01  0.41369236562E-01  0.10988469263E+00  0.89047155269E+00  0.88000000000E+00 0. -1.
        -11    1    4    4    0    0  0.13522537455E-01 -0.24348942658E-01 -0.44707153097E-01  0.52675617574E-01  0.51100000000E-03 0. -1.
         11    1    4    4    0    0  0.42451896173E-01 -0.33755113203E-01 -0.55160038974E-01  0.77359305689E-01  0.51100000000E-03 0.  1.
</event>
<event>
 8    1  0.1086235E+005  0.1043930E+01  0.7957747E-01            NaN
         13   -1    0    0    0    0  0.00000000000E+00  0.00000000000E+00  0.74505805969E-08  0.10566000000E+00  0.10566000000E+00 0. -1.
     999900   -1    0    0    0    0 -0.00000000000E+00 -0.00000000000E+00 -0.74505805969E-08  0.93827000000E+00  0.93827000000E+00 0. -1.
     999902    2    1    2    0    0  0.45162733243E-02 -0.23574623732E-01 -0.86817197016E-03  0.10199109798E+01  0.10196281152E+01 0.  0.
     999903    2    3    3    0    0  0.38301983313E-01 -0.58168768458E-01 -0.11007139644E+00  0.13184365505E+00  0.20405624537E-01 0.  0.
         14    1    1    2    0    0 -0.45162733243E-02  0.23574623732E-01  0.86817197016E-03  0.24019020201E-01  0.00000000000E+00 0.  1.
     999901    1    3    3    0    0 -0.33785709989E-01  0.34594144725E-01  0.10920322447E+00  0.88806732475E+00  0.88000000000E+00 0.  1.
        -11    1    4    4    0    0  0.40603216312E-01 -0.53454337343E-01 -0.10422322297E+00  0.12397067671E+00  0.51100000000E-03 0.  1.
         11    1    4    4    0    0 -0.23012329994E-02 -0.47144311150E-02 -0.58481734734E-02  0.78729783456E-02  0.51100000000E-03 0. -1.
</event>
<event>
 8    1  0.1086235E+005  0.1043930E+01  0.7957747E-01            NaN
         13   -1    0    0    0    0  0.00000000000E+00  0.00000000000E+00  0.74505805969E-08  0.10566000000E+00  0.10566000000E+00 0.  1.
     999900   -1    0    0    0    0 -0.00000000000E+00 -0.00000000000E+00 -0.74505805969E-08  0.93827000000E+00  0.93827000000E+00 0. -1.
     999902    2    1    2    0    0 -0.57548691709E-02 -0.20723688897E-01  0.11032706285E-01  0.10197574865E+01  0.10194709515E+01 0.  0.
     999903    2    3    3    0    0  0.13473675800E-01  0.11788286411E+00  0.43901326497E-01  0.12809507299E+00  0.20077640941E-01 0.  0.
         14    1    1    2    0    0  0.57548691709E-02  0.20723688897E-01 -0.11032706285E-01  0.24172513495E-01  0.00000000000E+00 0.  1.
     999901    1    3    3    0    0 -0.19228544971E-01 -0.13860655301E+00 -0.32868620212E-01  0.89166241351E+00  0.88000000000E+00 0.  1.
        -11    1    4    4    0    0  0.13536951858E-01  0.40103264275E-01  0.19248408495E-01  0.46500357221E-01  0.51100000000E-03 0. -1.
         11    1    4    4    0    0 -0.63276057595E-04  0.77779599837E-01  0.24652918002E-01  0.81594715770E-01  0.51100000000E-03 0.  1.
</event>
<event>
 8    1  0.1086235E+005  0.1043930E+01  0.7957747E-01            NaN
         13   -1    0    0    0    0  0.00000000000E+00  0.00000000000E+00  0.74505805969E-08  0.10566000000E+00  0.10566000000E+00 0. -1.
     999900   -1    0    0    0    0 -0.00000000000E+00 -0.00000000000E+00 -0.74505805969E-08  0.93827000000E+00  0.93827000000E+00 0. -1.
     999902    2    1    2    0    0 -0.13101872850E-01 -0.16390839514E-01 -0.10739816324E-01  0.10203575087E+01  0.10200851843E+01 0.  0.
     999903    2    3    3    0    0 -0.12775642713E+00  0.24369376973E-01  0.11357371641E-01  0.13170946374E+00  0.17401774051E-01 0.  0.
         14    1    1    2    0    0  0.13101872850E-01  0.16390839514E-01  0.10739816324E-01  0.23572491316E-01  0.00000000000E+00 0.  1.
     999901    1    3    3    0    0  0.11465455428E+00 -0.40760216487E-01 -0.22097187965E-01  0.88864804494E+00  0.88000000000E+00 0. -1.
        -11    1    4    4    0    0 -0.98862442403E-01  0.16645533727E-01  0.15719623512E-01  0.10148016553E+00  0.51100000000E-03 0.  1.
         11    1    4    4    0    0 -0.28893984731E-01  0.77238432466E-02 -0.43622518708E-02  0.30229298214E-01  0.51100000000E-03 0. -1.
</event>
<event>
 8    1  0.1086235E+005  0.1043930E+01  0.7957747E-01            NaN
         13   -1    0    0    0    0  0.00000000000E+00  0.00000000000E+00  0.74505805969E-08  0.10566000000E+00  0.10566000000E+00 0. -1.
     999900   -1    0    0    0    0 -0.00000000000E+00 -0.00000000000E+00 -0.74505805969E-08  0.93827000000E+00  0.93827000000E+00 0. -1.
     999902    2    1    2    0    0 -0.20814641672E-01  0.11572341549E-01  0.33560196619E-02  0.10198794020E+01  0.10195957843E+01 0.  0.
     999903    2    3    3    0    0 -0.81011286987E-01 -0.24867828630E-01  0.99302356848E-01  0.13187195735E+00  0.18655228213E-01 0.  0.
         14    1    1    2    0    0  0.20814641672E-01 -0.11572341549E-01 -0.33560196619E-02  0.24050598014E-01  0.00000000000E+00 0. -1.
     999901    1    3    3    0    0  0.60196645316E-01  0.36440170179E-01 -0.95946337186E-01  0.88800744464E+00  0.88000000000E+00 0.  1.
        -11    1    4    4    0    0 -0.72223604163E-01 -0.19409051261E-01  0.77318798105E-01  0.10757052538E+00  0.51100000000E-03 0.  1.
         11    1    4    4    0    0 -0.87876828239E-02 -0.54587773693E-02  0.21983558743E-01  0.24301431970E-01  0.51100000000E-03 0. -1.
</event>
<event>
 8    1  0.1086235E+005  0.1043930E+01  0.7957747E-01            NaN
         13   -1    0    0    0    0  0.00000000000E+00  0.00000000000E+00  0.74505805969E-08  0.10566000000E+00  0.10566000000E+00 0. -1.
     999900   -1    0    0    0    0 -0.00000000000E+00 -0.00000000000E+00 -0.74505805969E-08  0.93827000000E+00  0.93827000000E+00 0. -1.
     999902    2    1    2    0    0  0.65939139766E-02 -0.17651524838E-01  0.15764731793E-01  0.10193620778E+01  0.10190659758E+01 0.  0.
     999903    2    3    3    0    0 -0.53571939562E-01 -0.95942626651E-01  0.70449205901E-01  0.13215307301E+00  0.20649546616E-01 0.  0.
         14    1    1    2    0    0 -0.65939139766E-02  0.17651524838E-01 -0.15764731793E-01  0.24567922158E-01  0.00000000000E+00 0.  1.
     999901    1    3    3    0    0  0.60165853539E-01  0.78291101813E-01 -0.54684474108E-01  0.88720900484E+00  0.88000000000E+00 0.  1.
        -11    1    4    4    0    0 -0.23830483285E-01 -0.59335768151E-01  0.33196752658E-01  0.72047975847E-01  0.51100000000E-03 0.  1.
         11    1    4    4    0    0 -0.29741456278E-01 -0.36606858500E-01  0.37252453243E-01  0.60105097158E-01  0.51100000000E-03 0. -1.
</event>
<event>
 8    1  0.1086235E+005  0.1043930E+01  0.7957747E-01            NaN
         13   -1    0    0    0    0  0.00000000000E+00  0.00000000000E+00  0.74505805969E-08  0.10566000000E+00  0.10566000000E+00 0. -1.
     999900   -1    0    0    0    0 -0.00000000000E+00 -0.00000000000E+00 -0.74505805969E-08  0.93827000000E+00  0.93827000000E+00 0. -1.
     999902    2    1    2    0    0 -0.56611544010E-02 -0.20192049789E-01  0.98863739879E-02  0.10207457826E+01  0.10204824569E+01 0.  0.
     999903    2    3    3    0    0 -0.57560426101E-01  0.46133510833E-01 -0.10436600652E+00  0.12937256067E+00  0.20087126796E-01 0.  0.
         14    1    1    2    0    0  0.56611544010E-02  0.20192049789E-01 -0.98863739879E-02  0.23184217357E-01  0.00000000000E+00 0.  1.
     999901    1    3    3    0    0  0.51899271700E-01 -0.66325560622E-01  0.11425238051E+00  0.89137322197E+00  0.88000000000E+00 0.  1.
        -11    1    4    4    0    0 -0.15053561845E-01  0.24470107488E-01 -0.38400451263E-01  0.47960938929E-01  0.51100000000E-03 0.  1.
         11    1    4    4    0    0 -0.42506864257E-01  0.21663403345E-01 -0.65965555258E-01  0.81411621743E-01  0.51100000000E-03 0. -1.
</event>
<event>
 8    1  0.1086235E+005  0.1043930E+01  0.7957747E-01            NaN
         13   -1    0    0    0    0  0.00000000000E+00  0.00000000000E+00  0.74505805969E-08  0.10566000000E+00  0.10566000000E+00 0.  1.
     999900   -1    0    0    0    0 -0.00000000000E+00 -0.00000000000E+00 -0.74505805969E-08  0.93827000000E+00  0.93827000000E+00 0. -1.
     999902    2    1    2    0    0  0.16980568865E-01 -0.17927731665E-01  0.15329559732E-02  0.10191894819E+01  0.10188891533E+01 0.  0.
     999903    2    3    3    0    0  0.88855693417E-01  0.67922964907E-01  0.65165696950E-01  0.12981582513E+00  0.98344792518E-02 0.  0.
         14    1    1    2    0    0 -0.16980568865E-01  0.17927731665E-01 -0.15329559732E-02  0.24740518096E-01  0.00000000000E+00 0.  1.
     999901    1    3    3    0    0 -0.71875124552E-01 -0.85850696572E-01 -0.63632740977E-01  0.88937365677E+00  0.88000000000E+00 0. -1.
        -11    1    4    4    0    0  0.48988301325E-01  0.42148419576E-01  0.41098018549E-01  0.76587539386E-01  0.51100000000E-03 0. -1.
         11    1    4    4    0    0  0.39867392091E-01  0.25774545331E-01  0.24067678401E-01  0.53228285749E-01  0.51100000000E-03 0.  1.
</event>
<event>
 8    1  0.1086235E+005  0.1043930E+01  0.7957747E-01            NaN
         13   -1    0    0    0    0  0.00000000000E+00  0.00000000000E+00  0.74505805969E-08  0.10566000000E+00  0.10566000000E+00 0. -1.
     999900   -1    0    0    0    0 -0.00000000000E+00 -0.00000000000E+00 -0.74505805969E-08  0.93827000000E+00  0.93827000000E+00 0.  1.
     999902    2    1    2    0    0 -0.13335298991E-01  0.54492996803E-02  0.18523059308E-01  0.10204645191E+01  0.10201946903E+01 0.  0.
     999903    2    3    3    0    0  0.11322685319E+00  0.57846440831E-01 -0.11506230738E-01  0.12936115979E+00  0.20865888859E-01 0.  0.
         14    1    1    2    0    0  0.13335298991E-01 -0.54492996803E-02 -0.18523059308E-01  0.23465480867E-01  0.00000000000E+00 0.  1.
     999901    1    3    3    0    0 -0.12656215218E+00 -0.52397141150E-01  0.30029290045E-01  0.89110335934E+00  0.88000000000E+00 0.  1.
        -11    1    4    4    0    0  0.71793484527E-01  0.28429307446E-01 -0.14022766208E-01  0.78482030016E-01  0.51100000000E-03 0.  1.
         11    1    4    4    0    0  0.41433368661E-01  0.29417133385E-01  0.25165354700E-02  0.50879129778E-01  0.51100000000E-03 0. -1.
</event>
<event>
 8    1  0.1212578E+005  0.1043930E+01  0.7957747E-01            NaN
         13   -1    0    0    0    0  0.00000000000E+00  0.00000000000E+00  0.74505805969E-08  0.10566000000E+00  0.10566000000E+00 0.  1.
     999900   -1    0    0    0    0 -0.00000000000E+00 -0.00000000000E+00 -0.74505805969E-08  0.93827000000E+00  0.93827000000E+00 0. -1.
     999902    2    1    2    0    0 -0.37555206281E-02 -0.14972626973E-01  0.17846553457E-01  0.10203337511E+01  0.10200608710E+01 0.  0.
     999903    2    3    3    0    0  0.98438580470E-01 -0.54736890335E-01 -0.61661182923E-01  0.12997072898E+00  0.20099940912E-01 0.  0.
         14    1    1    2    0    0  0.37555206281E-02  0.14972626973E-01 -0.17846553457E-01  0.23596248938E-01  0.00000000000E+00 0. -1.
     999901    1    3    3    0    0 -0.10219410110E+00  0.39764263362E-01  0.79507736380E-01  0.89036302208E+00  0.88000000000E+00 0.  1.
        -11    1    4    4    0    0  0.45405391772E-01 -0.14737270905E-01 -0.29993425050E-01  0.56379991335E-01  0.51100000000E-03 0. -1.
         11    1    4    4    0    0  0.53033188697E-01 -0.39999619430E-01 -0.31667757874E-01  0.73590737649E-01  0.51100000000E-03 0.  1.
</event>
<event>
 8    1  0.1086235E+005  0.1043930E+01  0.7957747E-01            NaN
         13   -1    0    0    0    0  0.00000000000E+00  0.00000000000E+00  0.74505805969E-08  0.10566000000E+00  0.10566000000E+00 0. -1.
     999900   -1    0    0    0    0 -0.00000000000E+00 -0.00000000000E+00 -0.74505805969E-08  0.93827000000E+00  0.93827000000E+00 0. -1.
     999902    2    1    2    0    0 -0.18371072263E-01  0.74747627847E-02 -0.34240192923E-02  0.10238030955E+01  0.10236052394E+01 0.  0.
     999903    2    3    3    0    0  0.52533639898E-02  0.75474624530E-01 -0.10927415806E+00  0.13454140905E+00  0.20893356605E-01 0.  0.
         14    1    1    2    0    0  0.18371072263E-01 -0.74747627847E-02  0.34240192923E-02  0.20126904453E-01  0.00000000000E+00 0.  1.
     999901    1    3    3    0    0 -0.23624436252E-01 -0.67999861746E-01  0.10585013876E+00  0.88926168649E+00  0.88000000000E+00 0.  1.
        -11    1    4    4    0    0 -0.75256785554E-02  0.25424709099E-01 -0.42875190794E-01  0.50414231890E-01  0.51100000000E-03 0.  1.
         11    1    4    4    0    0  0.12779042545E-01  0.50049915431E-01 -0.66398967263E-01  0.84127177164E-01  0.51100000000E-03 0. -1.
</event>
<event>
 8    1  0.1086235E+005  0.1043930E+01  0.7957747E-01            NaN
         13   -1    0    0    0    0  0.00000000000E+00  0.00000000000E+00  0.74505805969E-08  0.10566000000E+00  0.10566000000E+00 0. -1.
     999900   -1    0    0    0    0 -0.00000000000E+00 -0.00000000000E+00 -0.74505805969E-08  0.93827000000E+00  0.93827000000E+00 0.  1.
     999902    2    1    2    0    0  0.12047633425E-01 -0.18693879967E-02  0.19854512588E-01  0.10206310354E+01  0.10203650663E+01 0.  0.
     999903    2    3    3    0    0 -0.18319407862E-01  0.12752302734E+00  0.30664213846E-02  0.13049262234E+00  0.20523117204E-01 0.  0.
         14    1    1    2    0    0 -0.12047633425E-01  0.18693879967E-02 -0.19854512588E-01  0.23298964628E-01  0.00000000000E+00 0. -1.
     999901    1    3    3    0    0  0.30367041287E-01 -0.12939241534E+00  0.16788091203E-01  0.89013841303E+00  0.88000000000E+00 0. -1.
        -11    1    4    4    0    0 -0.74981262939E-03  0.66441248095E-01  0.69722681799E-02  0.66812239238E-01  0.51100000000E-03 0. -1.
         11    1    4    4    0    0 -0.17569595233E-01  0.61081779245E-01 -0.39058467952E-02  0.63680383106E-01  0.51100000000E-03 0.  1.
</event>
<event>
 7    1  0.2422192E+005  0.1043930E+01  0.7957747E-01            NaN
         13   -1    0    0    0    0  0.00000000000E+00  0.00000000000E+00  0.74505805969E-08  0.10566000000E+00  0.10566000000E+00 0. -1.
     999900   -1    0    0    0    0 -0.00000000000E+00 -0.00000000000E+00 -0.74505805969E-08  0.93827000000E+00  0.93827000000E+00 0.  1.
     999903    2    1    2    0    0 -0.51959437217E-01  0.39025099584E-01  0.67758939388E-01  0.96095204818E-01  0.20500561173E-01 0.  0.
         14    1    1    2    0    0 -0.40519775373E-01  0.35110072292E-02  0.38018800620E-01  0.55674128360E-01  0.00000000000E+00 0.  1.
     999901    1    1    2    0    0  0.92479212590E-01 -0.42536106813E-01 -0.10577774001E+00  0.89216066682E+00  0.88000000000E+00 0.  1.
        -11    1    3    3    0    0 -0.25609979667E-01  0.31483642762E-01  0.43436015154E-01  0.59447786785E-01  0.51100000000E-03 0. -1.
         11    1    3    3    0    0 -0.26349457550E-01  0.75414568221E-02  0.24322924234E-01  0.36647418033E-01  0.51100000000E-03 0.  1.
</event>
<event>
 8    1  0.1086235E+005  0.1043930E+01  0.7957747E-01            NaN
         13   -1    0    0    0    0  0.00000000000E+00  0.00000000000E+00  0.74505805969E-08  0.10566000000E+00  0.10566000000E+00 0.  1.
     999900   -1    0    0    0    0 -0.00000000000E+00 -0.00000000000E+00 -0.74505805969E-08  0.93827000000E+00  0.93827000000E+00 0. -1.
     999902    2    1    2    0    0  0.55585119744E-02  0.22774224262E-01 -0.20982381666E-04  0.10204872445E+01  0.10202179440E+01 0.  0.
     999903    2    3    3    0    0  0.60191838399E-01  0.27400787521E-01  0.11199518067E+00  0.13169377790E+00  0.20651151975E-01 0.  0.
         14    1    1    2    0    0 -0.55585119744E-02 -0.22774224262E-01  0.20982381666E-04  0.23442755520E-01  0.00000000000E+00 0.  1.
     999901    1    3    3    0    0 -0.54633326425E-01 -0.46265632594E-02 -0.11201616305E+00  0.88879346658E+00  0.88000000000E+00 0. -1.
        -11    1    4    4    0    0  0.38292297221E-01  0.67099269041E-02  0.57247196333E-01  0.69201342144E-01  0.51100000000E-03 0. -1.
         11    1    4    4    0    0  0.21899541178E-01  0.20690860617E-01  0.54747984340E-01  0.62492435760E-01  0.51100000000E-03 0.  1.
</event>
<event>
 8    1  0.1086235E+005  0.1043930E+01  0.7957747E-01            NaN
         13   -1    0    0    0    0  0.00000000000E+00  0.00000000000E+00  0.74505805969E-08  0.10566000000E+00  0.10566000000E+00 0. -1.
     999900   -1    0    0    0    0 -0.00000000000E+00 -0.00000000000E+00 -0.74505805969E-08  0.93827000000E+00  0.93827000000E+00 0. -1.
     999902    2    1    2    0    0 -0.15657414266E-01  0.83232667494E-02  0.16845403585E-01  0.10194718927E+01  0.10191784638E+01 0.  0.
     999903    2    3    3    0    0  0.57149293024E-01  0.54017303716E-01  0.10295821723E+00  0.13110024844E+00  0.20074108997E-01 0.  0.
         14    1    1    2    0    0  0.15657414266E-01 -0.83232667494E-02 -0.16845403585E-01  0.24458107303E-01  0.00000000000E+00 0.  1.
     999901    1    3    3    0    0 -0.72806707290E-01 -0.45694036967E-01 -0.86112813649E-01  0.88837164425E+00  0.88000000000E+00 0. -1.
        -11    1    4    4    0    0  0.30401502822E-01  0.16089214547E-01  0.37915696958E-01  0.51195462645E-01  0.51100000000E-03 0.  1.
         11    1    4    4    0    0  0.26747790202E-01  0.37928089169E-01  0.65042520275E-01  0.79904785798E-01  0.51100000000E-03 0. -1.
</event>
<event>
 8    1  0.1086235E+005  0.1043930E+01  0.7957747E-01            NaN
         13   -1    0    0    0    0  0.00000000000E+00  0.00000000000E+00  0.74505805969E-08  0.10566000000E+00  0.10566000000E+00 0.  1.
     999900   -1    0    0    0    0 -0.00000000000E+00 -0.00000000000E+00 -0.74505805969E-08  0.93827000000E+00  0.93827000000E+00 0. -1.
     999902    2    1    2    0    0 -0.16530262406E-01 -0.11453536963E-02 -0.17908390423E-01  0.10195318063E+01  0.10192398305E+01 0.  0.
     999903    2    3    3    0    0 -0.17181702191E-01  0.95356977533E-01  0.82205986831E-01  0.12861317202E+00  0.19883653861E-01 0.  0.
         14    1    1    2    0    0  0.16530262406E-01  0.11453536963E-02  0.17908390423E-01  0.24398193741E-01  0.00000000000E+00 0.  1.
     999901    1    3    3    0    0  0.65143978565E-03 -0.96502331229E-01 -0.10011437725E+00  0.89091863424E+00  0.88000000000E+00 0. -1.
        -11    1    4    4    0    0 -0.92926708594E-02  0.20196729411E-01  0.11134501904E-01  0.24869657502E-01  0.51100000000E-03 0. -1.
         11    1    4    4    0    0 -0.78890313319E-02  0.75160248122E-01  0.71071484928E-01  0.10374351451E+00  0.51100000000E-03 0.  1.
</event>
<event>
 8    1  0.1086235E+005  0.1043930E+01  0.7957747E-01            NaN
         13   -1    0    0    0    0  0.00000000000E+00  0.00000000000E+00  0.74505805969E-08  0.10566000000E+00  0.10566000000E+00 0.  1.
     999900   -1    0    0    0    0 -0.00000000000E+00 -0.00000000000E+00 -0.74505805969E-08  0.93827000000E+00  0.93827000000E+00 0. -1.
     999902    2    1    2    0    0  0.20617380052E-01  0.26996630328E-02 -0.10835070327E-01  0.10204829684E+01  0.10202135686E+01 0.  0.
     999903    2    3    3    0    0 -0.47298111486E-01  0.67619426778E-01 -0.99806305421E-01  0.13102078801E+00  0.19890954243E-01 0.  0.
         14    1    1    2    0    0 -0.20617380052E-01 -0.26996630328E-02  0.10835070327E-01  0.23447031576E-01  0.00000000000E+00 0. -1.
     999901    1    3    3    0    0  0.67915491538E-01 -0.64919763746E-01  0.88971235093E-01  0.88946218042E+00  0.88000000000E+00 0.  1.
        -11    1    4    4    0    0 -0.11892533783E-01  0.23693341853E-01 -0.45780377356E-01  0.52904734002E-01  0.51100000000E-03 0.  1.
         11    1    4    4    0    0 -0.35405577703E-01  0.43926084925E-01 -0.54025928065E-01  0.78116054007E-01  0.51100000000E-03 0. -1.
</event>
<event>
 8    1  0.1086235E+005  0.1043930E+01  0.7957747E-01            NaN
         13   -1    0    0    0    0  0.00000000000E+00  0.00000000000E+00  0.74505805969E-08  0.10566000000E+00  0.10566000000E+00 0.  1.
     999900   -1    0    0    0    0 -0.00000000000E+00 -0.00000000000E+00 -0.74505805969E-08  0.93827000000E+00  0.93827000000E+00 0. -1.
     999902    2    1    2    0    0  0.21524822696E-01 -0.15347121236E-02 -0.11770100293E-01  0.10193493451E+01  0.10190529323E+01 0.  0.
     999903    2    3    3    0    0  0.40575855128E-02 -0.61874487316E-01  0.11093252024E+00  0.12861822636E+00  0.19791612459E-01 0.  0.
         14    1    1    2    0    0 -0.21524822696E-01  0.15347121236E-02  0.11770100293E-01  0.24580654880E-01  0.00000000000E+00 0. -1.
     999901    1    3    3    0    0  0.17467237184E-01  0.60339775193E-01 -0.12270262053E+00  0.89073111876E+00  0.88000000000E+00 0. -1.
        -11    1    4    4    0    0  0.11046583713E-01 -0.22385732344E-01  0.41206219549E-01  0.48180511359E-01  0.51100000000E-03 0. -1.
         11    1    4    4    0    0 -0.69889982005E-02 -0.39488754972E-01  0.69726300692E-01  0.80437714999E-01  0.51100000000E-03 0.  1.
</event>
<event>
 8    1  0.1086235E+005  0.1043930E+01  0.7957747E-01            NaN
         13   -1    0    0    0    0  0.00000000000E+00  0.00000000000E+00  0.74505805969E-08  0.10566000000E+00  0.10566000000E+00 0. -1.
     999900   -1    0    0    0    0 -0.00000000000E+00 -0.00000000000E+00 -0.74505805969E-08  0.93827000000E+00  0.93827000000E+00 0. -1.
     999902    2    1    2    0    0  0.22605851031E-01  0.50284709332E-02 -0.25658764101E-02  0.10206299197E+01  0.10203639249E+01 0.  0.
     999903    2    3    3    0    0 -0.12221959964E+00 -0.18894949516E-01  0.26473382926E-01  0.12799896583E+00  0.19703948774E-01 0.  0.
         14    1    1    2    0    0 -0.22605851031E-01 -0.50284709332E-02  0.25658764101E-02  0.23300080312E-01  0.00000000000E+00 0.  1.
     999901    1    3    3    0    0  0.14482545067E+00  0.23923420450E-01 -0.29039259336E-01  0.89263095386E+00  0.88000000000E+00 0. -1.
        -11    1    4    4    0    0 -0.11190918840E+00 -0.13383980153E-01  0.28169292036E-01  0.11617472835E+00  0.51100000000E-03 0. -1.
         11    1    4    4    0    0 -0.10310411237E-01 -0.55109693632E-02 -0.16959091100E-02  0.11824237477E-01  0.51100000000E-03 0.  1.
</event>
<event>
 7    1  0.1086235E+005  0.1043930E+01  0.7957747E-01            NaN
         13   -1    0    0    0    0  0.00000000000E+00  0.00000000000E+00  0.74505805969E-08  0.10566000000E+00  0.10566000000E+00 0. -1.
     999900   -1    0    0    0    0 -0.00000000000E+00 -0.00000000000E+00 -0.74505805969E-08  0.93827000000E+00  0.93827000000E+00 0. -1.
     999903    2    1    2    0    0  0.49893437956E-01  0.85937773281E-01 -0.65377663496E-01  0.12049318990E+00  0.19227945852E-01 0.  0.
         14    1    1    2    0    0 -0.16856935151E-01 -0.24311435344E-01  0.26644779048E-01  0.39813897093E-01  0.00000000000E+00 0. -1.
     999901    1    1    2    0    0 -0.33036502805E-01 -0.61626337937E-01  0.38732884448E-01  0.88362291300E+00  0.88000000000E+00 0. -1.
        -11    1    3    3    0    0  0.26225906082E-02  0.17411259786E-01 -0.77601696493E-02  0.19248670157E-01  0.51100000000E-03 0. -1.
         11    1    3    3    0    0  0.47270847348E-01  0.68526513495E-01 -0.57617493847E-01  0.10124451975E+00  0.51100000000E-03 0.  1.
</event>
<event>
 8    1  0.1086235E+005  0.1043930E+01  0.7957747E-01            NaN
         13   -1    0    0    0    0  0.00000000000E+00  0.00000000000E+00  0.74505805969E-08  0.10566000000E+00  0.10566000000E+00 0.  1.
     999900   -1    0    0    0    0 -0.00000000000E+00 -0.00000000000E+00 -0.74505805969E-08  0.93827000000E+00  0.93827000000E+00 0.  1.
     999902    2    1    2    0    0  0.15042235548E-03  0.17697814093E-01  0.15844213611E-01  0.10201755403E+01  0.10198989453E+01 0.  0.
     999903    2    3    3    0    0 -0.99899544106E-01  0.75225152002E-01 -0.34411587329E-01  0.13121826578E+00  0.19882995903E-01 0.  0.
         14    1    1    2    0    0 -0.15042235548E-03 -0.17697814093E-01 -0.15844213611E-01  0.23754459697E-01  0.00000000000E+00 0. -1.
     999901    1    3    3    0    0  0.10004996646E+00 -0.57527337909E-01  0.50255800940E-01  0.88895727452E+00  0.88000000000E+00 0. -1.
        -11    1    4    4    0    0 -0.56961928597E-01  0.30880273210E-01 -0.20249409259E-01  0.67886318793E-01  0.51100000000E-03 0.  1.
         11    1    4    4    0    0 -0.42937615509E-01  0.44344878792E-01 -0.14162178070E-01  0.63331946989E-01  0.51100000000E-03 0. -1.
</event>
<event>
 8    1  0.1086235E+005  0.1043930E+01  0.7957747E-01            NaN
         13   -1    0    0    0    0  0.00000000000E+00  0.00000000000E+00  0.74505805969E-08  0.10566000000E+00  0.10566000000E+00 0.  1.
     999900   -1    0    0    0    0 -0.00000000000E+00 -0.00000000000E+00 -0.74505805969E-08  0.93827000000E+00  0.93827000000E+00 0. -1.
     999902    2    1    2    0    0  0.17449509958E-01 -0.11493459483E-01 -0.13982018370E-01  0.10187887620E+01  0.10184785024E+01 0.  0.
     999903    2    3    3    0    0  0.38801029274E-01 -0.12198875550E+00  0.19007592946E-01  0.13100871480E+00  0.20376909019E-01 0.  0.
         14    1    1    2    0    0 -0.17449509958E-01  0.11493459483E-01  0.13982018370E-01  0.25141237964E-01  0.00000000000E+00 0.  1.
     999901    1    3    3    0    0 -0.21351519316E-01  0.11049529602E+00 -0.32989611316E-01  0.88778004724E+00  0.88000000000E+00 0. -1.
        -11    1    4    4    0    0  0.32044909485E-01 -0.96562986052E-01  0.67093735050E-02  0.10196353914E+00  0.51100000000E-03 0.  1.
         11    1    4    4    0    0  0.67561197896E-02 -0.25425769452E-01  0.12298219441E-01  0.29045175663E-01  0.51100000000E-03 0. -1.
</event>
<event>
 8    1  0.1086235E+005  0.1043930E+01  0.7957747E-01            NaN
         13   -1    0    0    0    0  0.00000000000E+00  0.00000000000E+00  0.74505805969E-08  0.10566000000E+00  0.10566000000E+00 0. -1.
     999900   -1    0    0    0    0 -0.00000000000E+00 -0.00000000000E+00 -0.74505805969E-08  0.93827000000E+00  0.93827000000E+00 0. -1.
     999902    2    1    2    0    0  0.80472139592E-02 -0.26623917929E-02  0.20849573608E-01  0.10214233187E+01  0.10211753255E+01 0.  0.
     999903    2    3    3    0    0 -0.42151259956E-01  0.10162429178E+00 -0.65553171373E-01  0.12964922541E+00  0.20186083753E-01 0.  0.
         14    1    1    2    0    0 -0.80472139592E-02  0.26623917929E-02 -0.20849573608E-01  0.22506681279E-01  0.00000000000E+00 0.  1.
     999901    1    3    3    0    0  0.50198473915E-01 -0.10428668357E+00  0.86402744981E-01  0.89177409331E+00  0.88000000000E+00 0.  1.
        -11    1    4    4    0    0 -0.28330452467E-01  0.54340680133E-01 -0.46079275730E-01  0.76675190428E-01  0.51100000000E-03 0. -1.
         11    1    4    4    0    0 -0.13820807489E-01  0.47283611649E-01 -0.19473895643E-01  0.52974034986E-01  0.51100000000E-03 0.  1.
</event>
<event>
 8    1  0.1086235E+005  0.1043930E+01  0.7957747E-01            NaN
         13   -1    0    0    0    0  0.00000000000E+00  0.00000000000E+00  0.74505805969E-08  0.10566000000E+00  0.10566000000E+00 0. -1.
     999900   -1    0    0    0    0 -0.00000000000E+00 -0.00000000000E+00 -0.74505805969E-08  0.93827000000E+00  0.93827000000E+00 0.  1.
     999902    2    1    2    0    0  0.61089451909E-02  0.21748913456E-01 -0.29098635215E-02  0.10211527799E+01  0.10208987208E+01 0.  0.
     999903    2    3    3    0    0  0.79106787819E-02  0.10907679275E+00  0.73764706154E-01  0.13351073814E+00  0.20580567731E-01 0.  0.
         14    1    1    2    0    0 -0.61089451909E-02 -0.21748913456E-01  0.29098635215E-02  0.22777220058E-01  0.00000000000E+00 0. -1.
     999901    1    3    3    0    0 -0.18017335910E-02 -0.87327879294E-01 -0.76674569676E-01  0.88764204181E+00  0.88000000000E+00 0.  1.
        -11    1    4    4    0    0  0.11901010304E-01  0.68868320723E-01  0.38031247906E-01  0.79568313943E-01  0.51100000000E-03 0.  1.
         11    1    4    4    0    0 -0.39903315217E-02  0.40208472027E-01  0.35733458248E-01  0.53942424193E-01  0.51100000000E-03 0. -1.
</event>
<event>
 8    1  0.1086235E+005  0.1043930E+01  0.7957747E-01            NaN
         13   -1    0    0    0    0  0.00000000000E+00  0.00000000000E+00  0.74505805969E-08  0.10566000000E+00  0.10566000000E+00 0.  1.
     999900   -1    0    0    0    0 -0.00000000000E+00 -0.00000000000E+00 -0.74505805969E-08  0.93827000000E+00  0.93827000000E+00 0. -1.
     999902    2    1    2    0    0  0.19628559381E-01 -0.13441974641E-02  0.81911040373E-02  0.10226184680E+01  0.10223963760E+01 0.  0.
     999903    2    3    3    0    0 -0.39324473299E-01 -0.12437824864E+00  0.84460415032E-02  0.13210574896E+00  0.19084820053E-01 0.  0.
         14    1    1    2    0    0 -0.19628559381E-01  0.13441974641E-02 -0.81911040373E-02  0.21311531985E-01  0.00000000000E+00 0.  1.
     999901    1    3    3    0    0  0.58953032681E-01  0.12303405117E+00 -0.25493746595E-03  0.89051271906E+00  0.88000000000E+00 0. -1.
        -11    1    4    4    0    0 -0.47626529639E-02 -0.28578401782E-01  0.87192616891E-02  0.30260445421E-01  0.51100000000E-03 0.  1.
         11    1    4    4    0    0 -0.34561820336E-01 -0.95799846854E-01 -0.27322018584E-03  0.10184530354E+00  0.51100000000E-03 0. -1.
</event>
<event>
 8    1  0.1086235E+005  0.1043930E+01  0.7957747E-01            NaN
         13   -1    0    0    0    0  0.00000000000E+00  0.00000000000E+00  0.74505805969E-08  0.10566000000E+00  0.10566000000E+00 0. -1.
     999900   -1    0    0    0    0 -0.00000000000E+00 -0.00000000000E+00 -0.74505805969E-08  0.93827000000E+00  0.93827000000E+00 0.  1.
     999902    2    1    2    0    0 -0.90307969510E-02 -0.32514010935E-02 -0.20595778647E-01  0.10212074781E+01  0.10209546515E+01 0.  0.
     999903    2    3    3    0    0  0.93863370525E-01 -0.81108721180E-01  0.33048527789E-01  0.13018184234E+00  0.21590505079E-01 0.  0.
         14    1    1    2    0    0  0.90307969510E-02  0.32514010935E-02  0.20595778647E-01  0.22722521883E-01  0.00000000000E+00 0. -1.
     999901    1    3    3    0    0 -0.10289416748E+00  0.77857320086E-01 -0.53644306436E-01  0.89102563577E+00  0.88000000000E+00 0. -1.
        -11    1    4    4    0    0  0.53537905196E-01 -0.33596395734E-01  0.11531728021E-01  0.64251591196E-01  0.51100000000E-03 0.  1.
         11    1    4    4    0    0  0.40325465329E-01 -0.47512325446E-01  0.21516799768E-01  0.65930251149E-01  0.51100000000E-03 0. -1.
</event>
<event>
 8    1  0.1086235E+005  0.1043930E+01  0.7957747E-01            NaN
         13   -1    0    0    0    0  0.00000000000E+00  0.00000000000E+00  0.74505805969E-08  0.10566000000E+00  0.10566000000E+00 0. -1.
     999900   -1    0    0    0    0 -0.00000000000E+00 -0.00000000000E+00 -0.74505805969E-08  0.93827000000E+00  0.93827000000E+00 0. -1.
     999902    2    1    2    0    0 -0.12633333193E-01  0.10340584176E-01 -0.38222149477E-02  0.10271628262E+01  0.10270259653E+01 0.  0.
     999903    2    3    3    0    0  0.11147090173E+00  0.10184956462E-01  0.73004599261E-01  0.13514026783E+00  0.20092914248E-01 0.  0.
         14    1    1    2    0    0  0.12633333193E-01 -0.10340584176E-01  0.38222149477E-02  0.16767173756E-01  0.00000000000E+00 0. -1.
     999901    1    3    3    0    0 -0.12410423493E+00  0.15562771401E-03 -0.76826814209E-01  0.89202255842E+00  0.88000000000E+00 0. -1.
        -11    1    4    4    0    0  0.33354885397E-01  0.10626735706E-02  0.11510447776E-01  0.35304803978E-01  0.51100000000E-03 0.  1.
         11    1    4    4    0    0  0.78116016338E-01  0.91222828910E-02  0.61494151485E-01  0.99835463847E-01  0.51100000000E-03 0. -1.
</event>
<event>
 8    1  0.1086235E+005  0.1043930E+01  0.7957747E-01            NaN
         13   -1    0    0    0    0  0.00000000000E+00  0.00000000000E+00  0.74505805969E-08  0.10566000000E+00  0.10566000000E+00 0.  1.
     999900   -1    0    0    0    0 -0.00000000000E+00 -0.00000000000E+00 -0.74505805969E-08  0.93827000000E+00  0.93827000000E+00 0. -1.
     999902    2    1    2    0    0  0.21596757215E-01 -0.15781648677E-02 -0.12626757681E-01  0.10188631786E+01  0.10185547757E+01 0.  0.
     999903    2    3    3    0    0 -0.11497658139E+00 -0.50227517959E-01 -0.19167022239E-02  0.12693619633E+00  0.19149578660E-01 0.  0.
         14    1    1    2    0    0 -0.21596757215E-01  0.15781648677E-02  0.12626757681E-01  0.25066821420E-01  0.00000000000E+00 0. -1.
     999901    1    3    3    0    0  0.13657333861E+00  0.48649353091E-01 -0.10710055457E-01  0.89192698225E+00  0.88000000000E+00 0. -1.
        -11    1    4    4    0    0 -0.82025654625E-01 -0.38591824762E-01 -0.95808838023E-02  0.91156960297E-01  0.51100000000E-03 0. -1.
         11    1    4    4    0    0 -0.32950926767E-01 -0.11635693197E-01  0.76641815784E-02  0.35779236035E-01  0.51100000000E-03 0.  1.
</event>
<event>
 8    1  0.1086235E+005  0.1043930E+01  0.7957747E-01            NaN
         13   -1    0    0    0    0  0.00000000000E+00  0.00000000000E+00  0.74505805969E-08  0.10566000000E+00  0.10566000000E+00 0. -1.
     999900   -1    0    0    0    0 -0.00000000000E+00 -0.00000000000E+00 -0.74505805969E-08  0.93827000000E+00  0.93827000000E+00 0.  1.
     999902    2    1    2    0    0  0.12334435760E-01  0.18881310165E-01  0.55928960623E-02  0.10206937640E+01  0.10204292416E+01 0.  0.
     999903    2    3    3    0    0  0.45236268471E-01 -0.41169386588E-02  0.12236747210E+00  0.13207249950E+00  0.20151370350E-01 0.  0.
         14    1    1    2    0    0 -0.12334435760E-01 -0.18881310165E-01 -0.55928960623E-02  0.23236236043E-01  0.00000000000E+00 0.  1.
     999901    1    3    3    0    0 -0.32901832711E-01  0.22998248824E-01 -0.11677457603E+00  0.88862126446E+00  0.88000000000E+00 0.  1.
        -11    1    4    4    0    0  0.43238748848E-01 -0.71185608917E-02  0.96939647853E-01  0.10638524220E+00  0.51100000000E-03 0. -1.
         11    1    4    4    0    0  0.19975196226E-02  0.30016222329E-02  0.25427824243E-01  0.25687257296E-01  0.51100000000E-03 0.  1.
</event>
<event>
 8    1  0.1086235E+005  0.1043930E+01  0.7957747E-01            NaN
         13   -1    0    0    0    0  0.00000000000E+00  0.00000000000E+00  0.74505805969E-08  0.10566000000E+00  0.10566000000E+00 0. -1.
     999900   -1    0    0    0    0 -0.00000000000E+00 -0.00000000000E+00 -0.74505805969E-08  0.93827000000E+00  0.93827000000E+00 0. -1.
     999902    2    1    2    0    0 -0.16592808200E-01  0.11022475329E-01 -0.13633232571E-01  0.10197912081E+01  0.10195054815E+01 0.  0.
     999903    2    3    3    0    0 -0.21819727111E-03 -0.23150976841E-01  0.12376224641E+00  0.12832417537E+00  0.24778720890E-01 0.  0.
         14    1    1    2    0    0  0.16592808200E-01 -0.11022475329E-01  0.13633232571E-01  0.24138791948E-01  0.00000000000E+00 0. -1.
     999901    1    3    3    0    0 -0.16374610929E-01  0.34173452170E-01 -0.13739547898E+00  0.89146703268E+00  0.88000000000E+00 0. -1.
        -11    1    4    4    0    0  0.26454682117E-02  0.47164124856E-02  0.13360109046E-01  0.14422090123E-01  0.51100000000E-03 0. -1.
         11    1    4    4    0    0 -0.28636654828E-02 -0.27867389326E-01  0.11040213736E+00  0.11390208525E+00  0.51100000000E-03 0.  1.
</event>
<event>
 8    1  0.1086235E+005  0.1043930E+01  0.7957747E-01            NaN
         13   -1    0    0    0    0  0.00000000000E+00  0.00000000000E+00  0.74505805969E-08  0.10566000000E+00  0.10566000000E+00 0. -1.
     999900   -1    0    0    0    0 -0.00000000000E+00 -0.00000000000E+00 -0.74505805969E-08  0.93827000000E+00  0.93827000000E+00 0.  1.
     999902    2    1    2    0    0  0.95025156651E-02 -0.20552557834E-01 -0.92919314982E-02  0.10194545954E+01  0.10191607463E+01 0.  0.
     999903    2    3    3    0    0  0.88884195269E-01 -0.55392066791E-01  0.76175055791E-01  0.13107413170E+00  0.20226409554E-01 0.  0.
         14    1    1    2    0    0 -0.95025156651E-02  0.20552557834E-01  0.92919314982E-02  0.24475404562E-01  0.00000000000E+00 0.  1.
     999901    1    3    3    0    0 -0.79381679604E-01  0.34839508957E-01 -0.85466987289E-01  0.88838046374E+00  0.88000000000E+00 0.  1.
        -11    1    4    4    0    0  0.20996655189E-01 -0.23258398612E-01  0.26312265377E-01  0.40919543808E-01  0.51100000000E-03 0. -1.
         11    1    4    4    0    0  0.67887540080E-01 -0.32133668179E-01  0.49862790413E-01  0.90154587889E-01  0.51100000000E-03 0.  1.
</event>
<event>
 8    1  0.1086235E+005  0.1043930E+01  0.7957747E-01            NaN
         13   -1    0    0    0    0  0.00000000000E+00  0.00000000000E+00  0.74505805969E-08  0.10566000000E+00  0.10566000000E+00 0. -1.
     999900   -1    0    0    0    0 -0.00000000000E+00 -0.00000000000E+00 -0.74505805969E-08  0.93827000000E+00  0.93827000000E+00 0.  1.
     999902    2    1    2    0    0 -0.12528835197E-01  0.15537735922E-01 -0.11878918087E-01  0.10207028253E+01  0.10204385116E+01 0.  0.
     999903    2    3    3    0    0 -0.12059974636E+00  0.52843412626E-01 -0.23200353749E-02  0.13325569585E+00  0.20370881996E-01 0.  0.
         14    1    1    2    0    0  0.12528835197E-01 -0.15537735922E-01  0.11878918087E-01  0.23227174686E-01  0.00000000000E+00 0. -1.
     999901    1    3    3    0    0  0.10807091116E+00 -0.37305676704E-01 -0.95588827118E-02  0.88744712946E+00  0.88000000000E+00 0. -1.
        -11    1    4    4    0    0 -0.44951542230E-01  0.26063158592E-01 -0.89643121653E-02  0.52730915014E-01  0.51100000000E-03 0. -1.
         11    1    4    4    0    0 -0.75648204127E-01  0.26780254034E-01  0.66442767905E-02  0.80524780837E-01  0.51100000000E-03 0.  1.
</event>
<event>
 8    1  0.1086235E+005  0.1043930E+01  0.7957747E-01            NaN
         13   -1    0    0    0    0  0.00000000000E+00  0.00000000000E+00  0.74505805969E-08  0.10566000000E+00  0.10566000000E+00 0. -1.
     999900   -1    0    0    0    0 -0.00000000000E+00 -0.00000000000E+00 -0.74505805969E-08  0.93827000000E+00  0.93827000000E+00 0.  1.
     999902    2    1    2    0    0  0.20545937971E-01  0.77423668623E-02 -0.86873279968E-02  0.10203175143E+01  0.10200442542E+01 0.  0.
     999903    2    3    3    0    0 -0.48335633717E-01 -0.51158857792E-01 -0.10693172926E+00  0.13022426778E+00  0.23883110725E-01 0.  0.
         14    1    1    2    0    0 -0.20545937971E-01 -0.77423668623E-02  0.86873279968E-02  0.23612485669E-01  0.00000000000E+00 0.  1.
     999901    1    3    3    0    0  0.68881571688E-01  0.58901224654E-01  0.98244401263E-01  0.89009324656E+00  0.88000000000E+00 0. -1.
        -11    1    4    4    0    0 -0.17185621229E-01 -0.34249185980E-01 -0.47593375227E-01  0.61104359941E-01  0.51100000000E-03 0.  1.
         11    1    4    4    0    0 -0.31150012488E-01 -0.16909671812E-01 -0.59338354033E-01  0.69119907835E-01  0.51100000000E-03 0. -1.
</event>
<event>
 8    1  0.1086235E+005  0.1043930E+01  0.7957747E-01            NaN
         13   -1    0    0    0    0  0.00000000000E+00  0.00000000000E+00  0.74505805969E-08  0.10566000000E+00  0.10566000000E+00 0.  1.
     999900   -1    0    0    0    0 -0.00000000000E+00 -0.00000000000E+00 -0.74505805969E-08  0.93827000000E+00  0.93827000000E+00 0.  1.
     999902    2    1    2    0    0  0.17225555417E-01 -0.13881784972E-01 -0.85392475212E-02  0.10202162390E+01  0.10199406021E+01 0.  0.
     999903    2    3    3    0    0  0.37914139163E-01  0.12103637464E+00  0.18004108106E-01  0.12929790545E+00  0.17507555807E-01 0.  0.
         14    1    1    2    0    0 -0.17225555417E-01  0.13881784972E-01  0.85392475212E-02  0.23713761019E-01  0.00000000000E+00 0.  1.
     999901    1    3    3    0    0 -0.20688583746E-01 -0.13491815961E+00 -0.26543355627E-01  0.89091833353E+00  0.88000000000E+00 0. -1.
        -11    1    4    4    0    0  0.22712979134E-01  0.54365441226E-01  0.14519787138E-02  0.58939375498E-01  0.51100000000E-03 0.  1.
         11    1    4    4    0    0  0.15201160028E-01  0.66670933417E-01  0.16552129392E-01  0.70358529954E-01  0.51100000000E-03 0. -1.
</event>
<event>
 8    1  0.1086235E+005  0.1043930E+01  0.7957747E-01            NaN
         13   -1    0    0    0    0  0.00000000000E+00  0.00000000000E+00  0.74505805969E-08  0.10566000000E+00  0.10566000000E+00 0.  1.
     999900   -1    0    0    0    0 -0.00000000000E+00 -0.00000000000E+00 -0.74505805969E-08  0.93827000000E+00  0.93827000000E+00 0. -1.
     999902    2    1    2    0    0 -0.14596382171E-01 -0.12966249000E-01 -0.98000026498E-02  0.10220846793E+01  0.10218511993E+01 0.  0.
     999903    2    3    3    0    0 -0.81965611978E-01 -0.67218026970E-01 -0.81282637532E-01  0.13495918893E+00  0.19248137959E-01 0.  0.
         14    1    1    2    0    0  0.14596382171E-01  0.12966249000E-01  0.98000026498E-02  0.21845320724E-01  0.00000000000E+00 0.  1.
     999901    1    3    3    0    0  0.67369229807E-01  0.54251777970E-01  0.71482634882E-01  0.88712549035E+00  0.88000000000E+00 0.  1.
        -11    1    4    4    0    0 -0.39385461358E-01 -0.44614429612E-01 -0.45896388285E-01  0.75155847907E-01  0.51100000000E-03 0. -1.
         11    1    4    4    0    0 -0.42580150620E-01 -0.22603597357E-01 -0.35386249247E-01  0.59803341019E-01  0.51100000000E-03 0.  1.
</event>
<event>
 8    1  0.1086235E+005  0.1043930E+01  0.7957747E-01            NaN
         13   -1    0    0    0    0  0.00000000000E+00  0.00000000000E+00  0.74505805969E-08  0.10566000000E+00  0.10566000000E+00 0. -1.
     999900   -1    0    0    0    0 -0.00000000000E+00 -0.00000000000E+00 -0.74505805969E-08  0.93827000000E+00  0.93827000000E+00 0.  1.
     999902    2    1    2    0    0 -0.12185837738E-01 -0.11503063803E-01 -0.16262623606E-01  0.10205785965E+01  0.10203114150E+01 0.  0.
     999903    2    3    3    0    0 -0.15624820130E-01 -0.24059436357E-01 -0.12880040538E+00  0.13331637968E+00  0.18992661325E-01 0.  0.
         14    1    1    2    0    0  0.12185837738E-01  0.11503063803E-01  0.16262623606E-01  0.23351403486E-01  0.00000000000E+00 0. -1.
     999901    1    3    3    0    0  0.34389823923E-02  0.12556372554E-01  0.11253778177E+00  0.88726221683E+00  0.88000000000E+00 0. -1.
        -11    1    4    4    0    0 -0.12132494108E-02  0.32413283780E-02 -0.14924557245E-01  0.15329113274E-01  0.51100000000E-03 0. -1.
         11    1    4    4    0    0 -0.14411570719E-01 -0.27300764735E-01 -0.11387584813E+00  0.11798726641E+00  0.51100000000E-03 0.  1.
</event>
<event>
 8    1  0.1086235E+005  0.1043930E+01  0.7957747E-01            NaN
         13   -1    0    0    0    0  0.00000000000E+00  0.00000000000E+00  0.74505805969E-08  0.10566000000E+00  0.10566000000E+00 0.  1.
     999900   -1    0    0    0    0 -0.00000000000E+00 -0.00000000000E+00 -0.74505805969E-08  0.93827000000E+00  0.93827000000E+00 0. -1.
     999902    2    1    2    0    0  0.50205429946E-02 -0.13068942628E-01  0.17330992485E-01  0.10216507178E+01  0.10214077652E+01 0.  0.
     999903    2    3    3    0    0  0.50862279519E-01 -0.96209348367E-01  0.76450881994E-01  0.13457183002E+00  0.20533628149E-01 0.  0.
         14    1    1    2    0    0 -0.50205429946E-02  0.13068942628E-01 -0.17330992485E-01  0.22279282168E-01  0.00000000000E+00 0. -1.
     999901    1    3    3    0    0 -0.45841736525E-01  0.83140405740E-01 -0.59119889509E-01  0.88707888782E+00  0.88000000000E+00 0.  1.
        -11    1    4    4    0    0  0.24771958006E-01 -0.44647374173E-01  0.48316561975E-01  0.70297860608E-01  0.51100000000E-03 0. -1.
         11    1    4    4    0    0  0.26090321513E-01 -0.51561974194E-01  0.28134320019E-01  0.64273969408E-01  0.51100000000E-03 0.  1.
</event>
<event>
 8    1  0.1086235E+005  0.1043930E+01  0.7957747E-01            NaN
         13   -1    0    0    0    0  0.00000000000E+00  0.00000000000E+00  0.74505805969E-08  0.10566000000E+00  0.10566000000E+00 0. -1.
     999900   -1    0    0    0    0 -0.00000000000E+00 -0.00000000000E+00 -0.74505805969E-08  0.93827000000E+00  0.93827000000E+00 0. -1.
     999902    2    1    2    0    0 -0.18805854521E-01 -0.52465151910E-02  0.11700461202E-01  0.10211684781E+01  0.10209147730E+01 0.  0.
     999903    2    3    3    0    0  0.33960116584E-01  0.11687736011E+00  0.43056676499E-01  0.13061713156E+00  0.19833074396E-01 0.  0.
         14    1    1    2    0    0  0.18805854521E-01  0.52465151910E-02 -0.11700461202E-01  0.22761521879E-01  0.00000000000E+00 0.  1.
     999901    1    3    3    0    0 -0.52765971105E-01 -0.12212387530E+00 -0.31356215297E-01  0.89055134656E+00  0.88000000000E+00 0. -1.
        -11    1    4    4    0    0  0.30569041449E-01  0.96251864267E-01  0.27841089560E-01  0.10475817419E+00  0.51100000000E-03 0.  1.
         11    1    4    4    0    0  0.33910751348E-02  0.20625495847E-01  0.15215586939E-01  0.25858957373E-01  0.51100000000E-03 0. -1.
</event>
<event>
 8    1  0.1086235E+005  0.1043930E+01  0.7957747E-01            NaN
         13   -1    0    0    0    0  0.00000000000E+00  0.00000000000E+00  0.74505805969E-08  0.10566000000E+00  0.10566000000E+00 0.  1.
     999900   -1    0    0    0    0 -0.00000000000E+00 -0.00000000000E+00 -0.74505805969E-08  0.93827000000E+00  0.93827000000E+00 0.  1.
     999902    2    1    2    0    0 -0.19941012412E-01 -0.12704856936E-01 -0.69181008706E-02  0.10192943046E+01  0.10189965466E+01 0.  0.
     999903    2    3    3    0    0  0.36605503828E-01 -0.75459295140E-01 -0.97793358186E-01  0.13059078806E+00  0.21362230369E-01 0.  0.
         14    1    1    2    0    0  0.19941012412E-01  0.12704856936E-01  0.69181008706E-02  0.24635695351E-01  0.00000000000E+00 0.  1.
     999901    1    3    3    0    0 -0.56546516239E-01  0.62754438204E-01  0.90875257315E-01  0.88870351659E+00  0.88000000000E+00 0. -1.
        -11    1    4    4    0    0  0.91906967195E-03 -0.43222776661E-02 -0.15424275282E-01  0.16052917562E-01  0.51100000000E-03 0.  1.
         11    1    4    4    0    0  0.35686434156E-01 -0.71137017474E-01 -0.82369082904E-01  0.11453787049E+00  0.51100000000E-03 0. -1.
</event>
<event>
 8    1  0.1086235E+005  0.1043930E+01  0.7957747E-01            NaN
         13   -1    0    0    0    0  0.00000000000E+00  0.00000000000E+00  0.74505805969E-08  0.10566000000E+00  0.10566000000E+00 0.  1.
     999900   -1    0    0    0    0 -0.00000000000E+00 -0.00000000000E+00 -0.74505805969E-08  0.93827000000E+00  0.93827000000E+00 0.  1.
     999902    2    1    2    0    0 -0.19089161554E-01  0.97072668415E-02 -0.81488169934E-02  0.10210164595E+01  0.10207593156E+01 0.  0.
     999903    2    3    3    0    0 -0.53448930050E-01  0.13078135260E-01 -0.11968285754E+00  0.13330490804E+00  0.20454495183E-01 0.  0.
         14    1    1    2    0    0  0.19089161554E-01 -0.97072668415E-02  0.81488169934E-02  0.22913540468E-01  0.00000000000E+00 0.  1.
     999901    1    3    3    0    0  0.34359768495E-01 -0.33708684184E-02  0.11153404055E+00  0.88771155149E+00  0.88000000000E+00 0. -1.
        -11    1    4    4    0    0 -0.34963796679E-01 -0.60785690253E-03 -0.61660079608E-01  0.70887679511E-01  0.51100000000E-03 0. -1.
         11    1    4    4    0    0 -0.18485133370E-01  0.13685992162E-01 -0.58022777937E-01  0.62417228533E-01  0.51100000000E-03 0.  1.
</event>
<event>
 8    1  0.1086235E+005  0.1043930E+01  0.7957747E-01            NaN
         13   -1    0    0    0    0  0.00000000000E+00  0.00000000000E+00  0.74505805969E-08  0.10566000000E+00  0.10566000000E+00 0.  1.
     999900   -1    0    0    0    0 -0.00000000000E+00 -0.00000000000E+00 -0.74505805969E-08  0.93827000000E+00  0.93827000000E+00 0. -1.
     999902    2    1    2    0    0 -0.14108778581E-01  0.20100971525E-02  0.18417154827E-01  0.10206428852E+01  0.10203771898E+01 0.  0.
     999903    2    3    3    0    0  0.65076207237E-01  0.11081614089E+00 -0.34569420940E-02  0.13014443307E+00  0.20260631314E-01 0.  0.
         14    1    1    2    0    0  0.14108778581E-01 -0.20100971525E-02 -0.18417154827E-01  0.23287114796E-01  0.00000000000E+00 0. -1.
     999901    1    3    3    0    0 -0.79184985818E-01 -0.10880604374E+00  0.21874096921E-01  0.89049845213E+00  0.88000000000E+00 0.  1.
        -11    1    4    4    0    0  0.24528168464E-01  0.56988254267E-01 -0.82011198845E-02  0.62584436252E-01  0.51100000000E-03 0. -1.
         11    1    4    4    0    0  0.40548038773E-01  0.53827886622E-01  0.47441777905E-02  0.67559996821E-01  0.51100000000E-03 0.  1.
</event>
<event>
 8    1  0.1086235E+005  0.1043930E+01  0.7957747E-01            NaN
         13   -1    0    0    0    0  0.00000000000E+00  0.00000000000E+00  0.74505805969E-08  0.10566000000E+00  0.10566000000E+00 0.  1.
     999900   -1    0    0    0    0 -0.00000000000E+00 -0.00000000000E+00 -0.74505805969E-08  0.93827000000E+00  0.93827000000E+00 0. -1.
     999902    2    1    2    0    0  0.13780233253E-01 -0.74523334378E-02  0.17517559916E-01  0.10204289999E+01  0.10201583440E+01 0.  0.
     999903    2    3    3    0    0  0.11708089695E+00 -0.26277420496E-01  0.54510767066E-01  0.13341495916E+00  0.20728925249E-01 0.  0.
         14    1    1    2    0    0 -0.13780233253E-01  0.74523334378E-02 -0.17517559916E-01  0.23501000140E-01  0.00000000000E+00 0. -1.
     999901    1    3    3    0    0 -0.10330066370E+00  0.18825087058E-01 -0.36993207151E-01  0.88701404070E+00  0.88000000000E+00 0.  1.
        -11    1    4    4    0    0  0.48975403909E-01 -0.19784574435E-01  0.17605987594E-01  0.55679902063E-01  0.51100000000E-03 0.  1.
         11    1    4    4    0    0  0.68105493045E-01 -0.64928460609E-02  0.36904779473E-01  0.77735057097E-01  0.51100000000E-03 0. -1.
</event>
<event>
 8    1  0.1086235E+005  0.1043930E+01  0.7957747E-01            NaN
         13   -1    0    0    0    0  0.00000000000E+00  0.00000000000E+00  0.74505805969E-08  0.10566000000E+00  0.10566000000E+00 0. -1.
     999900   -1    0    0    0    0 -0.00000000000E+00 -0.00000000000E+00 -0.74505805969E-08  0.93827000000E+00  0.93827000000E+00 0.  1.
     999902    2    1    2    0    0  0.51660983548E-02  0.22332858820E-01  0.10513195122E-02  0.10209833134E+01  0.10207254164E+01 0.  0.
     999903    2    3    3    0    0  0.93468838745E-01 -0.75973045774E-01 -0.44495002020E-01  0.12995251016E+00  0.19988051217E-01 0.  0.
         14    1    1    2    0    0 -0.51660983548E-02 -0.22332858820E-01 -0.10513195122E-02  0.22946686645E-01  0.00000000000E+00 0. -1.
     999901    1    3    3    0    0 -0.88302740390E-01  0.98305904594E-01  0.45546321532E-01  0.89103080320E+00  0.88000000000E+00 0. -1.
        -11    1    4    4    0    0  0.69807029075E-01 -0.54114821710E-01 -0.41518181098E-01  0.97598441174E-01  0.51100000000E-03 0.  1.
         11    1    4    4    0    0  0.23661809670E-01 -0.21858224064E-01 -0.29768209221E-02  0.32354068986E-01  0.51100000000E-03 0. -1.
</event>
<event>
 8    1  0.1086235E+005  0.1043930E+01  0.7957747E-01            NaN
         13   -1    0    0    0    0  0.00000000000E+00  0.00000000000E+00  0.74505805969E-08  0.10566000000E+00  0.10566000000E+00 0. -1.
     999900   -1    0    0    0    0 -0.00000000000E+00 -0.00000000000E+00 -0.74505805969E-08  0.93827000000E+00  0.93827000000E+00 0.  1.
     999902    2    1    2    0    0 -0.16368179598E-01 -0.17908286958E-01  0.15071966815E-01  0.10153679933E+01  0.10149661933E+01 0.  0.
     999903    2    3    3    0    0  0.60696635807E-01  0.10502905520E+00 -0.13795622521E-01  0.12301945509E+00  0.15109040201E-01 0.  0.
         14    1    1    2    0    0  0.16368179598E-01  0.17908286958E-01 -0.15071966815E-01  0.28562006736E-01  0.00000000000E+00 0.  1.
     999901    1    3    3    0    0 -0.77064815405E-01 -0.12293734215E+00  0.28867589336E-01  0.89234853818E+00  0.88000000000E+00 0.  1.
        -11    1    4    4    0    0  0.40626521793E-01  0.68055249135E-01 -0.18458640095E-02  0.79282403740E-01  0.51100000000E-03 0.  1.
         11    1    4    4    0    0  0.20070114014E-01  0.36973806062E-01 -0.11949758511E-01  0.43737051349E-01  0.51100000000E-03 0. -1.
</event>
<event>
 8    1  0.1086235E+005  0.1043930E+01  0.7957747E-01            NaN
         13   -1    0    0    0    0  0.00000000000E+00  0.00000000000E+00  0.74505805969E-08  0.10566000000E+00  0.10566000000E+00 0. -1.
     999900   -1    0    0    0    0 -0.00000000000E+00 -0.00000000000E+00 -0.74505805969E-08  0.93827000000E+00  0.93827000000E+00 0. -1.
     999902    2    1    2    0    0 -0.10430281972E-01 -0.77945828587E-02  0.19833612769E-01  0.10202040964E+01  0.10199281739E+01 0.  0.
     999903    2    3    3    0    0  0.46800908965E-01  0.10062382560E+00 -0.60658500820E-01  0.12806680832E+00  0.20153766775E-01 0.  0.
         14    1    1    2    0    0  0.10430281972E-01  0.77945828587E-02 -0.19833612769E-01  0.23725903554E-01  0.00000000000E+00 0.  1.
     999901    1    3    3    0    0 -0.57231190937E-01 -0.10841840845E+00  0.80492113589E-01  0.89213728812E+00  0.88000000000E+00 0.  1.
        -11    1    4    4    0    0  0.35186787913E-02  0.27920224447E-01 -0.13845562044E-01  0.31366873336E-01  0.51100000000E-03 0.  1.
         11    1    4    4    0    0  0.43282230173E-01  0.72703601149E-01 -0.46812938776E-01  0.96699934988E-01  0.51100000000E-03 0. -1.
</event>
<event>
 8    1  0.1086235E+005  0.1043930E+01  0.7957747E-01            NaN
         13   -1    0    0    0    0  0.00000000000E+00  0.00000000000E+00  0.74505805969E-08  0.10566000000E+00  0.10566000000E+00 0. -1.
     999900   -1    0    0    0    0 -0.00000000000E+00 -0.00000000000E+00 -0.74505805969E-08  0.93827000000E+00  0.93827000000E+00 0. -1.
     999902    2    1    2    0    0  0.67553668157E-02 -0.30555911517E-02 -0.24849245036E-01  0.10179982319E+01  0.10176678945E+01 0.  0.
     999903    2    3    3    0    0 -0.10134498167E-01 -0.11505412812E+00 -0.56285449787E-01  0.13018227417E+00  0.20957390090E-01 0.  0.
         14    1    1    2    0    0 -0.67553668157E-02  0.30555911517E-02  0.24849245036E-01  0.25931768103E-01  0.00000000000E+00 0. -1.
     999901    1    3    3    0    0  0.16889864983E-01  0.11199853697E+00  0.31436204751E-01  0.88781595773E+00  0.88000000000E+00 0.  1.
        -11    1    4    4    0    0 -0.45608143074E-02 -0.58777847224E-01 -0.17124840946E-01  0.61393465857E-01  0.51100000000E-03 0.  1.
         11    1    4    4    0    0 -0.55736838597E-02 -0.56276280899E-01 -0.39160608840E-01  0.68788808315E-01  0.51100000000E-03 0. -1.
</event>
<event>
 8    1  0.1086235E+005  0.1043930E+01  0.7957747E-01            NaN
         13   -1    0    0    0    0  0.00000000000E+00  0.00000000000E+00  0.74505805969E-08  0.10566000000E+00  0.10566000000E+00 0. -1.
     999900   -1    0    0    0    0 -0.00000000000E+00 -0.00000000000E+00 -0.74505805969E-08  0.93827000000E+00  0.93827000000E+00 0.  1.
     999902    2    1    2    0    0 -0.63786204746E-02  0.21395690946E-01 -0.72673223134E-02  0.10204507248E+01  0.10201805749E+01 0.  0.
     999903    2    3    3    0    0 -0.69175130501E-01 -0.99633849590E-01 -0.40391596252E-01  0.12933413934E+00  0.19589177833E-01 0.  0.
         14    1    1    2    0    0  0.63786204746E-02 -0.21395690946E-01  0.72673223134E-02  0.23479275198E-01  0.00000000000E+00 0. -1.
     999901    1    3    3    0    0  0.62796510027E-01  0.12102954054E+00  0.33124273938E-01  0.89111658546E+00  0.88000000000E+00 0. -1.
        -11    1    4    4    0    0 -0.54874841644E-01 -0.70435161435E-01 -0.21933595464E-01  0.91944026140E-01  0.51100000000E-03 0. -1.
         11    1    4    4    0    0 -0.14300288857E-01 -0.29198688155E-01 -0.18458000787E-01  0.37390113204E-01  0.51100000000E-03 0.  1.
</event>
<event>
 8    1  0.1086235E+005  0.1043930E+01  0.7957747E-01            NaN
         13   -1    0    0    0    0  0.00000000000E+00  0.00000000000E+00  0.74505805969E-08  0.10566000000E+00  0.10566000000E+00 0. -1.
     999900   -1    0    0    0    0 -0.00000000000E+00 -0.00000000000E+00 -0.74505805969E-08  0.93827000000E+00  0.93827000000E+00 0. -1.
     999902    2    1    2    0    0  0.17268819248E-01  0.11368329909E-01 -0.11019268547E-01  0.10205019117E+01  0.10202329520E+01 0.  0.
     999903    2    3    3    0    0 -0.64045601986E-01 -0.10885641287E+00 -0.14159183452E-01  0.12860736469E+00  0.19692994159E-01 0.  0.
         14    1    1    2    0    0 -0.17268819248E-01 -0.11368329909E-01  0.11019268547E-01  0.23428088323E-01  0.00000000000E+00 0. -1.
     999901    1    3    3    0    0  0.81314421235E-01  0.12022474278E+00  0.31399149051E-02  0.89189454699E+00  0.88000000000E+00 0. -1.
        -11    1    4    4    0    0 -0.34634256484E-01 -0.40139878192E-01 -0.39556910169E-02  0.53166250158E-01  0.51100000000E-03 0. -1.
         11    1    4    4    0    0 -0.29411345503E-01 -0.68716534682E-01 -0.10203492435E-01  0.75441114533E-01  0.51100000000E-03 0.  1.
</event>
<event>
 8    1  0.1086235E+005  0.1043930E+01  0.7957747E-01            NaN
         13   -1    0    0    0    0  0.00000000000E+00  0.00000000000E+00  0.74505805969E-08  0.10566000000E+00  0.10566000000E+00 0.  1.
     999900   -1    0    0    0    0 -0.00000000000E+00 -0.00000000000E+00 -0.74505805969E-08  0.93827000000E+00  0.93827000000E+00 0. -1.
     999902    2    1    2    0    0  0.63997703701E-02 -0.40725825729E-02  0.23252674667E-01  0.10194712619E+01  0.10191778177E+01 0.  0.
     999903    2    3    3    0    0  0.25461494478E-01  0.78581217473E-02 -0.12277582637E+00  0.12715404581E+00  0.19601276661E-01 0.  0.
         14    1    1    2    0    0 -0.63997703701E-02  0.40725825729E-02 -0.23252674667E-01  0.24458738087E-01  0.00000000000E+00 0. -1.
     999901    1    3    3    0    0 -0.19061724108E-01 -0.11930704320E-01  0.14602850104E+00  0.89231721610E+00  0.88000000000E+00 0.  1.
        -11    1    4    4    0    0 -0.30632000880E-02  0.26417927051E-02 -0.15160492017E-01  0.15699168853E-01  0.51100000000E-03 0. -1.
         11    1    4    4    0    0  0.28524694566E-01  0.52163290421E-02 -0.10761533436E+00  0.11145487696E+00  0.51100000000E-03 0.  1.
</event>
<event>
 8    1  0.1086235E+005  0.1043930E+01  0.7957747E-01            NaN
         13   -1    0    0    0    0  0.00000000000E+00  0.00000000000E+00  0.74505805969E-08  0.10566000000E+00  0.10566000000E+00 0.  1.
     999900   -1    0    0    0    0 -0.00000000000E+00 -0.00000000000E+00 -0.74505805969E-08  0.93827000000E+00  0.93827000000E+00 0. -1.
     999902    2    1    2    0    0  0.35775036122E-02  0.21649563000E-01 -0.93096162607E-02  0.10200936608E+01  0.10198151331E+01 0.  0.
     999903    2    3    3    0    0  0.44924580967E-01 -0.83486480688E-01  0.84017369860E-01  0.12797646291E+00  0.18189177759E-01 0.  0.
         14    1    1    2    0    0 -0.35775036122E-02 -0.21649563000E-01  0.93096162607E-02  0.23836339171E-01  0.00000000000E+00 0. -1.
     999901    1    3    3    0    0 -0.41347077355E-01  0.10513604369E+00 -0.93326986121E-01  0.89211719792E+00  0.88000000000E+00 0.  1.
        -11    1    4    4    0    0  0.12136289674E-01 -0.90489234255E-02  0.14681205690E-01  0.21094346724E-01  0.51100000000E-03 0. -1.
         11    1    4    4    0    0  0.32788291293E-01 -0.74437557262E-01  0.69336164170E-01  0.10688211618E+00  0.51100000000E-03 0.  1.
</event>
<event>
 8    1  0.1086235E+005  0.1043930E+01  0.7957747E-01            NaN
         13   -1    0    0    0    0  0.00000000000E+00  0.00000000000E+00  0.74505805969E-08  0.10566000000E+00  0.10566000000E+00 0. -1.
     999900   -1    0    0    0    0 -0.00000000000E+00 -0.00000000000E+00 -0.74505805969E-08  0.93827000000E+00  0.93827000000E+00 0. -1.
     999902    2    1    2    0    0  0.18335008651E-01  0.19385729832E-01  0.42533803926E-02  0.10169101867E+01  0.10165511584E+01 0.  0.
     999903    2    3    3    0    0 -0.79249050195E-01  0.88162108923E-01  0.36609205408E-01  0.12825967149E+00  0.32516764953E-01 0.  0.
         14    1    1    2    0    0 -0.18335008651E-01 -0.19385729832E-01 -0.42533803926E-02  0.27019813251E-01  0.00000000000E+00 0.  1.
     999901    1    3    3    0    0  0.97584058846E-01 -0.68776379091E-01 -0.32355825016E-01  0.88865051526E+00  0.88000000000E+00 0. -1.
        -11    1    4    4    0    0 -0.61612869060E-01  0.63538779214E-01  0.12174257362E-01  0.89340896353E-01  0.51100000000E-03 0.  1.
         11    1    4    4    0    0 -0.17636181136E-01  0.24623329708E-01  0.24434948047E-01  0.38918775135E-01  0.51100000000E-03 0. -1.
</event>
<event>
 8    1  0.1086235E+005  0.1043930E+01  0.7957747E-01            NaN
         13   -1    0    0    0    0  0.00000000000E+00  0.00000000000E+00  0.74505805969E-08  0.10566000000E+00  0.10566000000E+00 0. -1.
     999900   -1    0    0    0    0 -0.00000000000E+00 -0.00000000000E+00 -0.74505805969E-08  0.93827000000E+00  0.93827000000E+00 0.  1.
     999902    2    1    2    0    0 -0.18569671553E-01  0.35605165372E-02  0.14241756216E-01  0.10202585488E+01  0.10199839062E+01 0.  0.
     999903    2    3    3    0    0  0.44223043203E-01  0.71905724947E-01  0.99070075958E-01  0.13132107277E+00  0.17442286938E-01 0.  0.
         14    1    1    2    0    0  0.18569671553E-01 -0.35605165372E-02 -0.14241756216E-01  0.23671451153E-01  0.00000000000E+00 0.  1.
     999901    1    3    3    0    0 -0.62792714756E-01 -0.68345208410E-01 -0.84828319742E-01  0.88893747607E+00  0.88000000000E+00 0. -1.
        -11    1    4    4    0    0  0.27872403755E-01  0.57464902963E-01  0.79775883611E-01  0.10219363332E+00  0.51100000000E-03 0. -1.
         11    1    4    4    0    0  0.16350639448E-01  0.14440821983E-01  0.19294192347E-01  0.29127439455E-01  0.51100000000E-03 0.  1.
</event>
<event>
 8    1  0.1086235E+005  0.1043930E+01  0.7957747E-01            NaN
         13   -1    0    0    0    0  0.00000000000E+00  0.00000000000E+00  0.74505805969E-08  0.10566000000E+00  0.10566000000E+00 0. -1.
     999900   -1    0    0    0    0 -0.00000000000E+00 -0.00000000000E+00 -0.74505805969E-08  0.93827000000E+00  0.93827000000E+00 0. -1.
     999902    2    1    2    0    0  0.21800511232E-01 -0.92837060637E-02  0.15456702144E-02  0.10201847145E+01  0.10199083356E+01 0.  0.
     999903    2    3    3    0    0  0.40061913037E-01 -0.37151003597E-01  0.11834085745E+00  0.13184289916E+00  0.19820130524E-01 0.  0.
         14    1    1    2    0    0 -0.21800511232E-01  0.92837060637E-02 -0.15456702144E-02  0.23745285525E-01  0.00000000000E+00 0. -1.
     999901    1    3    3    0    0 -0.18261401805E-01  0.27867297533E-01 -0.11679518723E+00  0.88834181531E+00  0.88000000000E+00 0. -1.
        -11    1    4    4    0    0  0.41177984029E-01 -0.31260437872E-01  0.10057879086E+00  0.11308932592E+00  0.51100000000E-03 0. -1.
         11    1    4    4    0    0 -0.11160709926E-02 -0.58905657248E-02  0.17762066590E-01  0.18753573248E-01  0.51100000000E-03 0.  1.
</event>
<event>
 8    1  0.1086235E+005  0.1043930E+01  0.7957747E-01            NaN
         13   -1    0    0    0    0  0.00000000000E+00  0.00000000000E+00  0.74505805969E-08  0.10566000000E+00  0.10566000000E+00 0. -1.
     999900   -1    0    0    0    0 -0.00000000000E+00 -0.00000000000E+00 -0.74505805969E-08  0.93827000000E+00  0.93827000000E+00 0.  1.
     999902    2    1    2    0    0 -0.17654125367E-01 -0.10571868714E-01  0.99992839877E-02  0.10210516646E+01  0.10207953191E+01 0.  0.
     999903    2    3    3    0    0  0.74868343175E-01 -0.97267763364E-01  0.42501916071E-01  0.13137025733E+00  0.19632754339E-01 0.  0.
         14    1    1    2    0    0  0.17654125367E-01  0.10571868714E-01 -0.99992839877E-02  0.22878335404E-01  0.00000000000E+00 0.  1.
     999901    1    3    3    0    0 -0.92522468542E-01  0.86695894650E-01 -0.32502632083E-01  0.88968140726E+00  0.88000000000E+00 0. -1.
        -11    1    4    4    0    0  0.12123037648E-01 -0.93349999097E-02  0.66890556469E-04  0.15309338995E-01  0.51100000000E-03 0. -1.
         11    1    4    4    0    0  0.62745305527E-01 -0.87932763454E-01  0.42435025514E-01  0.11606091834E+00  0.51100000000E-03 0.  1.
</event>
<event>
 8    1  0.1086235E+005  0.1043930E+01  0.7957747E-01            NaN
         13   -1    0    0    0    0  0.00000000000E+00  0.00000000000E+00  0.74505805969E-08  0.10566000000E+00  0.10566000000E+00 0.  1.
     999900   -1    0    0    0    0 -0.00000000000E+00 -0.00000000000E+00 -0.74505805969E-08  0.93827000000E+00  0.93827000000E+00 0.  1.
     999902    2    1    2    0    0 -0.32760687318E-02 -0.22684728053E-01  0.90369205986E-02  0.10192927224E+01  0.10189949257E+01 0.  0.
     999903    2    3    3    0    0  0.48715535091E-01 -0.11593331707E+00 -0.33246644332E-01  0.13183211704E+00  0.21462300868E-01 0.  0.
         14    1    1    2    0    0  0.32760687318E-02  0.22684728053E-01 -0.90369205986E-02  0.24637277591E-01  0.00000000000E+00 0.  1.
     999901    1    3    3    0    0 -0.51991603823E-01  0.93248589012E-01  0.42283564930E-01  0.88746060537E+00  0.88000000000E+00 0. -1.
        -11    1    4    4    0    0  0.36230898538E-01 -0.83702453781E-01 -0.14029481656E-01  0.92281451302E-01  0.51100000000E-03 0.  1.
         11    1    4    4    0    0  0.12484636554E-01 -0.32230863284E-01 -0.19217162676E-01  0.39550665737E-01  0.51100000000E-03 0. -1.
</event>
<event>
 7    1  0.1086235E+005  0.1043930E+01  0.7957747E-01            NaN
         13   -1    0    0    0    0  0.00000000000E+00  0.00000000000E+00  0.74505805969E-08  0.10566000000E+00  0.10566000000E+00 0. -1.
     999900   -1    0    0    0    0 -0.00000000000E+00 -0.00000000000E+00 -0.74505805969E-08  0.93827000000E+00  0.93827000000E+00 0. -1.
     999903    2    1    2    0    0 -0.10176478737E+00  0.25710141014E-01  0.35077800506E-01  0.11238641215E+00  0.19574734959E-01 0.  0.
         14    1    1    2    0    0  0.12910354543E-01  0.40000903626E-01  0.10957729357E-01  0.43437557229E-01  0.00000000000E+00 0. -1.
     999901    1    1    2    0    0  0.88854432822E-01 -0.65711044640E-01 -0.46035529863E-01  0.88810603062E+00  0.88000000000E+00 0. -1.
        -11    1    3    3    0    0 -0.46690456829E-01  0.62634124903E-02  0.24234964865E-01  0.52979465247E-01  0.51100000000E-03 0. -1.
         11    1    3    3    0    0 -0.55074330536E-01  0.19446728524E-01  0.10842835641E-01  0.59406946900E-01  0.51100000000E-03 0.  1.
</event>
<event>
 8    1  0.1086235E+005  0.1043930E+01  0.7957747E-01            NaN
         13   -1    0    0    0    0  0.00000000000E+00  0.00000000000E+00  0.74505805969E-08  0.10566000000E+00  0.10566000000E+00 0. -1.
     999900   -1    0    0    0    0 -0.00000000000E+00 -0.00000000000E+00 -0.74505805969E-08  0.93827000000E+00  0.93827000000E+00 0. -1.
     999902    2    1    2    0    0 -0.18329563339E-01 -0.56301419670E-02 -0.14767082599E-01  0.10197279728E+01  0.10194407292E+01 0.  0.
     999903    2    3    3    0    0 -0.78305885841E-01  0.10104831042E+00  0.18377486720E-01  0.13064079266E+00  0.19664991568E-01 0.  0.
         14    1    1    2    0    0  0.18329563339E-01  0.56301419670E-02  0.14767082599E-01  0.24202027173E-01  0.00000000000E+00 0. -1.
     999901    1    3    3    0    0  0.59976322501E-01 -0.10667845238E+00 -0.33144569319E-01  0.88908718017E+00  0.88000000000E+00 0. -1.
        -11    1    4    4    0    0 -0.59864516941E-01  0.88937575198E-01  0.16776794227E-01  0.10851439820E+00  0.51100000000E-03 0. -1.
         11    1    4    4    0    0 -0.18441368900E-01  0.12110735218E-01  0.16006924928E-02  0.22126394462E-01  0.51100000000E-03 0.  1.
</event>
<event>
 8    1  0.1086235E+005  0.1043930E+01  0.7957747E-01            NaN
         13   -1    0    0    0    0  0.00000000000E+00  0.00000000000E+00  0.74505805969E-08  0.10566000000E+00  0.10566000000E+00 0.  1.
     999900   -1    0    0    0    0 -0.00000000000E+00 -0.00000000000E+00 -0.74505805969E-08  0.93827000000E+00  0.93827000000E+00 0. -1.
     999902    2    1    2    0    0 -0.15475922649E-02 -0.13248504341E-01 -0.23495422632E-01  0.10169123614E+01  0.10165533916E+01 0.  0.
     999903    2    3    3    0    0 -0.12552248476E+00  0.72683790093E-02  0.82380323992E-02  0.12741939989E+00  0.18950323885E-01 0.  0.
         14    1    1    2    0    0  0.15475922649E-02  0.13248504341E-01  0.23495422632E-01  0.27017638567E-01  0.00000000000E+00 0.  1.
     999901    1    3    3    0    0  0.12397489250E+00 -0.20516883351E-01 -0.31733455031E-01  0.88949296155E+00  0.88000000000E+00 0. -1.
        -11    1    4    4    0    0 -0.52864135155E-01 -0.27960762826E-02  0.10756964627E-01  0.54022293891E-01  0.51100000000E-03 0.  1.
         11    1    4    4    0    0 -0.72658349607E-01  0.10064455292E-01 -0.25189322277E-02  0.73397105995E-01  0.51100000000E-03 0. -1.
</event>
<event>
 8    1  0.1086235E+005  0.1043930E+01  0.7957747E-01            NaN
         13   -1    0    0    0    0  0.00000000000E+00  0.00000000000E+00  0.74505805969E-08  0.10566000000E+00  0.10566000000E+00 0. -1.
     999900   -1    0    0    0    0 -0.00000000000E+00 -0.00000000000E+00 -0.74505805969E-08  0.93827000000E+00  0.93827000000E+00 0.  1.
     999902    2    1    2    0    0  0.89246238897E-02  0.21734409282E-01  0.45090940980E-02  0.10200058409E+01  0.10197252327E+01 0.  0.
     999903    2    3    3    0    0 -0.37163683889E-01  0.58546602924E-01 -0.10874951132E+00  0.13078889246E+00  0.21689492025E-01 0.  0.
         14    1    1    2    0    0 -0.89246238897E-02 -0.21734409282E-01 -0.45090940980E-02  0.23924159086E-01  0.00000000000E+00 0. -1.
     999901    1    3    3    0    0  0.46088307779E-01 -0.36812193642E-01  0.11325860542E+00  0.88921694845E+00  0.88000000000E+00 0. -1.
        -11    1    4    4    0    0 -0.19464645575E-01  0.24593910920E-01 -0.30901908041E-01  0.44033191155E-01  0.51100000000E-03 0. -1.
         11    1    4    4    0    0 -0.17699038314E-01  0.33952692004E-01 -0.77847603281E-01  0.86755701306E-01  0.51100000000E-03 0.  1.
</event>
<event>
 8    1  0.1086235E+005  0.1043930E+01  0.7957747E-01            NaN
         13   -1    0    0    0    0  0.00000000000E+00  0.00000000000E+00  0.74505805969E-08  0.10566000000E+00  0.10566000000E+00 0. -1.
     999900   -1    0    0    0    0 -0.00000000000E+00 -0.00000000000E+00 -0.74505805969E-08  0.93827000000E+00  0.93827000000E+00 0.  1.
     999902    2    1    2    0    0 -0.11309537475E-01  0.13580526827E-01 -0.16183717731E-01  0.10199665055E+01  0.10196849628E+01 0.  0.
     999903    2    3    3    0    0  0.12062433069E+00  0.31130228789E-01 -0.31312901239E-01  0.12982975774E+00  0.18866581895E-01 0.  0.
         14    1    1    2    0    0  0.11309537475E-01 -0.13580526827E-01  0.16183717731E-01  0.23963494453E-01  0.00000000000E+00 0. -1.
     999901    1    3    3    0    0 -0.13193386816E+00 -0.17549701962E-01  0.15129183508E-01  0.89013674781E+00  0.88000000000E+00 0. -1.
        -11    1    4    4    0    0  0.73126955327E-01  0.15277106282E-01 -0.98720318051E-02  0.75356882265E-01  0.51100000000E-03 0.  1.
         11    1    4    4    0    0  0.47497375359E-01  0.15853122507E-01 -0.21440869434E-01  0.54472875473E-01  0.51100000000E-03 0. -1.
</event>
<event>
 8    1  0.1086235E+005  0.1043930E+01  0.7957747E-01            NaN
         13   -1    0    0    0    0  0.00000000000E+00  0.00000000000E+00  0.74505805969E-08  0.10566000000E+00  0.10566000000E+00 0.  1.
     999900   -1    0    0    0    0 -0.00000000000E+00 -0.00000000000E+00 -0.74505805969E-08  0.93827000000E+00  0.93827000000E+00 0. -1.
     999902    2    1    2    0    0  0.12760383876E-01  0.13034646563E-01 -0.15339424307E-01  0.10200966757E+01  0.10198182193E+01 0.  0.
     999903    2    3    3    0    0 -0.10305673816E+00  0.58192495182E-01  0.47357196099E-01  0.12915127715E+00  0.20743446909E-01 0.  0.
         14    1    1    2    0    0 -0.12760383876E-01 -0.13034646563E-01  0.15339424307E-01  0.23833324270E-01  0.00000000000E+00 0. -1.
     999901    1    3    3    0    0  0.11581712204E+00 -0.45157848620E-01 -0.62696620406E-01  0.89094539858E+00  0.88000000000E+00 0. -1.
        -11    1    4    4    0    0 -0.83288098850E-01  0.36913016602E-01  0.35512199660E-01  0.97779627993E-01  0.51100000000E-03 0.  1.
         11    1    4    4    0    0 -0.19768639313E-01  0.21279478580E-01  0.11844996440E-01  0.31371649153E-01  0.51100000000E-03 0. -1.
</event>
<event>
 8    1  0.1086235E+005  0.1043930E+01  0.7957747E-01            NaN
         13   -1    0    0    0    0  0.00000000000E+00  0.00000000000E+00  0.74505805969E-08  0.10566000000E+00  0.10566000000E+00 0. -1.
     999900   -1    0    0    0    0 -0.00000000000E+00 -0.00000000000E+00 -0.74505805969E-08  0.93827000000E+00  0.93827000000E+00 0.  1.
     999902    2    1    2    0    0 -0.42305203602E-02  0.17732457798E-01  0.16121074386E-01  0.10195942978E+01  0.10193038339E+01 0.  0.
     999903    2    3    3    0    0  0.80552440065E-01 -0.42620216305E-01 -0.87213444406E-01  0.12745719039E+00  0.18274902421E-01 0.  0.
         14    1    1    2    0    0  0.42305203602E-02 -0.17732457798E-01 -0.16121074386E-01  0.24335702198E-01  0.00000000000E+00 0.  1.
     999901    1    3    3    0    0 -0.84782960425E-01  0.60352674103E-01  0.10333451879E+00  0.89213710741E+00  0.88000000000E+00 0. -1.
        -11    1    4    4    0    0  0.41450035578E-01 -0.31291697747E-01 -0.43814143695E-01  0.67950100118E-01  0.51100000000E-03 0.  1.
         11    1    4    4    0    0  0.39102404487E-01 -0.11328518558E-01 -0.43399300710E-01  0.59507090271E-01  0.51100000000E-03 0. -1.
</event>
<event>
 8    1  0.1206815E+005  0.1043930E+01  0.7957747E-01            NaN
         13   -1    0    0    0    0  0.00000000000E+00  0.00000000000E+00  0.74505805969E-08  0.10566000000E+00  0.10566000000E+00 0.  1.
     999900   -1    0    0    0    0 -0.00000000000E+00 -0.00000000000E+00 -0.74505805969E-08  0.93827000000E+00  0.93827000000E+00 0. -1.
     999902    2    1    2    0    0 -0.26938600725E-02  0.18384469583E-01 -0.14621414444E-01  0.10202861559E+01  0.10200121610E+01 0.  0.
     999903    2    3    3    0    0  0.69060608981E-01 -0.10499783841E+00  0.16136375580E-01  0.12825592131E+00  0.19881774371E-01 0.  0.
         14    1    1    2    0    0  0.26938600725E-02 -0.18384469583E-01  0.14621414444E-01  0.23643844109E-01  0.00000000000E+00 0. -1.
     999901    1    3    3    0    0 -0.71754469054E-01  0.12338230799E+00 -0.30757790024E-01  0.89203023458E+00  0.88000000000E+00 0. -1.
        -11    1    4    4    0    0  0.44017513388E-01 -0.49528360931E-01  0.57418530053E-02  0.66511878776E-01  0.51100000000E-03 0. -1.
         11    1    4    4    0    0  0.25043095593E-01 -0.55469477475E-01  0.10394522575E-01  0.61744042537E-01  0.51100000000E-03 0.  1.
</event>
<event>
 8    1  0.1086235E+005  0.1043930E+01  0.7957747E-01            NaN
         13   -1    0    0    0    0  0.00000000000E+00  0.00000000000E+00  0.74505805969E-08  0.10566000000E+00  0.10566000000E+00 0. -1.
     999900   -1    0    0    0    0 -0.00000000000E+00 -0.00000000000E+00 -0.74505805969E-08  0.93827000000E+00  0.93827000000E+00 0.  1.
     999902    2    1    2    0    0  0.14224739740E-02  0.32611502763E-01  0.71453065814E-02  0.10105146001E+01  0.10099619637E+01 0.  0.
     999903    2    3    3    0    0  0.14602524923E-01  0.10655075548E+00 -0.59276308047E-01  0.12482133619E+00  0.22369355052E-01 0.  0.
         14    1    1    2    0    0 -0.14224739740E-02 -0.32611502763E-01 -0.71453065814E-02  0.33415399905E-01  0.00000000000E+00 0.  1.
     999901    1    3    3    0    0 -0.13180050949E-01 -0.73939252715E-01  0.66421614629E-01  0.88569326390E+00  0.88000000000E+00 0. -1.
        -11    1    4    4    0    0 -0.21786101114E-03  0.15413925963E-01 -0.17930542284E-01  0.23651681645E-01  0.51100000000E-03 0. -1.
         11    1    4    4    0    0  0.14820385934E-01  0.91136829515E-01 -0.41345765763E-01  0.10116965455E+00  0.51100000000E-03 0.  1.
</event>
<event>
 8    1  0.1086235E+005  0.1043930E+01  0.7957747E-01            NaN
         13   -1    0    0    0    0  0.00000000000E+00  0.00000000000E+00  0.74505805969E-08  0.10566000000E+00  0.10566000000E+00 0.  1.
     999900   -1    0    0    0    0 -0.00000000000E+00 -0.00000000000E+00 -0.74505805969E-08  0.93827000000E+00  0.93827000000E+00 0.  1.
     999902    2    1    2    0    0  0.14363847655E-01 -0.10446036575E-01  0.17240637402E-01  0.10191776389E+01  0.10188770192E+01 0.  0.
     999903    2    3    3    0    0  0.89462473989E-01 -0.37631156074E-01  0.88401226731E-01  0.13269996643E+00  0.19361457681E-01 0.  0.
         14    1    1    2    0    0 -0.14363847655E-01  0.10446036575E-01 -0.17240637402E-01  0.24752361051E-01  0.00000000000E+00 0. -1.
     999901    1    3    3    0    0 -0.75098626333E-01  0.27185119499E-01 -0.71160589329E-01  0.88647767252E+00  0.88000000000E+00 0.  1.
        -11    1    4    4    0    0  0.26370219031E-01 -0.20996207753E-01  0.30742143333E-01  0.45624222618E-01  0.51100000000E-03 0. -1.
         11    1    4    4    0    0  0.63092254958E-01 -0.16634948320E-01  0.57659083398E-01  0.87075743813E-01  0.51100000000E-03 0.  1.
</event>
<event>
 8    1  0.1086235E+005  0.1043930E+01  0.7957747E-01            NaN
         13   -1    0    0    0    0  0.00000000000E+00  0.00000000000E+00  0.74505805969E-08  0.10566000000E+00  0.10566000000E+00 0. -1.
     999900   -1    0    0    0    0 -0.00000000000E+00 -0.00000000000E+00 -0.74505805969E-08  0.93827000000E+00  0.93827000000E+00 0.  1.
     999902    2    1    2    0    0 -0.16169358297E-01 -0.98941502001E-02 -0.12928186085E-01  0.10209848403E+01  0.10207269781E+01 0.  0.
     999903    2    3    3    0    0  0.93260651884E-01  0.13178383515E-01  0.85107201672E-01  0.12850615366E+00  0.19984413193E-01 0.  0.
         14    1    1    2    0    0  0.16169358297E-01  0.98941502001E-02  0.12928186085E-01  0.22945159650E-01  0.00000000000E+00 0.  1.
     999901    1    3    3    0    0 -0.10943001018E+00 -0.23072533715E-01 -0.98035387757E-01  0.89247868669E+00  0.88000000000E+00 0.  1.
        -11    1    4    4    0    0  0.41380463118E-01  0.13013965377E-02  0.49191610198E-01  0.64297060552E-01  0.51100000000E-03 0. -1.
         11    1    4    4    0    0  0.51880188765E-01  0.11876986977E-01  0.35915591474E-01  0.64209093109E-01  0.51100000000E-03 0.  1.
</event>
<event>
 8    1  0.1086235E+005  0.1043930E+01  0.7957747E-01            NaN
         13   -1    0    0    0    0  0.00000000000E+00  0.00000000000E+00  0.74505805969E-08  0.10566000000E+00  0.10566000000E+00 0. -1.
     999900   -1    0    0    0    0 -0.00000000000E+00 -0.00000000000E+00 -0.74505805969E-08  0.93827000000E+00  0.93827000000E+00 0. -1.
     999902    2    1    2    0    0 -0.97619333846E-02 -0.19448860804E-01 -0.74251191154E-02  0.10209368288E+01  0.10206778740E+01 0.  0.
     999903    2    3    3    0    0  0.31052415227E-01  0.32586157364E-01  0.11974968005E+00  0.12933889038E+00  0.19038186635E-01 0.  0.
         14    1    1    2    0    0  0.97619333846E-02  0.19448860804E-01  0.74251191154E-02  0.22993171244E-01  0.00000000000E+00 0.  1.
     999901    1    3    3    0    0 -0.40814348611E-01 -0.52035018169E-01 -0.12717479916E+00  0.89159793837E+00  0.88000000000E+00 0. -1.
        -11    1    4    4    0    0  0.11280984066E-01  0.74467489656E-02  0.60629805045E-01  0.62120439893E-01  0.51100000000E-03 0. -1.
         11    1    4    4    0    0  0.19771431160E-01  0.25139408399E-01  0.59119875004E-01  0.67218450490E-01  0.51100000000E-03 0.  1.
</event>
<event>
 8    1  0.1086235E+005  0.1043930E+01  0.7957747E-01            NaN
         13   -1    0    0    0    0  0.00000000000E+00  0.00000000000E+00  0.74505805969E-08  0.10566000000E+00  0.10566000000E+00 0.  1.
     999900   -1    0    0    0    0 -0.00000000000E+00 -0.00000000000E+00 -0.74505805969E-08  0.93827000000E+00  0.93827000000E+00 0. -1.
     999902    2    1    2    0    0  0.19819807403E-01  0.17289149000E-01  0.58868469877E-02  0.10169782949E+01  0.10166210985E+01 0.  0.
     999903    2    3    3    0    0  0.58166640580E-01 -0.10936661512E+00  0.19206874311E-01  0.12698414589E+00  0.20289275659E-01 0.  0.
         14    1    1    2    0    0 -0.19819807403E-01 -0.17289149000E-01 -0.58868469877E-02  0.26951705069E-01  0.00000000000E+00 0. -1.
     999901    1    3    3    0    0 -0.38346833177E-01  0.12665576412E+00 -0.13320027323E-01  0.88999414904E+00  0.88000000000E+00 0.  1.
        -11    1    4    4    0    0  0.47902398791E-01 -0.10048838644E+00  0.20996907160E-01  0.11328586342E+00  0.51100000000E-03 0. -1.
         11    1    4    4    0    0  0.10264241789E-01 -0.88782286810E-02 -0.17900328486E-02  0.13698282470E-01  0.51100000000E-03 0.  1.
</event>
<event>
 8    1  0.1086235E+005  0.1043930E+01  0.7957747E-01            NaN
         13   -1    0    0    0    0  0.00000000000E+00  0.00000000000E+00  0.74505805969E-08  0.10566000000E+00  0.10566000000E+00 0. -1.
     999900   -1    0    0    0    0 -0.00000000000E+00 -0.00000000000E+00 -0.74505805969E-08  0.93827000000E+00  0.93827000000E+00 0.  1.
     999902    2    1    2    0    0  0.81859310584E-02  0.21328137285E-01  0.38452806763E-02  0.10207635352E+01  0.10205006172E+01 0.  0.
     999903    2    3    3    0    0  0.12424759710E+00 -0.30437726156E-01 -0.22559004649E-01  0.13124276467E+00  0.18757239347E-01 0.  0.
         14    1    1    2    0    0 -0.81859310584E-02 -0.21328137285E-01 -0.38452806763E-02  0.23166464789E-01  0.00000000000E+00 0. -1.
     999901    1    3    3    0    0 -0.11606166604E+00  0.51765863441E-01  0.26404285325E-01  0.88952077054E+00  0.88000000000E+00 0. -1.
        -11    1    4    4    0    0  0.38943149871E-01 -0.10189304195E-01  0.16323880887E-02  0.40290403991E-01  0.51100000000E-03 0. -1.
         11    1    4    4    0    0  0.85304447231E-01 -0.20248421961E-01 -0.24191392738E-01  0.90952360678E-01  0.51100000000E-03 0.  1.
</event>
<event>
 8    1  0.1086235E+005  0.1043930E+01  0.7957747E-01            NaN
         13   -1    0    0    0    0  0.00000000000E+00  0.00000000000E+00  0.74505805969E-08  0.10566000000E+00  0.10566000000E+00 0.  1.
     999900   -1    0    0    0    0 -0.00000000000E+00 -0.00000000000E+00 -0.74505805969E-08  0.93827000000E+00  0.93827000000E+00 0.  1.
     999902    2    1    2    0    0 -0.10309352310E-01  0.17889921187E-01 -0.11535818381E-01  0.10202782108E+01  0.10200040296E+01 0.  0.
     999903    2    3    3    0    0 -0.11006721620E+00  0.26196555672E-01  0.62405658982E-01  0.13152179107E+00  0.24545134801E-01 0.  0.
         14    1    1    2    0    0  0.10309352310E-01 -0.17889921187E-01  0.11535818381E-01  0.23651789168E-01  0.00000000000E+00 0.  1.
     999901    1    3    3    0    0  0.99757863895E-01 -0.83066344847E-02 -0.73941477363E-01  0.88875641976E+00  0.88000000000E+00 0.  1.
        -11    1    4    4    0    0 -0.70050597727E-01  0.20377055707E-01  0.27063179188E-01  0.77813799740E-01  0.51100000000E-03 0.  1.
         11    1    4    4    0    0 -0.40016618478E-01  0.58194999646E-02  0.35342479795E-01  0.53707991335E-01  0.51100000000E-03 0. -1.
</event>
<event>
 8    1  0.1086235E+005  0.1043930E+01  0.7957747E-01            NaN
         13   -1    0    0    0    0  0.00000000000E+00  0.00000000000E+00  0.74505805969E-08  0.10566000000E+00  0.10566000000E+00 0. -1.
     999900   -1    0    0    0    0 -0.00000000000E+00 -0.00000000000E+00 -0.74505805969E-08  0.93827000000E+00  0.93827000000E+00 0. -1.
     999902    2    1    2    0    0  0.14786992286E-01 -0.66509545204E-02 -0.19954264191E-01  0.10182188546E+01  0.10178941855E+01 0.  0.
     999903    2    3    3    0    0 -0.66613662657E-01 -0.10634765596E+00  0.16484494472E-01  0.12811027584E+00  0.19831798644E-01 0.  0.
         14    1    1    2    0    0 -0.14786992286E-01  0.66509545204E-02  0.19954264191E-01  0.25711145371E-01  0.00000000000E+00 0. -1.
     999901    1    3    3    0    0  0.81400654943E-01  0.99696701436E-01 -0.36438758662E-01  0.89010857879E+00  0.88000000000E+00 0.  1.
        -11    1    4    4    0    0 -0.51704823002E-01 -0.80924221793E-01  0.40515278275E-02  0.96118647479E-01  0.51100000000E-03 0. -1.
         11    1    4    4    0    0 -0.14908839655E-01 -0.25423434164E-01  0.12432966644E-01  0.31991628360E-01  0.51100000000E-03 0.  1.
</event>
<event>
 8    1  0.1086235E+005  0.1043930E+01  0.7957747E-01            NaN
         13   -1    0    0    0    0  0.00000000000E+00  0.00000000000E+00  0.74505805969E-08  0.10566000000E+00  0.10566000000E+00 0.  1.
     999900   -1    0    0    0    0 -0.00000000000E+00 -0.00000000000E+00 -0.74505805969E-08  0.93827000000E+00  0.93827000000E+00 0. -1.
     999902    2    1    2    0    0  0.32115306899E-02 -0.91888929910E-02  0.20659822985E-01  0.10210919184E+01  0.10208364844E+01 0.  0.
     999903    2    3    3    0    0  0.99446536821E-01 -0.24600462682E-01 -0.78078896672E-01  0.13022266448E+00  0.19152853281E-01 0.  0.
         14    1    1    2    0    0 -0.32115306899E-02  0.91888929910E-02 -0.20659822985E-01  0.22838081564E-01  0.00000000000E+00 0. -1.
     999901    1    3    3    0    0 -0.96235006131E-01  0.15411569691E-01  0.98738719657E-01  0.89086925396E+00  0.88000000000E+00 0.  1.
        -11    1    4    4    0    0  0.67411288683E-01 -0.20874880795E-01 -0.43334677229E-01  0.82814237071E-01  0.51100000000E-03 0. -1.
         11    1    4    4    0    0  0.32035248137E-01 -0.37255818869E-02 -0.34744219443E-01  0.47408427408E-01  0.51100000000E-03 0.  1.
</event>
<event>
 8    1  0.1086235E+005  0.1043930E+01  0.7957747E-01            NaN
         13   -1    0    0    0    0  0.00000000000E+00  0.00000000000E+00  0.74505805969E-08  0.10566000000E+00  0.10566000000E+00 0.  1.
     999900   -1    0    0    0    0 -0.00000000000E+00 -0.00000000000E+00 -0.74505805969E-08  0.93827000000E+00  0.93827000000E+00 0.  1.
     999902    2    1    2    0    0 -0.20732401843E-01 -0.11121736776E-01 -0.33227056015E-02  0.10201694047E+01  0.10198926652E+01 0.  0.
     999903    2    3    3    0    0  0.41293598302E-01  0.11748163104E+00 -0.23793037056E-01  0.12842668097E+00  0.20498997085E-01 0.  0.
         14    1    1    2    0    0  0.20732401843E-01  0.11121736776E-01  0.33227056015E-02  0.23760595270E-01  0.00000000000E+00 0. -1.
     999901    1    3    3    0    0 -0.62026000145E-01 -0.12860336781E+00  0.20470331455E-01  0.89174272376E+00  0.88000000000E+00 0.  1.
        -11    1    4    4    0    0 -0.20848728146E-02  0.89628109705E-02 -0.30648457815E-03  0.92213734846E-02  0.51100000000E-03 0.  1.
         11    1    4    4    0    0  0.43378471117E-01  0.10851882006E+00 -0.23486552478E-01  0.11920530749E+00  0.51100000000E-03 0. -1.
</event>
<event>
 8    1  0.1086235E+005  0.1043930E+01  0.7957747E-01            NaN
         13   -1    0    0    0    0  0.00000000000E+00  0.00000000000E+00  0.74505805969E-08  0.10566000000E+00  0.10566000000E+00 0. -1.
     999900   -1    0    0    0    0 -0.00000000000E+00 -0.00000000000E+00 -0.74505805969E-08  0.93827000000E+00  0.93827000000E+00 0.  1.
     999902    2    1    2    0    0  0.18235667057E-01  0.12735645380E-01 -0.60839106667E-02  0.10208702909E+01  0.10206098180E+01 0.  0.
     999903    2    3    3    0    0 -0.16614830232E-01  0.38939413786E-01  0.12194102233E+00  0.13053800565E+00  0.19448070905E-01 0.  0.
         14    1    1    2    0    0 -0.18235667057E-01 -0.12735645380E-01  0.60839106667E-02  0.23059709132E-01  0.00000000000E+00 0. -1.
     999901    1    3    3    0    0  0.34850497289E-01 -0.26203768406E-01 -0.12802493299E+00  0.89033228522E+00  0.88000000000E+00 0.  1.
        -11    1    4    4    0    0 -0.76160573049E-02  0.54346807079E-02  0.47406105635E-01  0.48323286889E-01  0.51100000000E-03 0. -1.
         11    1    4    4    0    0 -0.89987729267E-02  0.33504733078E-01  0.74534916693E-01  0.82214718757E-01  0.51100000000E-03 0.  1.
</event>
<event>
 8    1  0.1086235E+005  0.1043930E+01  0.7957747E-01            NaN
         13   -1    0    0    0    0  0.00000000000E+00  0.00000000000E+00  0.74505805969E-08  0.10566000000E+00  0.10566000000E+00 0. -1.
     999900   -1    0    0    0    0 -0.00000000000E+00 -0.00000000000E+00 -0.74505805969E-08  0.93827000000E+00  0.93827000000E+00 0. -1.
     999902    2    1    2    0    0 -0.48633695893E-02  0.27518282827E-01  0.75680464294E-02  0.10149785997E+01  0.10145656086E+01 0.  0.
     999903    2    3    3    0    0 -0.56397718876E-01  0.10823909069E+00  0.37211281419E-01  0.12928657682E+00  0.20831131385E-01 0.  0.
         14    1    1    2    0    0  0.48633695893E-02 -0.27518282827E-01 -0.75680464294E-02  0.28951400316E-01  0.00000000000E+00 0. -1.
     999901    1    3    3    0    0  0.51534349287E-01 -0.80720807860E-01 -0.29643234990E-01  0.88569202286E+00  0.88000000000E+00 0. -1.
        -11    1    4    4    0    0 -0.24198070911E-01  0.51332100535E-01  0.67495701903E-02  0.57151981592E-01  0.51100000000E-03 0.  1.
         11    1    4    4    0    0 -0.32199647965E-01  0.56906990152E-01  0.30461711229E-01  0.72134595232E-01  0.51100000000E-03 0. -1.
</event>
<event>
 8    1  0.1086235E+005  0.1043930E+01  0.7957747E-01            NaN
         13   -1    0    0    0    0  0.00000000000E+00  0.00000000000E+00  0.74505805969E-08  0.10566000000E+00  0.10566000000E+00 0.  1.
     999900   -1    0    0    0    0 -0.00000000000E+00 -0.00000000000E+00 -0.74505805969E-08  0.93827000000E+00  0.93827000000E+00 0. -1.
     999902    2    1    2    0    0  0.10440761362E-01  0.83243145080E-02  0.18601654228E-01  0.10210318505E+01  0.10207750558E+01 0.  0.
     999903    2    3    3    0    0  0.64964350400E-01  0.92425908337E-01  0.68947923438E-01  0.13391255376E+00  0.20392168939E-01 0.  0.
         14    1    1    2    0    0 -0.10440761362E-01 -0.83243145080E-02 -0.18601654228E-01  0.22898149485E-01  0.00000000000E+00 0.  1.
     999901    1    3    3    0    0 -0.54523589038E-01 -0.84101593829E-01 -0.50346269210E-01  0.88711929675E+00  0.88000000000E+00 0. -1.
        -11    1    4    4    0    0  0.16843273126E-01  0.25306280389E-01  0.29587340865E-01  0.42423761469E-01  0.51100000000E-03 0. -1.
         11    1    4    4    0    0  0.48121077274E-01  0.67119627948E-01  0.39360582574E-01  0.91488792294E-01  0.51100000000E-03 0.  1.
</event>
<event>
 8    1  0.1086235E+005  0.1043930E+01  0.7957747E-01            NaN
         13   -1    0    0    0    0  0.00000000000E+00  0.00000000000E+00  0.74505805969E-08  0.10566000000E+00  0.10566000000E+00 0. -1.
     999900   -1    0    0    0    0 -0.00000000000E+00 -0.00000000000E+00 -0.74505805969E-08  0.93827000000E+00  0.93827000000E+00 0. -1.
     999902    2    1    2    0    0  0.13403998305E-01  0.20520237952E-01 -0.13664331141E-02  0.10193817928E+01  0.10190861716E+01 0.  0.
     999903    2    3    3    0    0  0.44673863955E-01  0.11724163913E+00 -0.38858645727E-01  0.13273727558E+00  0.19178996691E-01 0.  0.
         14    1    1    2    0    0 -0.13403998305E-01 -0.20520237952E-01  0.13664331141E-02  0.24548207178E-01  0.00000000000E+00 0. -1.
     999901    1    3    3    0    0 -0.31269865649E-01 -0.96721401182E-01  0.37492212612E-01  0.88664451724E+00  0.88000000000E+00 0.  1.
        -11    1    4    4    0    0  0.29245524073E-01  0.81876469854E-01 -0.35808085640E-01  0.94029448112E-01  0.51100000000E-03 0.  1.
         11    1    4    4    0    0  0.15428339881E-01  0.35365169280E-01 -0.30505600868E-02  0.38707827471E-01  0.51100000000E-03 0. -1.
</event>
<event>
 8    1  0.1086235E+005  0.1043930E+01  0.7957747E-01            NaN
         13   -1    0    0    0    0  0.00000000000E+00  0.00000000000E+00  0.74505805969E-08  0.10566000000E+00  0.10566000000E+00 0. -1.
     999900   -1    0    0    0    0 -0.00000000000E+00 -0.00000000000E+00 -0.74505805969E-08  0.93827000000E+00  0.93827000000E+00 0.  1.
     999902    2    1    2    0    0  0.12062324268E-02 -0.86576464756E-02  0.21920783391E-01  0.10203306232E+01  0.10200576700E+01 0.  0.
     999903    2    3    3    0    0  0.42596030930E-02  0.12628718019E+00  0.22564627361E-01  0.13003862403E+00  0.20839511358E-01 0.  0.
         14    1    1    2    0    0 -0.12062324268E-02  0.86576464756E-02 -0.21920783391E-01  0.23599376764E-01  0.00000000000E+00 0.  1.
     999901    1    3    3    0    0 -0.30533706662E-02 -0.13494482666E+00 -0.64384396953E-03  0.89029199921E+00  0.88000000000E+00 0.  1.
        -11    1    4    4    0    0 -0.69650520481E-02  0.76098980983E-01  0.17186705876E-01  0.78327586689E-01  0.51100000000E-03 0.  1.
         11    1    4    4    0    0  0.11224655141E-01  0.50188199204E-01  0.53779214846E-02  0.51711037340E-01  0.51100000000E-03 0. -1.
</event>
<event>
 8    1  0.1086235E+005  0.1043930E+01  0.7957747E-01            NaN
         13   -1    0    0    0    0  0.00000000000E+00  0.00000000000E+00  0.74505805969E-08  0.10566000000E+00  0.10566000000E+00 0. -1.
     999900   -1    0    0    0    0 -0.00000000000E+00 -0.00000000000E+00 -0.74505805969E-08  0.93827000000E+00  0.93827000000E+00 0. -1.
     999902    2    1    2    0    0  0.85036033784E-02 -0.15574619221E-01  0.16450644310E-01  0.10197328156E+01  0.10194456883E+01 0.  0.
     999903    2    3    3    0    0  0.33198145546E-01  0.45957576904E-02  0.12630372855E+00  0.13232965772E+00  0.20863092048E-01 0.  0.
         14    1    1    2    0    0 -0.85036033784E-02  0.15574619221E-01 -0.16450644310E-01  0.24197184392E-01  0.00000000000E+00 0.  1.
     999901    1    3    3    0    0 -0.24694542167E-01 -0.20170376911E-01 -0.10985308424E+00  0.88740315789E+00  0.88000000000E+00 0. -1.
        -11    1    4    4    0    0  0.21086978756E-01 -0.67647205123E-03  0.10615015533E+00  0.10822769925E+00  0.51100000000E-03 0. -1.
         11    1    4    4    0    0  0.12111166790E-01  0.52722297417E-02  0.20153573221E-01  0.24101958469E-01  0.51100000000E-03 0.  1.
</event>
<event>
 8    1  0.1086235E+005  0.1043930E+01  0.7957747E-01            NaN
         13   -1    0    0    0    0  0.00000000000E+00  0.00000000000E+00  0.74505805969E-08  0.10566000000E+00  0.10566000000E+00 0.  1.
     999900   -1    0    0    0    0 -0.00000000000E+00 -0.00000000000E+00 -0.74505805969E-08  0.93827000000E+00  0.93827000000E+00 0. -1.
     999902    2    1    2    0    0 -0.38391582249E-02  0.45407673019E-02  0.22535750742E-01  0.10206229675E+01  0.10203568121E+01 0.  0.
     999903    2    3    3    0    0 -0.11222390551E+00  0.60724811375E-01 -0.21946236999E-01  0.13108232901E+00  0.20475155092E-01 0.  0.
         14    1    1    2    0    0  0.38391582249E-02 -0.45407673019E-02 -0.22535750742E-01  0.23307032523E-01  0.00000000000E+00 0. -1.
     999901    1    3    3    0    0  0.10838474728E+00 -0.56184044073E-01  0.44481987741E-01  0.88954063847E+00  0.88000000000E+00 0.  1.
        -11    1    4    4    0    0 -0.84536611546E-01  0.51470617044E-01 -0.23901724538E-01  0.10181952989E+00  0.51100000000E-03 0.  1.
         11    1    4    4    0    0 -0.27687293962E-01  0.92541943312E-02  0.19554875387E-02  0.29262799117E-01  0.51100000000E-03 0. -1.
</event>
<event>
 8    1  0.1086235E+005  0.1043930E+01  0.7957747E-01            NaN
         13   -1    0    0    0    0  0.00000000000E+00  0.00000000000E+00  0.74505805969E-08  0.10566000000E+00  0.10566000000E+00 0.  1.
     999900   -1    0    0    0    0 -0.00000000000E+00 -0.00000000000E+00 -0.74505805969E-08  0.93827000000E+00  0.93827000000E+00 0.  1.
     999902    2    1    2    0    0  0.10315944736E-01  0.14762227901E-02 -0.20460847920E-01  0.10209682003E+01  0.10207099596E+01 0.  0.
     999903    2    3    3    0    0 -0.62284185463E-01  0.84122246066E-01 -0.78267002319E-01  0.13223725360E+00  0.20126985520E-01 0.  0.
         14    1    1    2    0    0 -0.10315944736E-01 -0.14762227901E-02  0.20460847920E-01  0.22961799736E-01  0.00000000000E+00 0.  1.
     999901    1    3    3    0    0  0.72600130199E-01 -0.82646023276E-01  0.57806154399E-01  0.88873094666E+00  0.88000000000E+00 0. -1.
        -11    1    4    4    0    0 -0.18968986257E-01  0.37217949997E-01 -0.22422442340E-01  0.47413344989E-01  0.51100000000E-03 0.  1.
         11    1    4    4    0    0 -0.43315199206E-01  0.46904296069E-01 -0.55844559979E-01  0.84823908613E-01  0.51100000000E-03 0. -1.
</event>
<event>
 8    1  0.1086235E+005  0.1043930E+01  0.7957747E-01            NaN
         13   -1    0    0    0    0  0.00000000000E+00  0.00000000000E+00  0.74505805969E-08  0.10566000000E+00  0.10566000000E+00 0.  1.
     999900   -1    0    0    0    0 -0.00000000000E+00 -0.00000000000E+00 -0.74505805969E-08  0.93827000000E+00  0.93827000000E+00 0. -1.
     999902    2    1    2    0    0  0.17559586467E-01 -0.12023442482E-01 -0.10035446753E-01  0.10204010298E+01  0.10201297218E+01 0.  0.
     999903    2    3    3    0    0 -0.26496486459E-01 -0.16356484975E-01  0.12368406021E+00  0.12919924607E+00  0.20617954313E-01 0.  0.
         14    1    1    2    0    0 -0.17559586467E-01  0.12023442482E-01  0.10035446753E-01  0.23528970176E-01  0.00000000000E+00 0.  1.
     999901    1    3    3    0    0  0.44056072926E-01  0.43330424926E-02 -0.13371950696E+00  0.89120178375E+00  0.88000000000E+00 0. -1.
        -11    1    4    4    0    0 -0.19103022020E-01  0.28675909479E-03  0.61494841197E-01  0.64396306539E-01  0.51100000000E-03 0. -1.
         11    1    4    4    0    0 -0.73934644390E-02 -0.16643244070E-01  0.62189219014E-01  0.64802939533E-01  0.51100000000E-03 0.  1.
</event>
<event>
 8    1  0.1086235E+005  0.1043930E+01  0.7957747E-01            NaN
         13   -1    0    0    0    0  0.00000000000E+00  0.00000000000E+00  0.74505805969E-08  0.10566000000E+00  0.10566000000E+00 0.  1.
     999900   -1    0    0    0    0 -0.00000000000E+00 -0.00000000000E+00 -0.74505805969E-08  0.93827000000E+00  0.93827000000E+00 0. -1.
     999902    2    1    2    0    0 -0.14198796999E-01  0.94900579897E-02 -0.16282622396E-01  0.10203335844E+01  0.10200607005E+01 0.  0.
     999903    2    3    3    0    0 -0.51399407856E-01  0.23317204477E-02  0.11775129375E+00  0.12937891781E+00  0.15039984911E-01 0.  0.
         14    1    1    2    0    0  0.14198796999E-01 -0.94900579897E-02  0.16282622396E-01  0.23596415595E-01  0.00000000000E+00 0. -1.
     999901    1    3    3    0    0  0.37200610857E-01  0.71583375419E-02 -0.13403391615E+00  0.89095466659E+00  0.88000000000E+00 0. -1.
        -11    1    4    4    0    0 -0.44237367675E-01 -0.34649228548E-02  0.97846836909E-01  0.10743935500E+00  0.51100000000E-03 0.  1.
         11    1    4    4    0    0 -0.71620401810E-02  0.57966433025E-02  0.19904456842E-01  0.21939562810E-01  0.51100000000E-03 0. -1.
</event>
<event>
 8    1  0.1086235E+005  0.1043930E+01  0.7957747E-01            NaN
         13   -1    0    0    0    0  0.00000000000E+00  0.00000000000E+00  0.74505805969E-08  0.10566000000E+00  0.10566000000E+00 0.  1.
     999900   -1    0    0    0    0 -0.00000000000E+00 -0.00000000000E+00 -0.74505805969E-08  0.93827000000E+00  0.93827000000E+00 0. -1.
     999902    2    1    2    0    0 -0.12858285232E-01 -0.10399092427E-01  0.18259753119E-01  0.10192947568E+01  0.10189970098E+01 0.  0.
     999903    2    3    3    0    0  0.11830520621E+00 -0.31493099150E-01 -0.31485077503E-01  0.12793435453E+00  0.19696493383E-01 0.  0.
         14    1    1    2    0    0  0.12858285232E-01  0.10399092427E-01 -0.18259753119E-01  0.24635243177E-01  0.00000000000E+00 0. -1.
     999901    1    3    3    0    0 -0.13116349145E+00  0.21094006723E-01  0.49744830622E-01  0.89136040230E+00  0.88000000000E+00 0. -1.
        -11    1    4    4    0    0  0.28114889530E-01 -0.10192263280E-01  0.45059053194E-03  0.29913097414E-01  0.51100000000E-03 0.  1.
         11    1    4    4    0    0  0.90190316683E-01 -0.21300835869E-01 -0.31935668035E-01  0.98021257113E-01  0.51100000000E-03 0. -1.
</event>
<event>
 8    1  0.1086235E+005  0.1043930E+01  0.7957747E-01            NaN
         13   -1    0    0    0    0  0.00000000000E+00  0.00000000000E+00  0.74505805969E-08  0.10566000000E+00  0.10566000000E+00 0. -1.
     999900   -1    0    0    0    0 -0.00000000000E+00 -0.00000000000E+00 -0.74505805969E-08  0.93827000000E+00  0.93827000000E+00 0.  1.
     999902    2    1    2    0    0 -0.43421819008E-02 -0.17556178194E-01  0.15099759533E-01  0.10203699348E+01  0.10200979007E+01 0.  0.
     999903    2    3    3    0    0  0.62471035851E-01 -0.11493882653E+00  0.66009796095E-02  0.13243997382E+00  0.19575739319E-01 0.  0.
         14    1    1    2    0    0  0.43421819008E-02  0.17556178194E-01 -0.15099759533E-01  0.23560065246E-01  0.00000000000E+00 0.  1.
     999901    1    3    3    0    0 -0.66813217752E-01  0.97382648334E-01  0.84987799239E-02  0.88792996093E+00  0.88000000000E+00 0. -1.
        -11    1    4    4    0    0  0.20148425746E-01 -0.43887434590E-01 -0.64176392733E-02  0.48718714985E-01  0.51100000000E-03 0. -1.
         11    1    4    4    0    0  0.42322610105E-01 -0.71051391937E-01  0.13018618883E-01  0.83721258835E-01  0.51100000000E-03 0.  1.
</event>
<event>
 8    1  0.1086235E+005  0.1043930E+01  0.7957747E-01            NaN
         13   -1    0    0    0    0  0.00000000000E+00  0.00000000000E+00  0.74505805969E-08  0.10566000000E+00  0.10566000000E+00 0. -1.
     999900   -1    0    0    0    0 -0.00000000000E+00 -0.00000000000E+00 -0.74505805969E-08  0.93827000000E+00  0.93827000000E+00 0. -1.
     999902    2    1    2    0    0 -0.18680196788E-01 -0.23001248230E-02  0.13870821935E-01  0.10205496658E+01  0.10202818142E+01 0.  0.
     999903    2    3    3    0    0 -0.26199451250E-01 -0.12487878935E+00  0.26956031758E-01  0.13192528458E+00  0.19913055721E-01 0.  0.
         14    1    1    2    0    0  0.18680196788E-01  0.23001248230E-02 -0.13870821935E-01  0.23380334202E-01  0.00000000000E+00 0.  1.
     999901    1    3    3    0    0  0.75192544614E-02  0.12257866452E+00 -0.13085209823E-01  0.88862438122E+00  0.88000000000E+00 0.  1.
        -11    1    4    4    0    0 -0.23884647422E-01 -0.65969583146E-01  0.15886970009E-01  0.71938301481E-01  0.51100000000E-03 0. -1.
         11    1    4    4    0    0 -0.23148038280E-02 -0.58909206201E-01  0.11069061748E-01  0.59986983096E-01  0.51100000000E-03 0.  1.
</event>
<event>
 8    1  0.1086235E+005  0.1043930E+01  0.7957747E-01            NaN
         13   -1    0    0    0    0  0.00000000000E+00  0.00000000000E+00  0.74505805969E-08  0.10566000000E+00  0.10566000000E+00 0. -1.
     999900   -1    0    0    0    0 -0.00000000000E+00 -0.00000000000E+00 -0.74505805969E-08  0.93827000000E+00  0.93827000000E+00 0. -1.
     999902    2    1    2    0    0 -0.17703504321E-01  0.97082628657E-02 -0.14135002042E-01  0.10192832413E+01  0.10189852125E+01 0.  0.
     999903    2    3    3    0    0  0.11777266962E+00 -0.32464648563E-01 -0.31022915883E-01  0.12775783513E+00  0.20863557032E-01 0.  0.
         14    1    1    2    0    0  0.17703504321E-01 -0.97082628657E-02  0.14135002042E-01  0.24646758729E-01  0.00000000000E+00 0. -1.
     999901    1    3    3    0    0 -0.13547617394E+00  0.42172911429E-01  0.16887913841E-01  0.89152540614E+00  0.88000000000E+00 0.  1.
        -11    1    4    4    0    0  0.25137124204E-01 -0.68212787222E-02  0.19870928019E-02  0.26126892572E-01  0.51100000000E-03 0.  1.
         11    1    4    4    0    0  0.92635545413E-01 -0.25643369841E-01 -0.33010008685E-01  0.10163094256E+00  0.51100000000E-03 0. -1.
</event>
<event>
 8    1  0.1086235E+005  0.1043930E+01  0.7957747E-01            NaN
         13   -1    0    0    0    0  0.00000000000E+00  0.00000000000E+00  0.74505805969E-08  0.10566000000E+00  0.10566000000E+00 0. -1.
     999900   -1    0    0    0    0 -0.00000000000E+00 -0.00000000000E+00 -0.74505805969E-08  0.93827000000E+00  0.93827000000E+00 0.  1.
     999902    2    1    2    0    0  0.13541747776E-01  0.30097735526E-02 -0.18515851948E-01  0.10207940011E+01  0.10205317821E+01 0.  0.
     999903    2    3    3    0    0 -0.12898530477E-01 -0.90702481430E-01  0.88751159380E-01  0.12894912295E+00  0.18915490784E-01 0.  0.
         14    1    1    2    0    0 -0.13541747776E-01 -0.30097735526E-02  0.18515851948E-01  0.23135998855E-01  0.00000000000E+00 0. -1.
     999901    1    3    3    0    0  0.26440278253E-01  0.93712254983E-01 -0.10726701133E+00  0.89184487820E+00  0.88000000000E+00 0.  1.
        -11    1    4    4    0    0 -0.32434794919E-02 -0.36192466189E-01  0.48008388885E-01  0.60211969677E-01  0.51100000000E-03 0.  1.
         11    1    4    4    0    0 -0.96550509850E-02 -0.54510015241E-01  0.40742770495E-01  0.68737153270E-01  0.51100000000E-03 0. -1.
</event>
<event>
 8    1  0.1086235E+005  0.1043930E+01  0.7957747E-01            NaN
         13   -1    0    0    0    0  0.00000000000E+00  0.00000000000E+00  0.74505805969E-08  0.10566000000E+00  0.10566000000E+00 0.  1.
     999900   -1    0    0    0    0 -0.00000000000E+00 -0.00000000000E+00 -0.74505805969E-08  0.93827000000E+00  0.93827000000E+00 0. -1.
     999902    2    1    2    0    0 -0.91354414944E-02  0.18973553384E-01 -0.14828914603E-01  0.10181744428E+01  0.10178486367E+01 0.  0.
     999903    2    3    3    0    0  0.59487736904E-01  0.98437595173E-01  0.56054774631E-01  0.12910292038E+00  0.17224265027E-01 0.  0.
         14    1    1    2    0    0  0.91354414944E-02 -0.18973553384E-01  0.14828914603E-01  0.25755557218E-01  0.00000000000E+00 0.  1.
     999901    1    3    3    0    0 -0.68623178398E-01 -0.79464041789E-01 -0.70883689234E-01  0.88907152240E+00  0.88000000000E+00 0. -1.
        -11    1    4    4    0    0  0.28801142220E-01  0.63759247497E-01  0.35053227943E-01  0.78254311989E-01  0.51100000000E-03 0. -1.
         11    1    4    4    0    0  0.30686594684E-01  0.34678347676E-01  0.21001546688E-01  0.50848608389E-01  0.51100000000E-03 0.  1.
</event>
<event>
 8    1  0.1086235E+005  0.1043930E+01  0.7957747E-01            NaN
         13   -1    0    0    0    0  0.00000000000E+00  0.00000000000E+00  0.74505805969E-08  0.10566000000E+00  0.10566000000E+00 0.  1.
     999900   -1    0    0    0    0 -0.00000000000E+00 -0.00000000000E+00 -0.74505805969E-08  0.93827000000E+00  0.93827000000E+00 0.  1.
     999902    2    1    2    0    0 -0.11864634800E-01  0.63662683732E-02 -0.18436405721E-01  0.10211001952E+01  0.10208449484E+01 0.  0.
     999903    2    3    3    0    0  0.76403180148E-01 -0.74761455517E-01 -0.73437313346E-01  0.13126986609E+00  0.20298216278E-01 0.  0.
         14    1    1    2    0    0  0.11864634800E-01 -0.63662683732E-02  0.18436405721E-01  0.22829804814E-01  0.00000000000E+00 0.  1.
     999901    1    3    3    0    0 -0.88267814948E-01  0.81127723890E-01  0.55000907625E-01  0.88983032910E+00  0.88000000000E+00 0. -1.
        -11    1    4    4    0    0  0.45350364704E-01 -0.39910417743E-01 -0.29776730317E-01  0.67352890157E-01  0.51100000000E-03 0.  1.
         11    1    4    4    0    0  0.31052815444E-01 -0.34851037774E-01 -0.43660583029E-01  0.63916975932E-01  0.51100000000E-03 0. -1.
</event>
<event>
 8    1  0.1086235E+005  0.1043930E+01  0.7957747E-01            NaN
         13   -1    0    0    0    0  0.00000000000E+00  0.00000000000E+00  0.74505805969E-08  0.10566000000E+00  0.10566000000E+00 0. -1.
     999900   -1    0    0    0    0 -0.00000000000E+00 -0.00000000000E+00 -0.74505805969E-08  0.93827000000E+00  0.93827000000E+00 0.  1.
     999902    2    1    2    0    0 -0.78627242399E-02 -0.21894120663E-01  0.48512616005E-03  0.10206617749E+01  0.10203965153E+01 0.  0.
     999903    2    3    3    0    0  0.47405372296E-01  0.10027917158E+00 -0.60987504946E-01  0.12838392568E+00  0.21442365478E-01 0.  0.
         14    1    1    2    0    0  0.78627242399E-02  0.21894120663E-01 -0.48512616005E-03  0.23268225103E-01  0.00000000000E+00 0.  1.
     999901    1    3    3    0    0 -0.55268096536E-01 -0.12217329224E+00  0.61472631106E-01  0.89227784922E+00  0.88000000000E+00 0.  1.
        -11    1    4    4    0    0  0.14937971484E-01  0.46512071759E-01 -0.36431718094E-01  0.60942981677E-01  0.51100000000E-03 0.  1.
         11    1    4    4    0    0  0.32467400812E-01  0.53767099822E-01 -0.24555786852E-01  0.67440944000E-01  0.51100000000E-03 0. -1.
</event>
<event>
 8    1  0.1086235E+005  0.1043930E+01  0.7957747E-01            NaN
         13   -1    0    0    0    0  0.00000000000E+00  0.00000000000E+00  0.74505805969E-08  0.10566000000E+00  0.10566000000E+00 0. -1.
     999900   -1    0    0    0    0 -0.00000000000E+00 -0.00000000000E+00 -0.74505805969E-08  0.93827000000E+00  0.93827000000E+00 0.  1.
     999902    2    1    2    0    0  0.17645023287E-01 -0.88666214920E-02 -0.10957020141E-01  0.10213463751E+01  0.10210966643E+01 0.  0.
     999903    2    3    3    0    0 -0.51502233044E-01 -0.11928604060E+00 -0.45162247597E-02  0.13173113522E+00  0.21238083915E-01 0.  0.
         14    1    1    2    0    0 -0.17645023287E-01  0.88666214920E-02  0.10957020141E-01  0.22583624905E-01  0.00000000000E+00 0.  1.
     999901    1    3    3    0    0  0.69147256330E-01  0.11041941911E+00 -0.64407953810E-02  0.88961523988E+00  0.88000000000E+00 0.  1.
        -11    1    4    4    0    0 -0.28368265534E-01 -0.46252640397E-01  0.51807260976E-02  0.54508405563E-01  0.51100000000E-03 0. -1.
         11    1    4    4    0    0 -0.23133967510E-01 -0.73033400207E-01 -0.96969508573E-02  0.77222729656E-01  0.51100000000E-03 0.  1.
</event>
<event>
 8    1  0.1086235E+005  0.1043930E+01  0.7957747E-01            NaN
         13   -1    0    0    0    0  0.00000000000E+00  0.00000000000E+00  0.74505805969E-08  0.10566000000E+00  0.10566000000E+00 0.  1.
     999900   -1    0    0    0    0 -0.00000000000E+00 -0.00000000000E+00 -0.74505805969E-08  0.93827000000E+00  0.93827000000E+00 0. -1.
     999902    2    1    2    0    0 -0.17737940427E-01 -0.15564302440E-01  0.28161661519E-02  0.10201642088E+01  0.10198873467E+01 0.  0.
     999903    2    3    3    0    0  0.30513140666E-01 -0.47945568859E-02  0.12513617464E+00  0.13032920231E+00  0.19302829900E-01 0.  0.
         14    1    1    2    0    0  0.17737940427E-01  0.15564302440E-01 -0.28161661519E-02  0.23765791230E-01  0.00000000000E+00 0.  1.
     999901    1    3    3    0    0 -0.48251081093E-01 -0.10769745554E-01 -0.12232000849E+00  0.88983500646E+00  0.88000000000E+00 0. -1.
        -11    1    4    4    0    0  0.20478518755E-01 -0.11389095223E-01  0.67503592019E-01  0.71456821066E-01  0.51100000000E-03 0. -1.
         11    1    4    4    0    0  0.10034621912E-01  0.65945383367E-02  0.57632582620E-01  0.58872381243E-01  0.51100000000E-03 0.  1.
</event>
<event>
 8    1  0.1086235E+005  0.1043930E+01  0.7957747E-01            NaN
         13   -1    0    0    0    0  0.00000000000E+00  0.00000000000E+00  0.74505805969E-08  0.10566000000E+00  0.10566000000E+00 0.  1.
     999900   -1    0    0    0    0 -0.00000000000E+00 -0.00000000000E+00 -0.74505805969E-08  0.93827000000E+00  0.93827000000E+00 0. -1.
     999902    2    1    2    0    0  0.10439072350E-02  0.22464203769E-01  0.71560306330E-02  0.10203304456E+01  0.10200574882E+01 0.  0.
     999903    2    3    3    0    0  0.96781331769E-01  0.50592962924E-01 -0.70057394796E-01  0.13133168598E+00  0.20339594391E-01 0.  0.
         14    1    1    2    0    0 -0.10439072350E-02 -0.22464203769E-01 -0.71560306330E-02  0.23599554397E-01  0.00000000000E+00 0. -1.
     999901    1    3    3    0    0 -0.95737424534E-01 -0.28128759155E-01  0.77213425429E-01  0.88899875962E+00  0.88000000000E+00 0.  1.
        -11    1    4    4    0    0  0.89286404913E-01  0.50412494543E-01 -0.60082215931E-01  0.11884281846E+00  0.51100000000E-03 0. -1.
         11    1    4    4    0    0  0.74949268557E-02  0.18046838146E-03 -0.99751788646E-02  0.12488867514E-01  0.51100000000E-03 0.  1.
</event>
<event>
 8    1  0.1086235E+005  0.1043930E+01  0.7957747E-01            NaN
         13   -1    0    0    0    0  0.00000000000E+00  0.00000000000E+00  0.74505805969E-08  0.10566000000E+00  0.10566000000E+00 0.  1.
     999900   -1    0    0    0    0 -0.00000000000E+00 -0.00000000000E+00 -0.74505805969E-08  0.93827000000E+00  0.93827000000E+00 0. -1.
     999902    2    1    2    0    0 -0.72396699230E-03 -0.23113703815E-01  0.48054334218E-02  0.10203109479E+01  0.10200375340E+01 0.  0.
     999903    2    3    3    0    0  0.10322614328E+00 -0.76536942399E-01  0.25016740232E-01  0.13235364893E+00  0.19445073531E-01 0.  0.
         14    1    1    2    0    0  0.72396699230E-03  0.23113703815E-01 -0.48054334218E-02  0.23619052111E-01  0.00000000000E+00 0. -1.
     999901    1    3    3    0    0 -0.10395011028E+00  0.53423238584E-01 -0.20211306811E-01  0.88795729896E+00  0.88000000000E+00 0.  1.
        -11    1    4    4    0    0  0.71807997684E-01 -0.62886501585E-01  0.22043039192E-01  0.97965592484E-01  0.51100000000E-03 0.  1.
         11    1    4    4    0    0  0.31418145600E-01 -0.13650440814E-01  0.29737010401E-02  0.34388056448E-01  0.51100000000E-03 0. -1.
</event>
<event>
 8    1  0.1086235E+005  0.1043930E+01  0.7957747E-01            NaN
         13   -1    0    0    0    0  0.00000000000E+00  0.00000000000E+00  0.74505805969E-08  0.10566000000E+00  0.10566000000E+00 0. -1.
     999900   -1    0    0    0    0 -0.00000000000E+00 -0.00000000000E+00 -0.74505805969E-08  0.93827000000E+00  0.93827000000E+00 0. -1.
     999902    2    1    2    0    0  0.12531218053E-01 -0.16948498130E-01  0.99800029635E-02  0.10206086906E+01  0.10203422052E+01 0.  0.
     999903    2    3    3    0    0 -0.11624093748E+00 -0.20436313031E-01 -0.48703276405E-01  0.12929608537E+00  0.20392893970E-01 0.  0.
         14    1    1    2    0    0 -0.12531218053E-01  0.16948498130E-01 -0.99800029635E-02  0.23321309438E-01  0.00000000000E+00 0.  1.
     999901    1    3    3    0    0  0.12877215553E+00  0.34878149005E-02  0.58683279368E-01  0.89131260519E+00  0.88000000000E+00 0. -1.
        -11    1    4    4    0    0 -0.11413190126E-01  0.11260558995E-02  0.52802064996E-03  0.11492120672E-01  0.51100000000E-03 0.  1.
         11    1    4    4    0    0 -0.10482774735E+00 -0.21562368930E-01 -0.49231297055E-01  0.11780396470E+00  0.51100000000E-03 0. -1.
</event>
<event>
 8    1  0.1086235E+005  0.1043930E+01  0.7957747E-01            NaN
         13   -1    0    0    0    0  0.00000000000E+00  0.00000000000E+00  0.74505805969E-08  0.10566000000E+00  0.10566000000E+00 0.  1.
     999900   -1    0    0    0    0 -0.00000000000E+00 -0.00000000000E+00 -0.74505805969E-08  0.93827000000E+00  0.93827000000E+00 0.  1.
     999902    2    1    2    0    0 -0.22680818545E-02  0.11324786260E-01 -0.20553448792E-01  0.10203537569E+01  0.10200813448E+01 0.  0.
     999903    2    3    3    0    0  0.79742390631E-01 -0.87075318577E-01  0.46951243708E-01  0.12852127170E+00  0.19296062445E-01 0.  0.
         14    1    1    2    0    0  0.22680818545E-02 -0.11324786260E-01  0.20553448792E-01  0.23576243051E-01  0.00000000000E+00 0.  1.
     999901    1    3    3    0    0 -0.82010472485E-01  0.98400104837E-01 -0.67504692500E-01  0.89183248525E+00  0.88000000000E+00 0. -1.
        -11    1    4    4    0    0  0.38926649234E-01 -0.39990320316E-01  0.32387325117E-01  0.64526813719E-01  0.51100000000E-03 0. -1.
         11    1    4    4    0    0  0.40815741397E-01 -0.47084998261E-01  0.14563918591E-01  0.63994457985E-01  0.51100000000E-03 0.  1.
</event>
<event>
 8    1  0.1086235E+005  0.1043930E+01  0.7957747E-01            NaN
         13   -1    0    0    0    0  0.00000000000E+00  0.00000000000E+00  0.74505805969E-08  0.10566000000E+00  0.10566000000E+00 0. -1.
     999900   -1    0    0    0    0 -0.00000000000E+00 -0.00000000000E+00 -0.74505805969E-08  0.93827000000E+00  0.93827000000E+00 0. -1.
     999902    2    1    2    0    0 -0.87629374564E-02  0.72787103341E-02  0.21048899110E-01  0.10199962404E+01  0.10197154042E+01 0.  0.
     999903    2    3    3    0    0  0.19077817211E-01  0.48065452484E-01  0.12011653375E+00  0.13306159666E+00  0.24559234355E-01 0.  0.
         14    1    1    2    0    0  0.87629374564E-02 -0.72787103341E-02 -0.21048899110E-01  0.23933759645E-01  0.00000000000E+00 0.  1.
     999901    1    3    3    0    0 -0.27840754668E-01 -0.40786742150E-01 -0.99067634644E-01  0.88693464370E+00  0.88000000000E+00 0. -1.
        -11    1    4    4    0    0  0.74265234739E-03  0.14943851430E-01  0.61383390736E-01  0.63182687560E-01  0.51100000000E-03 0.  1.
         11    1    4    4    0    0  0.18335164864E-01  0.33121601054E-01  0.58733143018E-01  0.69878909098E-01  0.51100000000E-03 0. -1.
</event>
<event>
 8    1  0.1086235E+005  0.1043930E+01  0.7957747E-01            NaN
         13   -1    0    0    0    0  0.00000000000E+00  0.00000000000E+00  0.74505805969E-08  0.10566000000E+00  0.10566000000E+00 0.  1.
     999900   -1    0    0    0    0 -0.00000000000E+00 -0.00000000000E+00 -0.74505805969E-08  0.93827000000E+00  0.93827000000E+00 0. -1.
     999902    2    1    2    0    0 -0.18885451717E-01 -0.13249949730E-01 -0.58463393430E-02  0.10201308164E+01  0.10198531666E+01 0.  0.
     999903    2    3    3    0    0 -0.96822259158E-01  0.35537201501E-01 -0.80398249780E-01  0.13220496400E+00  0.19412145168E-01 0.  0.
         14    1    1    2    0    0  0.18885451717E-01  0.13249949730E-01  0.58463393430E-02  0.23799183560E-01  0.00000000000E+00 0. -1.
     999901    1    3    3    0    0  0.77936807441E-01 -0.48787151231E-01  0.74551910437E-01  0.88792585244E+00  0.88000000000E+00 0.  1.
        -11    1    4    4    0    0 -0.35886923941E-01  0.10740337947E-01 -0.40921782164E-01  0.55480442911E-01  0.51100000000E-03 0.  1.
         11    1    4    4    0    0 -0.60935335216E-01  0.24796863554E-01 -0.39476467616E-01  0.76724521090E-01  0.51100000000E-03 0. -1.
</event>
<event>
 8    1  0.1086235E+005  0.1043930E+01  0.7957747E-01            NaN
         13   -1    0    0    0    0  0.00000000000E+00  0.00000000000E+00  0.74505805969E-08  0.10566000000E+00  0.10566000000E+00 0. -1.
     999900   -1    0    0    0    0 -0.00000000000E+00 -0.00000000000E+00 -0.74505805969E-08  0.93827000000E+00  0.93827000000E+00 0. -1.
     999902    2    1    2    0    0  0.16676991084E-01 -0.10642310064E-01 -0.13630622733E-01  0.10199055401E+01  0.10196225459E+01 0.  0.
     999903    2    3    3    0    0 -0.71834768897E-02 -0.10229778591E+00  0.78890192504E-01  0.13000096693E+00  0.12655022233E-01 0.  0.
         14    1    1    2    0    0 -0.16676991084E-01  0.10642310064E-01  0.13630622733E-01  0.24024459853E-01  0.00000000000E+00 0. -1.
     999901    1    3    3    0    0  0.23860467974E-01  0.91655475841E-01 -0.92520815237E-01  0.88990457322E+00  0.88000000000E+00 0. -1.
        -11    1    4    4    0    0  0.53635644508E-03 -0.72359014232E-01  0.56966075134E-01  0.92095110924E-01  0.51100000000E-03 0.  1.
         11    1    4    4    0    0 -0.77198333347E-02 -0.29938771673E-01  0.21924117370E-01  0.37905856005E-01  0.51100000000E-03 0. -1.
</event>
<event>
 8    1  0.1086235E+005  0.1043930E+01  0.7957747E-01            NaN
         13   -1    0    0    0    0  0.00000000000E+00  0.00000000000E+00  0.74505805969E-08  0.10566000000E+00  0.10566000000E+00 0. -1.
     999900   -1    0    0    0    0 -0.00000000000E+00 -0.00000000000E+00 -0.74505805969E-08  0.93827000000E+00  0.93827000000E+00 0.  1.
     999902    2    1    2    0    0 -0.52377139600E-02 -0.19652128117E-01 -0.14203763019E-01  0.10191230117E+01  0.10188210472E+01 0.  0.
     999903    2    3    3    0    0  0.12494137569E+00 -0.20678573441E-01  0.13636542085E-01  0.12911024120E+00  0.21108016152E-01 0.  0.
         14    1    1    2    0    0  0.52377139600E-02  0.19652128117E-01  0.14203763019E-01  0.24806988349E-01  0.00000000000E+00 0.  1.
     999901    1    3    3    0    0 -0.13017908965E+00  0.10264453245E-02 -0.27840305104E-01  0.89001277045E+00  0.88000000000E+00 0.  1.
        -11    1    4    4    0    0  0.47930864005E-01 -0.17928948786E-01  0.84997201474E-02  0.51877946108E-01  0.51100000000E-03 0.  1.
         11    1    4    4    0    0  0.77010511681E-01 -0.27496246547E-02  0.51368219376E-02  0.77232295096E-01  0.51100000000E-03 0. -1.
</event>
<event>
 8    1  0.1086235E+005  0.1043930E+01  0.7957747E-01            NaN
         13   -1    0    0    0    0  0.00000000000E+00  0.00000000000E+00  0.74505805969E-08  0.10566000000E+00  0.10566000000E+00 0.  1.
     999900   -1    0    0    0    0 -0.00000000000E+00 -0.00000000000E+00 -0.74505805969E-08  0.93827000000E+00  0.93827000000E+00 0. -1.
     999902    2    1    2    0    0 -0.22194626129E-01 -0.63752564613E-02 -0.36831738211E-02  0.10205460078E+01  0.10202780713E+01 0.  0.
     999903    2    3    3    0    0  0.73293273474E-01 -0.96422394726E-01 -0.40495339245E-01  0.13005088615E+00  0.24580039592E-01 0.  0.
         14    1    1    2    0    0  0.22194626129E-01  0.63752564613E-02  0.36831738211E-02  0.23383992246E-01  0.00000000000E+00 0. -1.
     999901    1    3    3    0    0 -0.95487899603E-01  0.90047138265E-01  0.36812165423E-01  0.89049512161E+00  0.88000000000E+00 0. -1.
        -11    1    4    4    0    0  0.55066237376E-01 -0.53451876107E-01 -0.28396380709E-01  0.81829145887E-01  0.51100000000E-03 0.  1.
         11    1    4    4    0    0  0.18227036098E-01 -0.42970518619E-01 -0.12098958536E-01  0.48221740262E-01  0.51100000000E-03 0. -1.
</event>
<event>
 8    1  0.1086235E+005  0.1043930E+01  0.7957747E-01            NaN
         13   -1    0    0    0    0  0.00000000000E+00  0.00000000000E+00  0.74505805969E-08  0.10566000000E+00  0.10566000000E+00 0.  1.
     999900   -1    0    0    0    0 -0.00000000000E+00 -0.00000000000E+00 -0.74505805969E-08  0.93827000000E+00  0.93827000000E+00 0. -1.
     999902    2    1    2    0    0  0.20941027218E-01 -0.58611382209E-02 -0.64068262597E-02  0.10212600422E+01  0.10210083971E+01 0.  0.
     999903    2    3    3    0    0 -0.46919476502E-01 -0.76361050491E-01  0.92520624699E-01  0.13032686509E+00  0.19813592847E-01 0.  0.
         14    1    1    2    0    0 -0.20941027218E-01  0.58611382209E-02  0.64068262597E-02  0.22669957762E-01  0.00000000000E+00 0.  1.
     999901    1    3    3    0    0  0.67860503721E-01  0.70499912270E-01 -0.98927450958E-01  0.89093317715E+00  0.88000000000E+00 0. -1.
        -11    1    4    4    0    0 -0.13968114168E-01 -0.16378088084E-01  0.34174897719E-01  0.40392260866E-01  0.51100000000E-03 0.  1.
         11    1    4    4    0    0 -0.32951362334E-01 -0.59982962407E-01  0.58345726979E-01  0.89934604222E-01  0.51100000000E-03 0. -1.
</event>
<event>
 8    1  0.1152076E+005  0.1043930E+01  0.7957747E-01            NaN
         13   -1    0    0    0    0  0.00000000000E+00  0.00000000000E+00  0.74505805969E-08  0.10566000000E+00  0.10566000000E+00 0. -1.
     999900   -1    0    0    0    0 -0.00000000000E+00 -0.00000000000E+00 -0.74505805969E-08  0.93827000000E+00  0.93827000000E+00 0.  1.
     999902    2    1    2    0    0  0.36940626673E-03  0.11475464589E-01  0.21168056237E-01  0.10198486929E+01  0.10195643418E+01 0.  0.
     999903    2    3    3    0    0  0.11345915251E+00  0.58828948563E-01  0.22527536318E-01  0.13134799431E+00  0.20272672183E-01 0.  0.
         14    1    1    2    0    0 -0.36940626673E-03 -0.11475464589E-01 -0.21168056237E-01  0.24081307136E-01  0.00000000000E+00 0.  1.
     999901    1    3    3    0    0 -0.11308974625E+00 -0.47353483975E-01 -0.13594800809E-02  0.88850069856E+00  0.88000000000E+00 0. -1.
        -11    1    4    4    0    0  0.54335356808E-01  0.32353865886E-01  0.20690343557E-01  0.66539124391E-01  0.51100000000E-03 0. -1.
         11    1    4    4    0    0  0.59123795706E-01  0.26475082678E-01  0.18371927614E-02  0.64808869916E-01  0.51100000000E-03 0.  1.
</event>
<event>
 8    1  0.1086235E+005  0.1043930E+01  0.7957747E-01            NaN
         13   -1    0    0    0    0  0.00000000000E+00  0.00000000000E+00  0.74505805969E-08  0.10566000000E+00  0.10566000000E+00 0. -1.
     999900   -1    0    0    0    0 -0.00000000000E+00 -0.00000000000E+00 -0.74505805969E-08  0.93827000000E+00  0.93827000000E+00 0.  1.
     999902    2    1    2    0    0 -0.66581587467E-02 -0.34100647547E-02 -0.22645905328E-01  0.10200805420E+01  0.10198017040E+01 0.  0.
     999903    2    3    3    0    0  0.27505732473E-01  0.98399760068E-01 -0.80469022714E-01  0.13166851775E+00  0.20548889274E-01 0.  0.
         14    1    1    2    0    0  0.66581587467E-02  0.34100647547E-02  0.22645905328E-01  0.23849458016E-01  0.00000000000E+00 0. -1.
     999901    1    3    3    0    0 -0.34163891220E-01 -0.10180982482E+00  0.57823117385E-01  0.88841202423E+00  0.88000000000E+00 0. -1.
        -11    1    4    4    0    0  0.11855027624E-01  0.55987252764E-01 -0.32774849424E-01  0.65951239775E-01  0.51100000000E-03 0.  1.
         11    1    4    4    0    0  0.15650704849E-01  0.42412507304E-01 -0.47694173290E-01  0.65717277978E-01  0.51100000000E-03 0. -1.
</event>
<event>
 8    1  0.1086235E+005  0.1043930E+01  0.7957747E-01            NaN
         13   -1    0    0    0    0  0.00000000000E+00  0.00000000000E+00  0.74505805969E-08  0.10566000000E+00  0.10566000000E+00 0.  1.
     999900   -1    0    0    0    0 -0.00000000000E+00 -0.00000000000E+00 -0.74505805969E-08  0.93827000000E+00  0.93827000000E+00 0.  1.
     999902    2    1    2    0    0 -0.12601408859E-01 -0.99141978583E-02 -0.17026461760E-01  0.10205422420E+01  0.10202742183E+01 0.  0.
     999903    2    3    3    0    0  0.83351113861E-02 -0.12299828845E+00  0.40099701029E-01  0.13122241882E+00  0.20329390903E-01 0.  0.
         14    1    1    2    0    0  0.12601408859E-01  0.99141978583E-02  0.17026461760E-01  0.23387758004E-01  0.00000000000E+00 0.  1.
     999901    1    3    3    0    0 -0.20936520245E-01  0.11308409059E+00 -0.57126162790E-01  0.88931982318E+00  0.88000000000E+00 0.  1.
        -11    1    4    4    0    0 -0.30618086054E-02 -0.64799583814E-01  0.28180499721E-01  0.70730208680E-01  0.51100000000E-03 0.  1.
         11    1    4    4    0    0  0.11396919992E-01 -0.58198704634E-01  0.11919201308E-01  0.60492210136E-01  0.51100000000E-03 0. -1.
</event>
<event>
 8    1  0.1086235E+005  0.1043930E+01  0.7957747E-01            NaN
         13   -1    0    0    0    0  0.00000000000E+00  0.00000000000E+00  0.74505805969E-08  0.10566000000E+00  0.10566000000E+00 0.  1.
     999900   -1    0    0    0    0 -0.00000000000E+00 -0.00000000000E+00 -0.74505805969E-08  0.93827000000E+00  0.93827000000E+00 0. -1.
     999902    2    1    2    0    0 -0.58166423340E-02  0.21645035805E-01 -0.87527118720E-02  0.10198686021E+01  0.10195847266E+01 0.  0.
     999903    2    3    3    0    0 -0.36197339972E-01 -0.42772408121E-01 -0.11619619532E+00  0.13047740809E+00  0.19572222605E-01 0.  0.
         14    1    1    2    0    0  0.58166423340E-02 -0.21645035805E-01  0.87527118720E-02  0.24061397885E-01  0.00000000000E+00 0.  1.
     999901    1    3    3    0    0  0.30380697638E-01  0.64417443926E-01  0.10744348345E+00  0.88939119402E+00  0.88000000000E+00 0.  1.
        -11    1    4    4    0    0 -0.24235765851E-01 -0.30604850971E-01 -0.58679064107E-01  0.70480656458E-01  0.51100000000E-03 0. -1.
         11    1    4    4    0    0 -0.11961574121E-01 -0.12167557150E-01 -0.57517131214E-01  0.59996751633E-01  0.51100000000E-03 0.  1.
</event>
<event>
 8    1  0.1086235E+005  0.1043930E+01  0.7957747E-01            NaN
         13   -1    0    0    0    0  0.00000000000E+00  0.00000000000E+00  0.74505805969E-08  0.10566000000E+00  0.10566000000E+00 0. -1.
     999900   -1    0    0    0    0 -0.00000000000E+00 -0.00000000000E+00 -0.74505805969E-08  0.93827000000E+00  0.93827000000E+00 0. -1.
     999902    2    1    2    0    0  0.17587487439E-02 -0.75035542098E-02 -0.22319771584E-01  0.10203171068E+01  0.10200438371E+01 0.  0.
     999903    2    3    3    0    0 -0.18933662922E-03 -0.91570965994E-01 -0.94790507434E-01  0.13334296267E+00  0.20244202425E-01 0.  0.
         14    1    1    2    0    0 -0.17587487439E-02  0.75035542098E-02  0.22319771584E-01  0.23612893226E-01  0.00000000000E+00 0. -1.
     999901    1    3    3    0    0  0.19480853732E-02  0.84067411784E-01  0.72470735849E-01  0.88697414411E+00  0.88000000000E+00 0.  1.
        -11    1    4    4    0    0  0.13121165716E-02 -0.69333418782E-01 -0.82883661610E-01  0.10806852961E+00  0.51100000000E-03 0.  1.
         11    1    4    4    0    0 -0.15014532009E-02 -0.22237547211E-01 -0.11906845824E-01  0.25274433053E-01  0.51100000000E-03 0. -1.
</event>
<event>
 8    1  0.1086235E+005  0.1043930E+01  0.7957747E-01            NaN
         13   -1    0    0    0    0  0.00000000000E+00  0.00000000000E+00  0.74505805969E-08  0.10566000000E+00  0.10566000000E+00 0. -1.
     999900   -1    0    0    0    0 -0.00000000000E+00 -0.00000000000E+00 -0.74505805969E-08  0.93827000000E+00  0.93827000000E+00 0.  1.
     999902    2    1    2    0    0 -0.28848800239E-01  0.10263103717E-02  0.17041191892E-01  0.10104082338E+01  0.10098520140E+01 0.  0.
     999903    2    3    3    0    0  0.31802842296E-01  0.10998025492E+00  0.36633190106E-01  0.12140124273E+00  0.17005701077E-01 0.  0.
         14    1    1    2    0    0  0.28848800239E-01 -0.10263103717E-02 -0.17041191892E-01  0.33521766202E-01  0.00000000000E+00 0.  1.
     999901    1    3    3    0    0 -0.60651642535E-01 -0.10895394455E+00 -0.19591998214E-01  0.88900699107E+00  0.88000000000E+00 0. -1.
        -11    1    4    4    0    0  0.14369333205E-01  0.43877112445E-01  0.62704432286E-02  0.46596762898E-01  0.51100000000E-03 0. -1.
         11    1    4    4    0    0  0.17433509091E-01  0.66103142472E-01  0.30362746877E-01  0.74804479831E-01  0.51100000000E-03 0.  1.
</event>
<event>
 8    1  0.1086235E+005  0.1043930E+01  0.7957747E-01            NaN
         13   -1    0    0    0    0  0.00000000000E+00  0.00000000000E+00  0.74505805969E-08  0.10566000000E+00  0.10566000000E+00 0.  1.
     999900   -1    0    0    0    0 -0.00000000000E+00 -0.00000000000E+00 -0.74505805969E-08  0.93827000000E+00  0.93827000000E+00 0. -1.
     999902    2    1    2    0    0  0.17646423404E-01  0.27147192227E-01  0.50045627391E-02  0.10111670338E+01  0.10106361157E+01 0.  0.
     999903    2    3    3    0    0 -0.91616130855E-01 -0.52311164505E-01 -0.51387270335E-01  0.11907288237E+00  0.20192236079E-01 0.  0.
         14    1    1    2    0    0 -0.17646423404E-01 -0.27147192227E-01 -0.50045627391E-02  0.32762966181E-01  0.00000000000E+00 0.  1.
     999901    1    3    3    0    0  0.10926255426E+00  0.79458356732E-01  0.56391833074E-01  0.89209415145E+00  0.88000000000E+00 0.  1.
        -11    1    4    4    0    0 -0.71616202759E-01 -0.47065742894E-01 -0.47649807856E-01  0.98055239338E-01  0.51100000000E-03 0.  1.
         11    1    4    4    0    0 -0.19999928096E-01 -0.52454216110E-02 -0.37374624792E-02  0.21017643029E-01  0.51100000000E-03 0. -1.
</event>
<event>
 8    1  0.1086235E+005  0.1043930E+01  0.7957747E-01            NaN
         13   -1    0    0    0    0  0.00000000000E+00  0.00000000000E+00  0.74505805969E-08  0.10566000000E+00  0.10566000000E+00 0.  1.
     999900   -1    0    0    0    0 -0.00000000000E+00 -0.00000000000E+00 -0.74505805969E-08  0.93827000000E+00  0.93827000000E+00 0.  1.
     999902    2    1    2    0    0 -0.42134591803E-03 -0.92810961913E-02 -0.27590519015E-01  0.10148172362E+01  0.10143995612E+01 0.  0.
     999903    2    3    3    0    0  0.12134995622E-01 -0.95074198683E-01 -0.83567757677E-01  0.12878587701E+00  0.20392906122E-01 0.  0.
         14    1    1    2    0    0  0.42134591803E-03  0.92810961913E-02  0.27590519015E-01  0.29112763840E-01  0.00000000000E+00 0.  1.
     999901    1    3    3    0    0 -0.12556341540E-01  0.85793102492E-01  0.55977238663E-01  0.88603135915E+00  0.88000000000E+00 0. -1.
        -11    1    4    4    0    0  0.52541405369E-02 -0.56799459530E-01 -0.62253300206E-01  0.84436479695E-01  0.51100000000E-03 0.  1.
         11    1    4    4    0    0  0.68808550851E-02 -0.38274739154E-01 -0.21314457471E-01  0.44349397316E-01  0.51100000000E-03 0. -1.
</event>
<event>
 8    1  0.1086235E+005  0.1043930E+01  0.7957747E-01            NaN
         13   -1    0    0    0    0  0.00000000000E+00  0.00000000000E+00  0.74505805969E-08  0.10566000000E+00  0.10566000000E+00 0. -1.
     999900   -1    0    0    0    0 -0.00000000000E+00 -0.00000000000E+00 -0.74505805969E-08  0.93827000000E+00  0.93827000000E+00 0.  1.
     999902    2    1    2    0    0  0.72322048158E-02  0.21982283000E-01 -0.48245267579E-02  0.10202910150E+01  0.10200171340E+01 0.  0.
     999903    2    3    3    0    0 -0.66666774487E-01 -0.76209742743E-01  0.76032103758E-01  0.12807998182E+00  0.19266998538E-01 0.  0.
         14    1    1    2    0    0 -0.72322048158E-02 -0.21982283000E-01  0.48245267579E-02  0.23638984978E-01  0.00000000000E+00 0.  1.
     999901    1    3    3    0    0  0.73898979303E-01  0.98192025742E-01 -0.80856630516E-01  0.89221103320E+00  0.88000000000E+00 0. -1.
        -11    1    4    4    0    0 -0.33354079082E-01 -0.45067065469E-01  0.31374143504E-01  0.64250548503E-01  0.51100000000E-03 0. -1.
         11    1    4    4    0    0 -0.33312695405E-01 -0.31142677274E-01  0.44657960255E-01  0.63829433321E-01  0.51100000000E-03 0.  1.
</event>
<event>
 8    1  0.1086235E+005  0.1043930E+01  0.7957747E-01            NaN
         13   -1    0    0    0    0  0.00000000000E+00  0.00000000000E+00  0.74505805969E-08  0.10566000000E+00  0.10566000000E+00 0. -1.
     999900   -1    0    0    0    0 -0.00000000000E+00 -0.00000000000E+00 -0.74505805969E-08  0.93827000000E+00  0.93827000000E+00 0.  1.
     999902    2    1    2    0    0 -0.18120556316E-01  0.16288175939E-02  0.15518618241E-01  0.10200169258E+01  0.10197365805E+01 0.  0.
     999903    2    3    3    0    0 -0.68193654675E-01  0.76834236647E-01 -0.77507183794E-01  0.13051314831E+00  0.21735774275E-01 0.  0.
         14    1    1    2    0    0  0.18120556316E-01 -0.16288175939E-02 -0.15518618241E-01  0.23913074250E-01  0.00000000000E+00 0.  1.
     999901    1    3    3    0    0  0.50073098359E-01 -0.75205419053E-01  0.93025802035E-01  0.88950377744E+00  0.88000000000E+00 0. -1.
        -11    1    4    4    0    0 -0.64347087836E-01  0.62544328841E-01 -0.70571669803E-01  0.11416200105E+00  0.51100000000E-03 0. -1.
         11    1    4    4    0    0 -0.38465668389E-02  0.14289907806E-01 -0.69355139904E-02  0.16351147264E-01  0.51100000000E-03 0.  1.
</event>
<event>
 8    1  0.1086235E+005  0.1043930E+01  0.7957747E-01            NaN
         13   -1    0    0    0    0  0.00000000000E+00  0.00000000000E+00  0.74505805969E-08  0.10566000000E+00  0.10566000000E+00 0.  1.
     999900   -1    0    0    0    0 -0.00000000000E+00 -0.00000000000E+00 -0.74505805969E-08  0.93827000000E+00  0.93827000000E+00 0.  1.
     999902    2    1    2    0    0  0.54585814611E-03 -0.24814950450E-02 -0.23097442380E-01  0.10206932269E+01  0.10204286922E+01 0.  0.
     999903    2    3    3    0    0 -0.76435585371E-02  0.28745330679E-01  0.12391050490E+00  0.12791468901E+00  0.11119191356E-01 0.  0.
         14    1    1    2    0    0 -0.54585814611E-03  0.24814950450E-02  0.23097442380E-01  0.23236773082E-01  0.00000000000E+00 0.  1.
     999901    1    3    3    0    0  0.81894166832E-02 -0.31226825724E-01 -0.14700794728E+00  0.89277853791E+00  0.88000000000E+00 0.  1.
        -11    1    4    4    0    0 -0.62726684654E-02  0.78963739266E-02  0.28328406693E-01  0.30074222145E-01  0.51100000000E-03 0. -1.
         11    1    4    4    0    0 -0.13708900717E-02  0.20848956752E-01  0.95582098207E-01  0.97840466862E-01  0.51100000000E-03 0.  1.
</event>
<event>
 8    1  0.1086235E+005  0.1043930E+01  0.7957747E-01            NaN
         13   -1    0    0    0    0  0.00000000000E+00  0.00000000000E+00  0.74505805969E-08  0.10566000000E+00  0.10566000000E+00 0.  1.
     999900   -1    0    0    0    0 -0.00000000000E+00 -0.00000000000E+00 -0.74505805969E-08  0.93827000000E+00  0.93827000000E+00 0.  1.
     999902    2    1    2    0    0 -0.72798600558E-02 -0.21672728332E-01 -0.47830465454E-02  0.10205723235E+01  0.10203049968E+01 0.  0.
     999903    2    3    3    0    0 -0.11485994312E+00 -0.38939783123E-01 -0.50463552201E-01  0.13267687132E+00  0.18640516109E-01 0.  0.
         14    1    1    2    0    0  0.72798600558E-02  0.21672728332E-01  0.47830465454E-02  0.23357676469E-01  0.00000000000E+00 0.  1.
     999901    1    3    3    0    0  0.10758008306E+00  0.17267054791E-01  0.45680505655E-01  0.88789545221E+00  0.88000000000E+00 0. -1.
        -11    1    4    4    0    0 -0.37877299265E-01 -0.18881388962E-01 -0.24946001419E-01  0.49130039248E-01  0.51100000000E-03 0.  1.
         11    1    4    4    0    0 -0.76982643854E-01 -0.20058394161E-01 -0.25517550781E-01  0.83546832076E-01  0.51100000000E-03 0. -1.
</event>
<event>
 8    1  0.1086235E+005  0.1043930E+01  0.7957747E-01            NaN
         13   -1    0    0    0    0  0.00000000000E+00  0.00000000000E+00  0.74505805969E-08  0.10566000000E+00  0.10566000000E+00 0. -1.
     999900   -1    0    0    0    0 -0.00000000000E+00 -0.00000000000E+00 -0.74505805969E-08  0.93827000000E+00  0.93827000000E+00 0. -1.
     999902    2    1    2    0    0 -0.17128544243E-01  0.69706984896E-02 -0.15500109290E-01  0.10198005356E+01  0.10195150324E+01 0.  0.
     999903    2    3    3    0    0  0.12023443692E+00  0.31895400892E-01 -0.27250108582E-01  0.12871810849E+00  0.18765569980E-01 0.  0.
         14    1    1    2    0    0  0.17128544243E-01 -0.69706984896E-02  0.15500109290E-01  0.24129464422E-01  0.00000000000E+00 0. -1.
     999901    1    3    3    0    0 -0.13736298116E+00 -0.24924702402E-01  0.11749999292E-01  0.89108242709E+00  0.88000000000E+00 0.  1.
        -11    1    4    4    0    0  0.82289623837E-01  0.26257931209E-01 -0.26476498325E-01  0.90345598825E-01  0.51100000000E-03 0. -1.
         11    1    4    4    0    0  0.37944813080E-01  0.56374696829E-02 -0.77361025677E-03  0.38372509664E-01  0.51100000000E-03 0.  1.
</event>
<event>
 8    1  0.1086235E+005  0.1043930E+01  0.7957747E-01            NaN
         13   -1    0    0    0    0  0.00000000000E+00  0.00000000000E+00  0.74505805969E-08  0.10566000000E+00  0.10566000000E+00 0.  1.
     999900   -1    0    0    0    0 -0.00000000000E+00 -0.00000000000E+00 -0.74505805969E-08  0.93827000000E+00  0.93827000000E+00 0.  1.
     999902    2    1    2    0    0  0.16124178041E-02 -0.62058389648E-02 -0.23628040997E-01  0.10194474215E+01  0.10191533980E+01 0.  0.
     999903    2    3    3    0    0 -0.74728236725E-01 -0.10443664680E+00 -0.11739205115E-01  0.13061755502E+00  0.20780139133E-01 0.  0.
         14    1    1    2    0    0 -0.16124178041E-02  0.62058389648E-02  0.23628040997E-01  0.24482578495E-01  0.00000000000E+00 0.  1.
     999901    1    3    3    0    0  0.76340654529E-01  0.98230807838E-01 -0.11888835882E-01  0.88882986649E+00  0.88000000000E+00 0. -1.
        -11    1    4    4    0    0 -0.42732804704E-01 -0.71625764910E-01 -0.14694955307E-01  0.84690882799E-01  0.51100000000E-03 0. -1.
         11    1    4    4    0    0 -0.31995432021E-01 -0.32810881893E-01  0.29557501923E-02  0.45926672218E-01  0.51100000000E-03 0.  1.
</event>
<event>
 8    1  0.1086235E+005  0.1043930E+01  0.7957747E-01            NaN
         13   -1    0    0    0    0  0.00000000000E+00  0.00000000000E+00  0.74505805969E-08  0.10566000000E+00  0.10566000000E+00 0.  1.
     999900   -1    0    0    0    0 -0.00000000000E+00 -0.00000000000E+00 -0.74505805969E-08  0.93827000000E+00  0.93827000000E+00 0. -1.
     999902    2    1    2    0    0 -0.90350810218E-02 -0.21024809948E-01 -0.47164288568E-02  0.10205650685E+01  0.10202975738E+01 0.  0.
     999903    2    3    3    0    0  0.29793128749E-01 -0.76428806400E-01 -0.10226214648E+00  0.13259412319E+00  0.19866100119E-01 0.  0.
         14    1    1    2    0    0  0.90350810218E-02  0.21024809948E-01  0.47164288568E-02  0.23364931491E-01  0.00000000000E+00 0. -1.
     999901    1    3    3    0    0 -0.38828209771E-01  0.55403996452E-01  0.97545717626E-01  0.88797094532E+00  0.88000000000E+00 0.  1.
        -11    1    4    4    0    0  0.13657968644E-01 -0.35016485991E-01 -0.31560364176E-01  0.49081688098E-01  0.51100000000E-03 0.  1.
         11    1    4    4    0    0  0.16135160104E-01 -0.41412320409E-01 -0.70701782307E-01  0.83512435096E-01  0.51100000000E-03 0. -1.
</event>
<event>
 8    1  0.1086235E+005  0.1043930E+01  0.7957747E-01            NaN
         13   -1    0    0    0    0  0.00000000000E+00  0.00000000000E+00  0.74505805969E-08  0.10566000000E+00  0.10566000000E+00 0. -1.
     999900   -1    0    0    0    0 -0.00000000000E+00 -0.00000000000E+00 -0.74505805969E-08  0.93827000000E+00  0.93827000000E+00 0. -1.
     999902    2    1    2    0    0  0.17928566620E-01  0.15568511976E-01  0.24022624554E-02  0.10200640634E+01  0.10197848354E+01 0.  0.
     999903    2    3    3    0    0  0.10169408862E+00 -0.77572540338E-01  0.19440079797E-01  0.13102964024E+00  0.20776506983E-01 0.  0.
         14    1    1    2    0    0 -0.17928566620E-01 -0.15568511976E-01 -0.24022624554E-02  0.23865936627E-01  0.00000000000E+00 0.  1.
     999901    1    3    3    0    0 -0.83765522003E-01  0.93141052314E-01 -0.17037817341E-01  0.88903442314E+00  0.88000000000E+00 0.  1.
        -11    1    4    4    0    0  0.84082422197E-01 -0.66279516996E-01  0.23736789206E-01  0.10966551135E+00  0.51100000000E-03 0.  1.
         11    1    4    4    0    0  0.17611666426E-01 -0.11293023343E-01 -0.42967094096E-02  0.21364128891E-01  0.51100000000E-03 0. -1.
</event>
<event>
 8    1  0.1086235E+005  0.1043930E+01  0.7957747E-01            NaN
         13   -1    0    0    0    0  0.00000000000E+00  0.00000000000E+00  0.74505805969E-08  0.10566000000E+00  0.10566000000E+00 0.  1.
     999900   -1    0    0    0    0 -0.00000000000E+00 -0.00000000000E+00 -0.74505805969E-08  0.93827000000E+00  0.93827000000E+00 0. -1.
     999902    2    1    2    0    0  0.87281310188E-02  0.20154739717E-01 -0.10537617084E-01  0.10195694750E+01  0.10192784110E+01 0.  0.
     999903    2    3    3    0    0  0.99345746022E-01 -0.21143368962E-02  0.81099631975E-01  0.12990389214E+00  0.20586967079E-01 0.  0.
         14    1    1    2    0    0 -0.87281310188E-02 -0.20154739717E-01  0.10537617084E-01  0.24360524993E-01  0.00000000000E+00 0.  1.
     999901    1    3    3    0    0 -0.90617615004E-01  0.22269076613E-01 -0.91637249058E-01  0.88966558287E+00  0.88000000000E+00 0. -1.
        -11    1    4    4    0    0  0.63022160113E-01 -0.48610875072E-02  0.62921210208E-01  0.89189476129E-01  0.51100000000E-03 0. -1.
         11    1    4    4    0    0  0.36323585909E-01  0.27467506110E-02  0.18178421766E-01  0.40714416011E-01  0.51100000000E-03 0.  1.
</event>
<event>
 8    1  0.1086235E+005  0.1043930E+01  0.7957747E-01            NaN
         13   -1    0    0    0    0  0.00000000000E+00  0.00000000000E+00  0.74505805969E-08  0.10566000000E+00  0.10566000000E+00 0. -1.
     999900   -1    0    0    0    0 -0.00000000000E+00 -0.00000000000E+00 -0.74505805969E-08  0.93827000000E+00  0.93827000000E+00 0. -1.
     999902    2    1    2    0    0  0.19975869126E-01  0.97723164940E-02  0.24008016299E-02  0.10215626719E+01  0.10213177739E+01 0.  0.
     999903    2    3    3    0    0  0.22843106291E-01 -0.45743329368E-01 -0.11939482223E+00  0.13143662355E+00  0.20154472182E-01 0.  0.
         14    1    1    2    0    0 -0.19975869126E-01 -0.97723164940E-02 -0.24008016299E-02  0.22367328081E-01  0.00000000000E+00 0. -1.
     999901    1    3    3    0    0 -0.28672371645E-02  0.55515645862E-01  0.12179562386E+00  0.89012604836E+00  0.88000000000E+00 0.  1.
        -11    1    4    4    0    0  0.94438441081E-02 -0.30961423041E-02 -0.16827353677E-01  0.19549763208E-01  0.51100000000E-03 0. -1.
         11    1    4    4    0    0  0.13399262183E-01 -0.42647187064E-01 -0.10256746856E+00  0.11188686035E+00  0.51100000000E-03 0.  1.
</event>
<event>
 8    1  0.1086235E+005  0.1043930E+01  0.7957747E-01            NaN
         13   -1    0    0    0    0  0.00000000000E+00  0.00000000000E+00  0.74505805969E-08  0.10566000000E+00  0.10566000000E+00 0.  1.
     999900   -1    0    0    0    0 -0.00000000000E+00 -0.00000000000E+00 -0.74505805969E-08  0.93827000000E+00  0.93827000000E+00 0.  1.
     999902    2    1    2    0    0 -0.19981845778E-01  0.39782502963E-02 -0.12519951927E-01  0.10200166181E+01  0.10197362656E+01 0.  0.
     999903    2    3    3    0    0  0.68797772940E-01 -0.86102768887E-01  0.61172950839E-01  0.12792522448E+00  0.21815425079E-01 0.  0.
         14    1    1    2    0    0  0.19981845778E-01 -0.39782502963E-02  0.12519951927E-01  0.23913381868E-01  0.00000000000E+00 0.  1.
     999901    1    3    3    0    0 -0.88779618718E-01  0.90081019183E-01 -0.73692902766E-01  0.89209139366E+00  0.88000000000E+00 0.  1.
        -11    1    4    4    0    0  0.51448848203E-01 -0.74505447042E-01  0.42946326442E-01  0.10021324112E+00  0.51100000000E-03 0.  1.
         11    1    4    4    0    0  0.17348924736E-01 -0.11597321845E-01  0.18226624397E-01  0.27711983353E-01  0.51100000000E-03 0. -1.
</event>
<event>
 8    1  0.1086235E+005  0.1043930E+01  0.7957747E-01            NaN
         13   -1    0    0    0    0  0.00000000000E+00  0.00000000000E+00  0.74505805969E-08  0.10566000000E+00  0.10566000000E+00 0. -1.
     999900   -1    0    0    0    0 -0.00000000000E+00 -0.00000000000E+00 -0.74505805969E-08  0.93827000000E+00  0.93827000000E+00 0. -1.
     999902    2    1    2    0    0  0.13805320415E-01  0.17970763391E-01 -0.39953050625E-02  0.10209191836E+01  0.10206598267E+01 0.  0.
     999903    2    3    3    0    0 -0.59890688557E-01  0.10167870259E+00  0.55290526955E-01  0.13190122501E+00  0.20382287724E-01 0.  0.
         14    1    1    2    0    0 -0.13805320415E-01 -0.17970763391E-01  0.39953050625E-02  0.23010816394E-01  0.00000000000E+00 0.  1.
     999901    1    3    3    0    0  0.73696008971E-01 -0.83707939198E-01 -0.59285832018E-01  0.88901795859E+00  0.88000000000E+00 0.  1.
        -11    1    4    4    0    0 -0.34766650071E-01  0.42659528295E-01  0.19129366462E-01  0.58264475401E-01  0.51100000000E-03 0. -1.
         11    1    4    4    0    0 -0.25124038486E-01  0.59019174294E-01  0.36161160493E-01  0.73636749612E-01  0.51100000000E-03 0.  1.
</event>
<event>
 8    1  0.1086235E+005  0.1043930E+01  0.7957747E-01            NaN
         13   -1    0    0    0    0  0.00000000000E+00  0.00000000000E+00  0.74505805969E-08  0.10566000000E+00  0.10566000000E+00 0.  1.
     999900   -1    0    0    0    0 -0.00000000000E+00 -0.00000000000E+00 -0.74505805969E-08  0.93827000000E+00  0.93827000000E+00 0. -1.
     999902    2    1    2    0    0  0.17618120410E-01  0.92212595961E-02  0.12906676545E-01  0.10202232057E+01  0.10199477327E+01 0.  0.
     999903    2    3    3    0    0  0.65857524463E-01 -0.67920748213E-01 -0.86710703475E-01  0.12994147960E+00  0.20386281101E-01 0.  0.
         14    1    1    2    0    0 -0.17618120410E-01 -0.92212595961E-02 -0.12906676545E-01  0.23706794274E-01  0.00000000000E+00 0.  1.
     999901    1    3    3    0    0 -0.48239404053E-01  0.77142007810E-01  0.99617380020E-01  0.89028172613E+00  0.88000000000E+00 0.  1.
        -11    1    4    4    0    0  0.29639508826E-01 -0.23867046179E-01 -0.46849408001E-01  0.60359460963E-01  0.51100000000E-03 0.  1.
         11    1    4    4    0    0  0.36218015637E-01 -0.44053702035E-01 -0.39861295474E-01  0.69582018637E-01  0.51100000000E-03 0. -1.
</event>
<event>
 8    1  0.1086235E+005  0.1043930E+01  0.7957747E-01            NaN
         13   -1    0    0    0    0  0.00000000000E+00  0.00000000000E+00  0.74505805969E-08  0.10566000000E+00  0.10566000000E+00 0.  1.
     999900   -1    0    0    0    0 -0.00000000000E+00 -0.00000000000E+00 -0.74505805969E-08  0.93827000000E+00  0.93827000000E+00 0. -1.
     999902    2    1    2    0    0 -0.68379394782E-02  0.16251603351E-01 -0.17153779625E-01  0.10193307280E+01  0.10190338605E+01 0.  0.
     999903    2    3    3    0    0 -0.12855676452E-01 -0.94183023971E-01 -0.85991909393E-01  0.12974053685E+00  0.20057118434E-01 0.  0.
         14    1    1    2    0    0  0.68379394782E-02 -0.16251603351E-01  0.17153779625E-01  0.24599272005E-01  0.00000000000E+00 0.  1.
     999901    1    3    3    0    0  0.60177369741E-02  0.11043462732E+00  0.68838129768E-01  0.88959019114E+00  0.88000000000E+00 0. -1.
        -11    1    4    4    0    0 -0.17645183785E-02 -0.11947009025E-01 -0.31631001275E-02  0.12494433688E-01  0.51100000000E-03 0. -1.
         11    1    4    4    0    0 -0.11091158074E-01 -0.82236014945E-01 -0.82828809265E-01  0.11724610316E+00  0.51100000000E-03 0.  1.
</event>
<event>
 8    1  0.1086235E+005  0.1043930E+01  0.7957747E-01            NaN
         13   -1    0    0    0    0  0.00000000000E+00  0.00000000000E+00  0.74505805969E-08  0.10566000000E+00  0.10566000000E+00 0. -1.
     999900   -1    0    0    0    0 -0.00000000000E+00 -0.00000000000E+00 -0.74505805969E-08  0.93827000000E+00  0.93827000000E+00 0. -1.
     999902    2    1    2    0    0  0.22884456073E-02  0.85410283844E-02  0.25408125765E-01  0.10170272306E+01  0.10166713474E+01 0.  0.
     999903    2    3    3    0    0 -0.91514205840E-01 -0.60061591934E-01  0.64346038170E-01  0.12853332626E+00  0.19953912796E-01 0.  0.
         14    1    1    2    0    0 -0.22884456073E-02 -0.85410283844E-02 -0.25408125765E-01  0.26902769450E-01  0.00000000000E+00 0.  1.
     999901    1    3    3    0    0  0.93802651448E-01  0.68602620318E-01 -0.38937912404E-01  0.88849390429E+00  0.88000000000E+00 0. -1.
        -11    1    4    4    0    0 -0.31938105371E-01 -0.29413934270E-01  0.17676287583E-01  0.46882132712E-01  0.51100000000E-03 0.  1.
         11    1    4    4    0    0 -0.59576100469E-01 -0.30647657663E-01  0.46669750587E-01  0.81651193551E-01  0.51100000000E-03 0. -1.
</event>
<event>
 8    1  0.1086235E+005  0.1043930E+01  0.7957747E-01            NaN
         13   -1    0    0    0    0  0.00000000000E+00  0.00000000000E+00  0.74505805969E-08  0.10566000000E+00  0.10566000000E+00 0. -1.
     999900   -1    0    0    0    0 -0.00000000000E+00 -0.00000000000E+00 -0.74505805969E-08  0.93827000000E+00  0.93827000000E+00 0.  1.
     999902    2    1    2    0    0  0.12618609955E-01 -0.19353790066E-01 -0.17266951965E-01  0.10150865235E+01  0.10146766500E+01 0.  0.
     999903    2    3    3    0    0  0.75560988862E-01 -0.40994744979E-01 -0.94427792109E-01  0.12920624419E+00  0.19687901422E-01 0.  0.
         14    1    1    2    0    0 -0.12618609955E-01  0.19353790066E-01  0.17266951965E-01  0.28843476512E-01  0.00000000000E+00 0. -1.
     999901    1    3    3    0    0 -0.62942378907E-01  0.21640954912E-01  0.77160840144E-01  0.88588027929E+00  0.88000000000E+00 0. -1.
        -11    1    4    4    0    0  0.26398032824E-01 -0.22275018811E-01 -0.27983137501E-01  0.44456154866E-01  0.51100000000E-03 0. -1.
         11    1    4    4    0    0  0.49162956037E-01 -0.18719726167E-01 -0.66444654608E-01  0.84750089328E-01  0.51100000000E-03 0.  1.
</event>
<event>
 8    1  0.1086235E+005  0.1043930E+01  0.7957747E-01            NaN
         13   -1    0    0    0    0  0.00000000000E+00  0.00000000000E+00  0.74505805969E-08  0.10566000000E+00  0.10566000000E+00 0.  1.
     999900   -1    0    0    0    0 -0.00000000000E+00 -0.00000000000E+00 -0.74505805969E-08  0.93827000000E+00  0.93827000000E+00 0. -1.
     999902    2    1    2    0    0  0.11463094092E-01 -0.13588358644E-01 -0.17221368875E-01  0.10191788068E+01  0.10188782159E+01 0.  0.
     999903    2    3    3    0    0  0.76577355136E-01  0.15043266475E-01  0.10021298626E+00  0.12853271287E+00  0.19688181144E-01 0.  0.
         14    1    1    2    0    0 -0.11463094092E-01  0.13588358644E-01  0.17221368875E-01  0.24751193158E-01  0.00000000000E+00 0.  1.
     999901    1    3    3    0    0 -0.65114261045E-01 -0.28631625120E-01 -0.11743435513E+00  0.89064609398E+00  0.88000000000E+00 0. -1.
        -11    1    4    4    0    0  0.58640318509E-01  0.10741949800E-01  0.88392130916E-01  0.10661850857E+00  0.51100000000E-03 0. -1.
         11    1    4    4    0    0  0.17937036627E-01  0.43013166753E-02  0.11820855340E-01  0.21914204299E-01  0.51100000000E-03 0.  1.
</event>
<event>
 8    1  0.1291268E+005  0.1043930E+01  0.7957747E-01            NaN
         13   -1    0    0    0    0  0.00000000000E+00  0.00000000000E+00  0.74505805969E-08  0.10566000000E+00  0.10566000000E+00 0.  1.
     999900   -1    0    0    0    0 -0.00000000000E+00 -0.00000000000E+00 -0.74505805969E-08  0.93827000000E+00  0.93827000000E+00 0.  1.
     999902    2    1    2    0    0  0.22616891819E-01 -0.44539686519E-02  0.65303062365E-02  0.10199715666E+01  0.10196901442E+01 0.  0.
     999903    2    3    3    0    0 -0.12194052272E+00  0.82997522082E-02 -0.30441194577E-01  0.12732023747E+00  0.18584928683E-01 0.  0.
         14    1    1    2    0    0 -0.22616891819E-01  0.44539686519E-02 -0.65303062365E-02  0.23958433418E-01  0.00000000000E+00 0.  1.
     999901    1    3    3    0    0  0.14455741454E+00 -0.12753720860E-01  0.36971500814E-01  0.89265132911E+00  0.88000000000E+00 0. -1.
        -11    1    4    4    0    0 -0.61541918813E-01  0.13486365677E-01 -0.15614793248E-01  0.64910497761E-01  0.51100000000E-03 0. -1.
         11    1    4    4    0    0 -0.60398603907E-01 -0.51866134690E-02 -0.14826401329E-01  0.62409739709E-01  0.51100000000E-03 0.  1.
</event>
<event>
 8    1  0.1086235E+005  0.1043930E+01  0.7957747E-01            NaN
         13   -1    0    0    0    0  0.00000000000E+00  0.00000000000E+00  0.74505805969E-08  0.10566000000E+00  0.10566000000E+00 0.  1.
     999900   -1    0    0    0    0 -0.00000000000E+00 -0.00000000000E+00 -0.74505805969E-08  0.93827000000E+00  0.93827000000E+00 0. -1.
     999902    2    1    2    0    0  0.19992549244E-01 -0.13930686870E-02 -0.11264473356E-01  0.10209401974E+01  0.10206813193E+01 0.  0.
     999903    2    3    3    0    0 -0.72805779858E-01 -0.15392273493E-01 -0.10588174704E+00  0.13090652603E+00  0.19696967690E-01 0.  0.
         14    1    1    2    0    0 -0.19992549244E-01  0.13930686870E-02  0.11264473356E-01  0.22989802644E-01  0.00000000000E+00 0.  1.
     999901    1    3    3    0    0  0.92798329102E-01  0.13999204806E-01  0.94617273684E-01  0.89003367133E+00  0.88000000000E+00 0. -1.
        -11    1    4    4    0    0 -0.43181756458E-01 -0.15091821992E-01 -0.50804852818E-01  0.68365352136E-01  0.51100000000E-03 0. -1.
         11    1    4    4    0    0 -0.29624023400E-01 -0.30045150107E-03 -0.55076894222E-01  0.62541173891E-01  0.51100000000E-03 0.  1.
</event>
<event>
 8    1  0.1086235E+005  0.1043930E+01  0.7957747E-01            NaN
         13   -1    0    0    0    0  0.00000000000E+00  0.00000000000E+00  0.74505805969E-08  0.10566000000E+00  0.10566000000E+00 0. -1.
     999900   -1    0    0    0    0 -0.00000000000E+00 -0.00000000000E+00 -0.74505805969E-08  0.93827000000E+00  0.93827000000E+00 0.  1.
     999902    2    1    2    0    0 -0.62930434682E-02  0.60717447988E-02 -0.22391501710E-01  0.10198915344E+01  0.10196082062E+01 0.  0.
     999903    2    3    3    0    0  0.10234886285E+00  0.75865989368E-01  0.14276047120E-01  0.12971244592E+00  0.19762971323E-01 0.  0.
         14    1    1    2    0    0  0.62930434682E-02 -0.60717447988E-02  0.22391501710E-01  0.24038465630E-01  0.00000000000E+00 0. -1.
     999901    1    3    3    0    0 -0.10864190631E+00 -0.69794244569E-01 -0.36667548830E-01  0.89017908845E+00  0.88000000000E+00 0. -1.
        -11    1    4    4    0    0  0.62618837821E-01  0.34248017234E-01  0.70787808320E-02  0.71724582909E-01  0.51100000000E-03 0. -1.
         11    1    4    4    0    0  0.39730025026E-01  0.41617972134E-01  0.71972662876E-02  0.57987863007E-01  0.51100000000E-03 0.  1.
</event>
<event>
 8    1  0.1086235E+005  0.1043930E+01  0.7957747E-01            NaN
         13   -1    0    0    0    0  0.00000000000E+00  0.00000000000E+00  0.74505805969E-08  0.10566000000E+00  0.10566000000E+00 0. -1.
     999900   -1    0    0    0    0 -0.00000000000E+00 -0.00000000000E+00 -0.74505805969E-08  0.93827000000E+00  0.93827000000E+00 0.  1.
     999902    2    1    2    0    0  0.84184151515E-02 -0.75971905645E-02 -0.21208885802E-01  0.10198799718E+01  0.10195963677E+01 0.  0.
     999903    2    3    3    0    0 -0.10577848093E+00  0.70847527030E-01 -0.47167469296E-05  0.12878843804E+00  0.19442289926E-01 0.  0.
         14    1    1    2    0    0 -0.84184151515E-02  0.75971905645E-02  0.21208885802E-01  0.24050028173E-01  0.00000000000E+00 0. -1.
     999901    1    3    3    0    0  0.11419689608E+00 -0.78444717595E-01 -0.21204169055E-01  0.89109153378E+00  0.88000000000E+00 0.  1.
        -11    1    4    4    0    0 -0.92348210339E-02  0.22680543459E-02  0.39245144655E-02  0.10299947807E-01  0.51100000000E-03 0.  1.
         11    1    4    4    0    0 -0.96543659896E-01  0.68579472684E-01 -0.39292312125E-02  0.11848849024E+00  0.51100000000E-03 0. -1.
</event>
<event>
 8    1  0.1086235E+005  0.1043930E+01  0.7957747E-01            NaN
         13   -1    0    0    0    0  0.00000000000E+00  0.00000000000E+00  0.74505805969E-08  0.10566000000E+00  0.10566000000E+00 0.  1.
     999900   -1    0    0    0    0 -0.00000000000E+00 -0.00000000000E+00 -0.74505805969E-08  0.93827000000E+00  0.93827000000E+00 0.  1.
     999902    2    1    2    0    0 -0.51630362084E-02  0.23521246200E-01 -0.24646218384E-02  0.10197229695E+01  0.10194356057E+01 0.  0.
     999903    2    3    3    0    0 -0.71047461180E-01  0.47797834954E-01  0.97570906950E-01  0.13127645042E+00  0.19520496543E-01 0.  0.
         14    1    1    2    0    0  0.51630362084E-02 -0.23521246200E-01  0.24646218384E-02  0.24207030518E-01  0.00000000000E+00 0.  1.
     999901    1    3    3    0    0  0.65884424972E-01 -0.24276588754E-01 -0.10003552879E+00  0.88844651906E+00  0.88000000000E+00 0.  1.
        -11    1    4    4    0    0 -0.38751793922E-01  0.25449446632E-01  0.38123195671E-01  0.60025120035E-01  0.51100000000E-03 0.  1.
         11    1    4    4    0    0 -0.32295667258E-01  0.22348388322E-01  0.59447711279E-01  0.71251330384E-01  0.51100000000E-03 0. -1.
</event>
<event>
 8    1  0.1086235E+005  0.1043930E+01  0.7957747E-01            NaN
         13   -1    0    0    0    0  0.00000000000E+00  0.00000000000E+00  0.74505805969E-08  0.10566000000E+00  0.10566000000E+00 0. -1.
     999900   -1    0    0    0    0 -0.00000000000E+00 -0.00000000000E+00 -0.74505805969E-08  0.93827000000E+00  0.93827000000E+00 0. -1.
     999902    2    1    2    0    0  0.93404067255E-02 -0.19284457981E-01 -0.11450496109E-01  0.10196349927E+01  0.10193455111E+01 0.  0.
     999903    2    3    3    0    0 -0.22768298815E-01  0.87002128278E-01  0.87612032931E-01  0.12714342859E+00  0.20045382596E-01 0.  0.
         14    1    1    2    0    0 -0.93404067255E-02  0.19284457981E-01  0.11450496109E-01  0.24295007276E-01  0.00000000000E+00 0.  1.
     999901    1    3    3    0    0  0.32108705541E-01 -0.10628658626E+00 -0.99062529040E-01  0.89249156413E+00  0.88000000000E+00 0. -1.
        -11    1    4    4    0    0 -0.10798424840E-01  0.51534151657E-01  0.37740568606E-01  0.64784152427E-01  0.51100000000E-03 0.  1.
         11    1    4    4    0    0 -0.11969873976E-01  0.35467976621E-01  0.49871464325E-01  0.62359276163E-01  0.51100000000E-03 0. -1.
</event>
<event>
 8    1  0.1086235E+005  0.1043930E+01  0.7957747E-01            NaN
         13   -1    0    0    0    0  0.00000000000E+00  0.00000000000E+00  0.74505805969E-08  0.10566000000E+00  0.10566000000E+00 0.  1.
     999900   -1    0    0    0    0 -0.00000000000E+00 -0.00000000000E+00 -0.74505805969E-08  0.93827000000E+00  0.93827000000E+00 0. -1.
     999902    2    1    2    0    0 -0.13025760540E-01  0.17268819123E-01  0.56988226008E-02  0.10215612913E+01  0.10213163627E+01 0.  0.
     999903    2    3    3    0    0  0.40960400917E-01 -0.39891897392E-01  0.11632406279E+00  0.13115700280E+00  0.20043799002E-01 0.  0.
         14    1    1    2    0    0  0.13025760540E-01 -0.17268819123E-01 -0.56988226008E-02  0.22368708738E-01  0.00000000000E+00 0. -1.
     999901    1    3    3    0    0 -0.53986161457E-01  0.57160716515E-01 -0.11062524019E+00  0.89040428846E+00  0.88000000000E+00 0. -1.
        -11    1    4    4    0    0  0.72048075450E-02 -0.20034637476E-01  0.45056065622E-01  0.49835791565E-01  0.51100000000E-03 0. -1.
         11    1    4    4    0    0  0.33755593372E-01 -0.19857259916E-01  0.71267997171E-01  0.81321211237E-01  0.51100000000E-03 0.  1.
</event>
<event>
 8    1  0.1086235E+005  0.1043930E+01  0.7957747E-01            NaN
         13   -1    0    0    0    0  0.00000000000E+00  0.00000000000E+00  0.74505805969E-08  0.10566000000E+00  0.10566000000E+00 0. -1.
     999900   -1    0    0    0    0 -0.00000000000E+00 -0.00000000000E+00 -0.74505805969E-08  0.93827000000E+00  0.93827000000E+00 0. -1.
     999902    2    1    2    0    0 -0.15009227724E-01 -0.19129534504E-01  0.26150842083E-02  0.10194748436E+01  0.10191814864E+01 0.  0.
     999903    2    3    3    0    0  0.36683746447E-01  0.92492043967E-01 -0.76815814830E-01  0.12737574148E+00  0.20577527982E-01 0.  0.
         14    1    1    2    0    0  0.15009227724E-01  0.19129534504E-01 -0.26150842083E-02  0.24455156361E-01  0.00000000000E+00 0. -1.
     999901    1    3    3    0    0 -0.51692974171E-01 -0.11162157847E+00  0.79430899038E-01  0.89209910216E+00  0.88000000000E+00 0.  1.
        -11    1    4    4    0    0  0.30310249188E-01  0.62731755878E-01 -0.42979811389E-01  0.81862749217E-01  0.51100000000E-03 0.  1.
         11    1    4    4    0    0  0.63734972593E-02  0.29760288089E-01 -0.33836003441E-01  0.45512992258E-01  0.51100000000E-03 0. -1.
</event>
<event>
 8    1  0.1086235E+005  0.1043930E+01  0.7957747E-01            NaN
         13   -1    0    0    0    0  0.00000000000E+00  0.00000000000E+00  0.74505805969E-08  0.10566000000E+00  0.10566000000E+00 0. -1.
     999900   -1    0    0    0    0 -0.00000000000E+00 -0.00000000000E+00 -0.74505805969E-08  0.93827000000E+00  0.93827000000E+00 0. -1.
     999902    2    1    2    0    0  0.17619617847E-01 -0.14255434280E-01 -0.69254978735E-03  0.10212551689E+01  0.10210034143E+01 0.  0.
     999903    2    3    3    0    0  0.48887863873E-01 -0.34276723305E-01 -0.11693599476E+00  0.13283460762E+00  0.20151652983E-01 0.  0.
         14    1    1    2    0    0 -0.17619617847E-01  0.14255434280E-01  0.69254978735E-03  0.22674831086E-01  0.00000000000E+00 0. -1.
     999901    1    3    3    0    0 -0.31268246026E-01  0.20021289025E-01  0.11624344497E+00  0.88842056129E+00  0.88000000000E+00 0.  1.
        -11    1    4    4    0    0  0.23078981491E-01 -0.81323071698E-02 -0.31953570918E-01  0.40250038782E-01  0.51100000000E-03 0.  1.
         11    1    4    4    0    0  0.25808882382E-01 -0.26144416135E-01 -0.84982423840E-01  0.92584568842E-01  0.51100000000E-03 0. -1.
</event>
<event>
 8    1  0.1086235E+005  0.1043930E+01  0.7957747E-01            NaN
         13   -1    0    0    0    0  0.00000000000E+00  0.00000000000E+00  0.74505805969E-08  0.10566000000E+00  0.10566000000E+00 0.  1.
     999900   -1    0    0    0    0 -0.00000000000E+00 -0.00000000000E+00 -0.74505805969E-08  0.93827000000E+00  0.93827000000E+00 0.  1.
     999902    2    1    2    0    0  0.21716685929E-01 -0.36077028708E-03  0.84224077242E-02  0.10206344735E+01  0.10203685839E+01 0.  0.
     999903    2    3    3    0    0  0.10083135241E-01 -0.22668490428E-01  0.12832034667E+00  0.13214784465E+00  0.19529756808E-01 0.  0.
         14    1    1    2    0    0 -0.21716685929E-01  0.36077028708E-03 -0.84224077242E-02  0.23295526498E-01  0.00000000000E+00 0. -1.
     999901    1    3    3    0    0  0.11633550689E-01  0.22307720141E-01 -0.11989793895E+00  0.88848662885E+00  0.88000000000E+00 0.  1.
        -11    1    4    4    0    0 -0.22636867028E-02 -0.18331826133E-01  0.75090147343E-01  0.77330275286E-01  0.51100000000E-03 0. -1.
         11    1    4    4    0    0  0.12346821943E-01 -0.43366642956E-02  0.53230199332E-01  0.54817569366E-01  0.51100000000E-03 0.  1.
</event>
<event>
 8    1  0.1086235E+005  0.1043930E+01  0.7957747E-01            NaN
         13   -1    0    0    0    0  0.00000000000E+00  0.00000000000E+00  0.74505805969E-08  0.10566000000E+00  0.10566000000E+00 0. -1.
     999900   -1    0    0    0    0 -0.00000000000E+00 -0.00000000000E+00 -0.74505805969E-08  0.93827000000E+00  0.93827000000E+00 0.  1.
     999902    2    1    2    0    0 -0.28791134296E-02 -0.21978994798E-01 -0.73740625373E-02  0.10205688719E+01  0.10203014653E+01 0.  0.
     999903    2    3    3    0    0  0.17085721757E-01 -0.98214025312E-01 -0.86625647482E-01  0.13349999735E+00  0.19502046971E-01 0.  0.
         14    1    1    2    0    0  0.28791134296E-02  0.21978994798E-01  0.73740625373E-02  0.23361128072E-01  0.00000000000E+00 0.  1.
     999901    1    3    3    0    0 -0.19964835187E-01  0.76235030513E-01  0.79251584945E-01  0.88706887457E+00  0.88000000000E+00 0.  1.
        -11    1    4    4    0    0  0.11947598927E-01 -0.51897244800E-01 -0.58299638763E-01  0.78963144181E-01  0.51100000000E-03 0. -1.
         11    1    4    4    0    0  0.51381228301E-02 -0.46316780511E-01 -0.28326008719E-01  0.54536853174E-01  0.51100000000E-03 0.  1.
</event>
<event>
 8    1  0.1086235E+005  0.1043930E+01  0.7957747E-01            NaN
         13   -1    0    0    0    0  0.00000000000E+00  0.00000000000E+00  0.74505805969E-08  0.10566000000E+00  0.10566000000E+00 0.  1.
     999900   -1    0    0    0    0 -0.00000000000E+00 -0.00000000000E+00 -0.74505805969E-08  0.93827000000E+00  0.93827000000E+00 0. -1.
     999902    2    1    2    0    0 -0.15506333454E-01  0.15600072353E-01  0.88690228766E-02  0.10202135879E+01  0.10199378887E+01 0.  0.
     999903    2    3    3    0    0  0.98706732667E-01 -0.71090899378E-01  0.35641293894E-01  0.12820646714E+00  0.19226578926E-01 0.  0.
         14    1    1    2    0    0  0.15506333454E-01 -0.15600072353E-01 -0.88690228766E-02  0.23716412068E-01  0.00000000000E+00 0. -1.
     999901    1    3    3    0    0 -0.11421306612E+00  0.86690971731E-01 -0.26772271017E-01  0.89200712079E+00  0.88000000000E+00 0.  1.
        -11    1    4    4    0    0  0.92739893856E-01 -0.68266092951E-01  0.28838855475E-01  0.11871347045E+00  0.51100000000E-03 0.  1.
         11    1    4    4    0    0  0.59668388115E-02 -0.28248064277E-02  0.68024384184E-02  0.94929966919E-02  0.51100000000E-03 0. -1.
</event>
<event>
 8    1  0.1137355E+005  0.1043930E+01  0.7957747E-01            NaN
         13   -1    0    0    0    0  0.00000000000E+00  0.00000000000E+00  0.74505805969E-08  0.10566000000E+00  0.10566000000E+00 0. -1.
     999900   -1    0    0    0    0 -0.00000000000E+00 -0.00000000000E+00 -0.74505805969E-08  0.93827000000E+00  0.93827000000E+00 0. -1.
     999902    2    1    2    0    0  0.17089125388E-01 -0.55114071661E-03  0.22785477278E-01  0.10154428110E+01  0.10150431432E+01 0.  0.
     999903    2    3    3    0    0 -0.79299599671E-01  0.19575537189E-01  0.95825714413E-01  0.12694365752E+00  0.16139903281E-01 0.  0.
         14    1    1    2    0    0 -0.17089125388E-01  0.55114071661E-03 -0.22785477278E-01  0.28487189005E-01  0.00000000000E+00 0.  1.
     999901    1    3    3    0    0  0.96388725060E-01 -0.20126677906E-01 -0.73040237135E-01  0.88849915347E+00  0.88000000000E+00 0. -1.
        -11    1    4    4    0    0 -0.41058099072E-01  0.18397437366E-01  0.52218869556E-01  0.68929708107E-01  0.51100000000E-03 0.  1.
         11    1    4    4    0    0 -0.38241500599E-01  0.11780998232E-02  0.43606844857E-01  0.58013949415E-01  0.51100000000E-03 0. -1.
</event>
<event>
 8    1  0.1086235E+005  0.1043930E+01  0.7957747E-01            NaN
         13   -1    0    0    0    0  0.00000000000E+00  0.00000000000E+00  0.74505805969E-08  0.10566000000E+00  0.10566000000E+00 0. -1.
     999900   -1    0    0    0    0 -0.00000000000E+00 -0.00000000000E+00 -0.74505805969E-08  0.93827000000E+00  0.93827000000E+00 0. -1.
     999902    2    1    2    0    0  0.18767215993E-01 -0.81174505196E-02 -0.12483577683E-01  0.10199729319E+01  0.10196915420E+01 0.  0.
     999903    2    3    3    0    0 -0.10206308857E+00  0.21859942535E-01 -0.73282511781E-01  0.12913337455E+00  0.20257609736E-01 0.  0.
         14    1    1    2    0    0 -0.18767215993E-01  0.81174505196E-02  0.12483577683E-01  0.23957068077E-01  0.00000000000E+00 0. -1.
     999901    1    3    3    0    0  0.12083030457E+00 -0.29977393055E-01  0.60798934098E-01  0.89083955737E+00  0.88000000000E+00 0. -1.
        -11    1    4    4    0    0 -0.91587194908E-01  0.12839498529E-01 -0.63228962690E-01  0.11203227141E+00  0.51100000000E-03 0.  1.
         11    1    4    4    0    0 -0.10475893666E-01  0.90204440065E-02 -0.10053549091E-01  0.17101103137E-01  0.51100000000E-03 0. -1.
</event>
<event>
 8    1  0.1086235E+005  0.1043930E+01  0.7957747E-01            NaN
         13   -1    0    0    0    0  0.00000000000E+00  0.00000000000E+00  0.74505805969E-08  0.10566000000E+00  0.10566000000E+00 0.  1.
     999900   -1    0    0    0    0 -0.00000000000E+00 -0.00000000000E+00 -0.74505805969E-08  0.93827000000E+00  0.93827000000E+00 0. -1.
     999902    2    1    2    0    0  0.76475088811E-02 -0.92866956831E-02 -0.20048379846E-01  0.10205491394E+01  0.10202812756E+01 0.  0.
     999903    2    3    3    0    0  0.42326378369E-01 -0.10373010909E+00 -0.69698477051E-01  0.13342608451E+00  0.19828880146E-01 0.  0.
         14    1    1    2    0    0 -0.76475088811E-02  0.92866956831E-02  0.20048379846E-01  0.23380860618E-01  0.00000000000E+00 0.  1.
     999901    1    3    3    0    0 -0.34678869488E-01  0.94443413407E-01  0.49650097205E-01  0.88712305487E+00  0.88000000000E+00 0. -1.
        -11    1    4    4    0    0  0.13277758424E-03 -0.17940202069E-01 -0.80729986170E-02  0.19680012902E-01  0.51100000000E-03 0.  1.
         11    1    4    4    0    0  0.42193600785E-01 -0.85789907021E-01 -0.61625478434E-01  0.11374607161E+00  0.51100000000E-03 0. -1.
</event>
<event>
 8    1  0.1086235E+005  0.1043930E+01  0.7957747E-01            NaN
         13   -1    0    0    0    0  0.00000000000E+00  0.00000000000E+00  0.74505805969E-08  0.10566000000E+00  0.10566000000E+00 0.  1.
     999900   -1    0    0    0    0 -0.00000000000E+00 -0.00000000000E+00 -0.74505805969E-08  0.93827000000E+00  0.93827000000E+00 0. -1.
     999902    2    1    2    0    0 -0.35260213630E-02 -0.21664500907E-01  0.98264751065E-02  0.10198812362E+01  0.10195976623E+01 0.  0.
     999903    2    3    3    0    0 -0.12809115283E+00 -0.14479512209E-01  0.13308104277E-01  0.13107292293E+00  0.19647029774E-01 0.  0.
         14    1    1    2    0    0  0.35260213630E-02  0.21664500907E-01 -0.98264751065E-02  0.24048763777E-01  0.00000000000E+00 0. -1.
     999901    1    3    3    0    0  0.12456513146E+00 -0.71849886977E-02 -0.34816291708E-02  0.88880831329E+00  0.88000000000E+00 0.  1.
        -11    1    4    4    0    0 -0.75292438507E-01 -0.86036277375E-02  0.17507386673E-01  0.77780096526E-01  0.51100000000E-03 0.  1.
         11    1    4    4    0    0 -0.52798714321E-01 -0.58758844717E-02 -0.41992823954E-02  0.53292826402E-01  0.51100000000E-03 0. -1.
</event>
<event>
 8    1  0.1086235E+005  0.1043930E+01  0.7957747E-01            NaN
         13   -1    0    0    0    0  0.00000000000E+00  0.00000000000E+00  0.74505805969E-08  0.10566000000E+00  0.10566000000E+00 0. -1.
     999900   -1    0    0    0    0 -0.00000000000E+00 -0.00000000000E+00 -0.74505805969E-08  0.93827000000E+00  0.93827000000E+00 0. -1.
     999902    2    1    2    0    0 -0.92738277515E-02 -0.44354127509E-02  0.21268846548E-01  0.10203071170E+01  0.10200336134E+01 0.  0.
     999903    2    3    3    0    0 -0.57274212409E-02  0.59300353721E-01 -0.10993711398E+00  0.12829263898E+00  0.28696635381E-01 0.  0.
         14    1    1    2    0    0  0.92738277515E-02  0.44354127509E-02 -0.21268846548E-01  0.23622882993E-01  0.00000000000E+00 0.  1.
     999901    1    3    3    0    0 -0.35464065106E-02 -0.63735766472E-01  0.13120596052E+00  0.89201447802E+00  0.88000000000E+00 0.  1.
        -11    1    4    4    0    0 -0.14805962319E-02  0.64869793691E-02 -0.39985557158E-01  0.40538610839E-01  0.51100000000E-03 0. -1.
         11    1    4    4    0    0 -0.42468250090E-02  0.52813374352E-01 -0.69951556818E-01  0.87754028143E-01  0.51100000000E-03 0.  1.
</event>
<event>
 8    1  0.1086235E+005  0.1043930E+01  0.7957747E-01            NaN
         13   -1    0    0    0    0  0.00000000000E+00  0.00000000000E+00  0.74505805969E-08  0.10566000000E+00  0.10566000000E+00 0.  1.
     999900   -1    0    0    0    0 -0.00000000000E+00 -0.00000000000E+00 -0.74505805969E-08  0.93827000000E+00  0.93827000000E+00 0. -1.
     999902    2    1    2    0    0 -0.14663695315E-01  0.13574291374E-01 -0.21388952841E-01  0.10146593210E+01  0.10142370359E+01 0.  0.
     999903    2    3    3    0    0 -0.76611958087E-01  0.21359511708E-01  0.94276925375E-01  0.12489710988E+00  0.19634880609E-01 0.  0.
         14    1    1    2    0    0  0.14663695315E-01 -0.13574291374E-01  0.21388952841E-01  0.29270679019E-01  0.00000000000E+00 0.  1.
     999901    1    3    3    0    0  0.61948262771E-01 -0.77852203348E-02 -0.11566587822E+00  0.88976221110E+00  0.88000000000E+00 0. -1.
        -11    1    4    4    0    0 -0.18602250554E-01  0.82971870081E-02  0.37512190852E-01  0.42688553753E-01  0.51100000000E-03 0.  1.
         11    1    4    4    0    0 -0.58009707532E-01  0.13062324700E-01  0.56764734522E-01  0.82208556130E-01  0.51100000000E-03 0. -1.
</event>
<event>
 8    1  0.1086235E+005  0.1043930E+01  0.7957747E-01            NaN
         13   -1    0    0    0    0  0.00000000000E+00  0.00000000000E+00  0.74505805969E-08  0.10566000000E+00  0.10566000000E+00 0. -1.
     999900   -1    0    0    0    0 -0.00000000000E+00 -0.00000000000E+00 -0.74505805969E-08  0.93827000000E+00  0.93827000000E+00 0. -1.
     999902    2    1    2    0    0  0.20821217321E-03 -0.23882716181E-01  0.33709734432E-03  0.10200439974E+01  0.10197642941E+01 0.  0.
     999903    2    3    3    0    0  0.90213671955E-01  0.22044771526E-01 -0.88437660605E-01  0.12982420739E+00  0.20214510924E-01 0.  0.
         14    1    1    2    0    0 -0.20821217321E-03  0.23882716181E-01 -0.33709734432E-03  0.23886002577E-01  0.00000000000E+00 0. -1.
     999901    1    3    3    0    0 -0.90005459782E-01 -0.45927487707E-01  0.88774757950E-01  0.89021979003E+00  0.88000000000E+00 0.  1.
        -11    1    4    4    0    0  0.51068726667E-01  0.45511584379E-02 -0.56915330044E-01  0.76605116027E-01  0.51100000000E-03 0. -1.
         11    1    4    4    0    0  0.39144945288E-01  0.17493613088E-01 -0.31522330561E-01  0.53219091363E-01  0.51100000000E-03 0.  1.
</event>
<event>
 8    1  0.1086235E+005  0.1043930E+01  0.7957747E-01            NaN
         13   -1    0    0    0    0  0.00000000000E+00  0.00000000000E+00  0.74505805969E-08  0.10566000000E+00  0.10566000000E+00 0.  1.
     999900   -1    0    0    0    0 -0.00000000000E+00 -0.00000000000E+00 -0.74505805969E-08  0.93827000000E+00  0.93827000000E+00 0.  1.
     999902    2    1    2    0    0  0.20373356583E-01  0.26254729490E-02 -0.10978148625E-01  0.10206386601E+01  0.10203728671E+01 0.  0.
     999903    2    3    3    0    0 -0.67543292084E-01 -0.48535271831E-01 -0.98589109817E-01  0.13045753279E+00  0.19534235828E-01 0.  0.
         14    1    1    2    0    0 -0.20373356583E-01 -0.26254729490E-02  0.10978148625E-01  0.23291339890E-01  0.00000000000E+00 0.  1.
     999901    1    3    3    0    0  0.87916648667E-01  0.51160744780E-01  0.87610961192E-01  0.89018112732E+00  0.88000000000E+00 0. -1.
        -11    1    4    4    0    0 -0.50984952189E-01 -0.40828517878E-01 -0.87108940024E-01  0.10887911542E+00  0.51100000000E-03 0. -1.
         11    1    4    4    0    0 -0.16558339895E-01 -0.77067539532E-02 -0.11480169792E-01  0.21578417366E-01  0.51100000000E-03 0.  1.
</event>
<event>
 8    1  0.1086235E+005  0.1043930E+01  0.7957747E-01            NaN
         13   -1    0    0    0    0  0.00000000000E+00  0.00000000000E+00  0.74505805969E-08  0.10566000000E+00  0.10566000000E+00 0. -1.
     999900   -1    0    0    0    0 -0.00000000000E+00 -0.00000000000E+00 -0.74505805969E-08  0.93827000000E+00  0.93827000000E+00 0. -1.
     999902    2    1    2    0    0  0.16610060882E-02  0.32450021267E-02 -0.22048357750E-01  0.10215823142E+01  0.10213378509E+01 0.  0.
     999903    2    3    3    0    0 -0.14137302694E-01 -0.37660273725E-01  0.12086936179E+00  0.12897472815E+00  0.20172216994E-01 0.  0.
         14    1    1    2    0    0 -0.16610060882E-02 -0.32450021267E-02  0.22048357750E-01  0.22347685775E-01  0.00000000000E+00 0. -1.
     999901    1    3    3    0    0  0.15798308782E-01  0.40905275852E-01 -0.14291771954E+00  0.89260758607E+00  0.88000000000E+00 0. -1.
        -11    1    4    4    0    0 -0.81465303447E-03 -0.24088211488E-01  0.48705503734E-01  0.54345126803E-01  0.51100000000E-03 0. -1.
         11    1    4    4    0    0 -0.13322649659E-01 -0.13572062237E-01  0.72163858056E-01  0.74629601351E-01  0.51100000000E-03 0.  1.
</event>
<event>
 8    1  0.1086235E+005  0.1043930E+01  0.7957747E-01            NaN
         13   -1    0    0    0    0  0.00000000000E+00  0.00000000000E+00  0.74505805969E-08  0.10566000000E+00  0.10566000000E+00 0. -1.
     999900   -1    0    0    0    0 -0.00000000000E+00 -0.00000000000E+00 -0.74505805969E-08  0.93827000000E+00  0.93827000000E+00 0.  1.
     999902    2    1    2    0    0  0.39114855027E-02  0.41777376940E-02  0.21625902771E-01  0.10215596428E+01  0.10213146777E+01 0.  0.
     999903    2    3    3    0    0  0.11955384975E+00 -0.44615263550E-01 -0.22807079539E-01  0.13154379838E+00  0.22359858757E-01 0.  0.
         14    1    1    2    0    0 -0.39114855027E-02 -0.41777376940E-02 -0.21625902771E-01  0.22370357211E-01  0.00000000000E+00 0.  1.
     999901    1    3    3    0    0 -0.11564236425E+00  0.48793001244E-01  0.44432982310E-01  0.89001584441E+00  0.88000000000E+00 0. -1.
        -11    1    4    4    0    0  0.45301326769E-01 -0.82915857388E-02 -0.10622340906E-02  0.46068970722E-01  0.51100000000E-03 0.  1.
         11    1    4    4    0    0  0.74252522982E-01 -0.36323677811E-01 -0.21744845449E-01  0.85474827660E-01  0.51100000000E-03 0. -1.
</event>
<event>
 7    1  0.1086235E+005  0.1043930E+01  0.7957747E-01            NaN
         13   -1    0    0    0    0  0.00000000000E+00  0.00000000000E+00  0.74505805969E-08  0.10566000000E+00  0.10566000000E+00 0.  1.
     999900   -1    0    0    0    0 -0.00000000000E+00 -0.00000000000E+00 -0.74505805969E-08  0.93827000000E+00  0.93827000000E+00 0. -1.
     999902    2    1    2    0    0  0.67928684429E-02 -0.20835180736E-01  0.95688074241E-02  0.10200174532E+01  0.10197371205E+01 0.  0.
         14    1    1    2    0    0 -0.67928684429E-02  0.20835180736E-01 -0.95688074241E-02  0.23912546780E-01  0.00000000000E+00 0.  1.
     999901    1    3    3    0    0  0.76176276226E-01  0.77299844327E-01 -0.76516017153E-02  0.88669985790E+00  0.88000000000E+00 0.  1.
        -11    1    3    3    0    0 -0.61101594351E-01 -0.94636408936E-01 -0.13744650836E-02  0.11265702377E+00  0.51100000000E-03 0. -1.
         11    1    3    3    0    0 -0.82818134319E-02 -0.34986161271E-02  0.18594874223E-01  0.20660571553E-01  0.51100000000E-03 0.  1.
</event>
<event>
 8    1  0.1086235E+005  0.1043930E+01  0.7957747E-01            NaN
         13   -1    0    0    0    0  0.00000000000E+00  0.00000000000E+00  0.74505805969E-08  0.10566000000E+00  0.10566000000E+00 0. -1.
     999900   -1    0    0    0    0 -0.00000000000E+00 -0.00000000000E+00 -0.74505805969E-08  0.93827000000E+00  0.93827000000E+00 0.  1.
     999902    2    1    2    0    0 -0.22672085884E-01 -0.67524479054E-02  0.17734630308E-01  0.10143642065E+01  0.10139332361E+01 0.  0.
     999903    2    3    3    0    0  0.60019314778E-01  0.76338623159E-01  0.75839712614E-01  0.12469112364E+00  0.19139246949E-01 0.  0.
         14    1    1    2    0    0  0.22672085884E-01  0.67524479054E-02 -0.17734630308E-01  0.29565793465E-01  0.00000000000E+00 0. -1.
     999901    1    3    3    0    0 -0.82691400662E-01 -0.83091071064E-01 -0.58105082306E-01  0.88967308289E+00  0.88000000000E+00 0.  1.
        -11    1    4    4    0    0  0.10116410686E-01  0.37495825886E-02  0.67163844252E-02  0.12718965190E-01  0.51100000000E-03 0. -1.
         11    1    4    4    0    0  0.49902904092E-01  0.72589040570E-01  0.69123328188E-01  0.11197215845E+00  0.51100000000E-03 0.  1.
</event>
<event>
 8    1  0.1086235E+005  0.1043930E+01  0.7957747E-01            NaN
         13   -1    0    0    0    0  0.00000000000E+00  0.00000000000E+00  0.74505805969E-08  0.10566000000E+00  0.10566000000E+00 0.  1.
     999900   -1    0    0    0    0 -0.00000000000E+00 -0.00000000000E+00 -0.74505805969E-08  0.93827000000E+00  0.93827000000E+00 0.  1.
     999902    2    1    2    0    0 -0.26206571590E-01 -0.55080052226E-02  0.12941167230E-01  0.10141878359E+01  0.10137516314E+01 0.  0.
     999903    2    3    3    0    0  0.94748262353E-01  0.36237540685E-01 -0.63780203973E-01  0.12163031324E+00  0.20871657975E-01 0.  0.
         14    1    1    2    0    0  0.26206571590E-01  0.55080052226E-02 -0.12941167230E-01  0.29742164099E-01  0.00000000000E+00 0. -1.
     999901    1    3    3    0    0 -0.12095483394E+00 -0.41745545908E-01  0.76721371203E-01  0.89255752266E+00  0.88000000000E+00 0. -1.
        -11    1    4    4    0    0  0.43306096662E-01  0.87973566559E-02 -0.36217574852E-01  0.57138300127E-01  0.51100000000E-03 0. -1.
         11    1    4    4    0    0  0.51442165690E-01  0.27440184029E-01 -0.27562629121E-01  0.64492013114E-01  0.51100000000E-03 0.  1.
</event>
<event>
 8    1  0.1086235E+005  0.1043930E+01  0.7957747E-01            NaN
         13   -1    0    0    0    0  0.00000000000E+00  0.00000000000E+00  0.74505805969E-08  0.10566000000E+00  0.10566000000E+00 0.  1.
     999900   -1    0    0    0    0 -0.00000000000E+00 -0.00000000000E+00 -0.74505805969E-08  0.93827000000E+00  0.93827000000E+00 0.  1.
     999902    2    1    2    0    0  0.15392313012E-01 -0.15816721840E-01 -0.83789912101E-03  0.10218439396E+01  0.10216052285E+01 0.  0.
     999903    2    3    3    0    0 -0.39724828620E-01  0.11472283523E+00 -0.40653120692E-01  0.12961990543E+00  0.20229995790E-01 0.  0.
         14    1    1    2    0    0 -0.15392313012E-01  0.15816721840E-01  0.83789912101E-03  0.22086060413E-01  0.00000000000E+00 0. -1.
     999901    1    3    3    0    0  0.55117141633E-01 -0.13053955707E+00  0.39815221571E-01  0.89222403416E+00  0.88000000000E+00 0. -1.
        -11    1    4    4    0    0 -0.19037001741E-01  0.72829750892E-01 -0.33317972567E-01  0.82322101937E-01  0.51100000000E-03 0.  1.
         11    1    4    4    0    0 -0.20687826879E-01  0.41893084336E-01 -0.73351481254E-02  0.47297803492E-01  0.51100000000E-03 0. -1.
</event>
<event>
 8    1  0.1086235E+005  0.1043930E+01  0.7957747E-01            NaN
         13   -1    0    0    0    0  0.00000000000E+00  0.00000000000E+00  0.74505805969E-08  0.10566000000E+00  0.10566000000E+00 0. -1.
     999900   -1    0    0    0    0 -0.00000000000E+00 -0.00000000000E+00 -0.74505805969E-08  0.93827000000E+00  0.93827000000E+00 0.  1.
     999902    2    1    2    0    0  0.19199940435E-01 -0.19529646772E-01 -0.13133678213E-02  0.10165115801E+01  0.10161417336E+01 0.  0.
     999903    2    3    3    0    0 -0.71928212434E-01 -0.96487481039E-01  0.37937370555E-01  0.12759793469E+00  0.18933755870E-01 0.  0.
         14    1    1    2    0    0 -0.19199940435E-01  0.19529646772E-01  0.13133678213E-02  0.27418419918E-01  0.00000000000E+00 0.  1.
     999901    1    3    3    0    0  0.91128152870E-01  0.76957834267E-01 -0.39250738376E-01  0.88891364539E+00  0.88000000000E+00 0.  1.
        -11    1    4    4    0    0 -0.66272845474E-01 -0.93106886093E-01  0.31918593470E-01  0.11865934441E+00  0.51100000000E-03 0.  1.
         11    1    4    4    0    0 -0.56553669604E-02 -0.33805949463E-02  0.60187770848E-02  0.89385902828E-02  0.51100000000E-03 0. -1.
</event>
<event>
 8    1  0.1086235E+005  0.1043930E+01  0.7957747E-01            NaN
         13   -1    0    0    0    0  0.00000000000E+00  0.00000000000E+00  0.74505805969E-08  0.10566000000E+00  0.10566000000E+00 0.  1.
     999900   -1    0    0    0    0 -0.00000000000E+00 -0.00000000000E+00 -0.74505805969E-08  0.93827000000E+00  0.93827000000E+00 0. -1.
     999902    2    1    2    0    0  0.53886238337E-02 -0.20798311486E-01  0.35243166302E-02  0.10221578197E+01  0.10219259173E+01 0.  0.
     999903    2    3    3    0    0  0.19492781730E-01  0.57555474756E-01 -0.11386720690E+00  0.13079985968E+00  0.21219360744E-01 0.  0.
         14    1    1    2    0    0 -0.53886238337E-02  0.20798311486E-01 -0.35243166302E-02  0.21772180304E-01  0.00000000000E+00 0. -1.
     999901    1    3    3    0    0 -0.14104157896E-01 -0.78353786242E-01  0.11739152353E+00  0.89135796002E+00  0.88000000000E+00 0.  1.
        -11    1    4    4    0    0  0.11349681952E-01  0.47712644358E-01 -0.72735335389E-01  0.87726859326E-01  0.51100000000E-03 0. -1.
         11    1    4    4    0    0  0.81430997785E-02  0.98428303983E-02 -0.41131871513E-01  0.43073000353E-01  0.51100000000E-03 0.  1.
</event>
<event>
 8    1  0.1086235E+005  0.1043930E+01  0.7957747E-01            NaN
         13   -1    0    0    0    0  0.00000000000E+00  0.00000000000E+00  0.74505805969E-08  0.10566000000E+00  0.10566000000E+00 0.  1.
     999900   -1    0    0    0    0 -0.00000000000E+00 -0.00000000000E+00 -0.74505805969E-08  0.93827000000E+00  0.93827000000E+00 0. -1.
     999902    2    1    2    0    0 -0.11372883285E-01 -0.12615361416E-01  0.15882979702E-01  0.10206757775E+01  0.10204108408E+01 0.  0.
     999903    2    3    3    0    0  0.12516137613E+00  0.70532408209E-02  0.26946238730E-01  0.12986106414E+00  0.20559132240E-01 0.  0.
         14    1    1    2    0    0  0.11372883285E-01  0.12615361416E-01 -0.15882979702E-01  0.23254222457E-01  0.00000000000E+00 0. -1.
     999901    1    3    3    0    0 -0.13653425941E+00 -0.19668602237E-01 -0.11063259028E-01  0.89081471340E+00  0.88000000000E+00 0.  1.
        -11    1    4    4    0    0  0.28845262690E-01  0.76267777249E-03 -0.24436471895E-02  0.28963138463E-01  0.51100000000E-03 0. -1.
         11    1    4    4    0    0  0.96316113438E-01  0.62905630484E-02  0.29389885919E-01  0.10089792568E+00  0.51100000000E-03 0.  1.
</event>
<event>
 8    1  0.1086235E+005  0.1043930E+01  0.7957747E-01            NaN
         13   -1    0    0    0    0  0.00000000000E+00  0.00000000000E+00  0.74505805969E-08  0.10566000000E+00  0.10566000000E+00 0. -1.
     999900   -1    0    0    0    0 -0.00000000000E+00 -0.00000000000E+00 -0.74505805969E-08  0.93827000000E+00  0.93827000000E+00 0. -1.
     999902    2    1    2    0    0  0.28211869035E-01 -0.69282735923E-02  0.17550219312E-02  0.10148268965E+01  0.10144095028E+01 0.  0.
     999903    2    3    3    0    0 -0.11581940450E+00 -0.29310219745E-02 -0.33915742740E-01  0.12239572875E+00  0.20191866267E-01 0.  0.
         14    1    1    2    0    0 -0.28211869035E-01  0.69282735923E-02 -0.17550219312E-02  0.29103103467E-01  0.00000000000E+00 0.  1.
     999901    1    3    3    0    0  0.14403127353E+00 -0.39972516178E-02  0.35670764671E-01  0.89243116778E+00  0.88000000000E+00 0.  1.
        -11    1    4    4    0    0 -0.83954720820E-01 -0.54284267332E-02 -0.15637559594E-01  0.85572526875E-01  0.51100000000E-03 0. -1.
         11    1    4    4    0    0 -0.31864683677E-01  0.24974047588E-02 -0.18278183146E-01  0.36823201877E-01  0.51100000000E-03 0.  1.
</event>
<event>
 8    1  0.1086235E+005  0.1043930E+01  0.7957747E-01            NaN
         13   -1    0    0    0    0  0.00000000000E+00  0.00000000000E+00  0.74505805969E-08  0.10566000000E+00  0.10566000000E+00 0.  1.
     999900   -1    0    0    0    0 -0.00000000000E+00 -0.00000000000E+00 -0.74505805969E-08  0.93827000000E+00  0.93827000000E+00 0. -1.
     999902    2    1    2    0    0 -0.10816374308E-01  0.20725570944E-01 -0.54571460985E-02  0.10199232575E+01  0.10196406854E+01 0.  0.
     999903    2    3    3    0    0 -0.34787830035E-01  0.30304052298E-01  0.12055299478E+00  0.13057240790E+00  0.19687570999E-01 0.  0.
         14    1    1    2    0    0  0.10816374308E-01 -0.20725570944E-01  0.54571460985E-02  0.24006742546E-01  0.00000000000E+00 0. -1.
     999901    1    3    3    0    0  0.23971455727E-01 -0.95784813541E-02 -0.12601014087E+00  0.88935084955E+00  0.88000000000E+00 0. -1.
        -11    1    4    4    0    0 -0.28391668471E-01  0.28394221435E-01  0.80460573900E-01  0.89924878219E-01  0.51100000000E-03 0. -1.
         11    1    4    4    0    0 -0.63961615639E-02  0.19098308638E-02  0.40092420876E-01  0.40647529683E-01  0.51100000000E-03 0.  1.
</event>
<event>
 8    1  0.1086235E+005  0.1043930E+01  0.7957747E-01            NaN
         13   -1    0    0    0    0  0.00000000000E+00  0.00000000000E+00  0.74505805969E-08  0.10566000000E+00  0.10566000000E+00 0. -1.
     999900   -1    0    0    0    0 -0.00000000000E+00 -0.00000000000E+00 -0.74505805969E-08  0.93827000000E+00  0.93827000000E+00 0. -1.
     999902    2    1    2    0    0 -0.13678185106E-01  0.19904990885E-01  0.43262216747E-02  0.10193939530E+01  0.10190986281E+01 0.  0.
     999903    2    3    3    0    0 -0.82488859464E-01 -0.61652144630E-01 -0.75679890787E-01  0.12934482326E+00  0.19930844499E-01 0.  0.
         14    1    1    2    0    0  0.13678185106E-01 -0.19904990885E-01 -0.43262216747E-02  0.24536047031E-01  0.00000000000E+00 0.  1.
     999901    1    3    3    0    0  0.68810674358E-01  0.81557135515E-01  0.80006112462E-01  0.89004912971E+00  0.88000000000E+00 0.  1.
        -11    1    4    4    0    0 -0.62534183814E-01 -0.55310735045E-01 -0.65171427402E-01  0.10591212219E+00  0.51100000000E-03 0.  1.
         11    1    4    4    0    0 -0.19954675650E-01 -0.63414095848E-02 -0.10508463385E-01  0.23432701072E-01  0.51100000000E-03 0. -1.
</event>
<event>
 8    1  0.1086235E+005  0.1043930E+01  0.7957747E-01            NaN
         13   -1    0    0    0    0  0.00000000000E+00  0.00000000000E+00  0.74505805969E-08  0.10566000000E+00  0.10566000000E+00 0.  1.
     999900   -1    0    0    0    0 -0.00000000000E+00 -0.00000000000E+00 -0.74505805969E-08  0.93827000000E+00  0.93827000000E+00 0.  1.
     999902    2    1    2    0    0 -0.20770898492E-01 -0.34336619352E-02 -0.11894413156E-01  0.10197494846E+01  0.10194627576E+01 0.  0.
     999903    2    3    3    0    0 -0.34391504192E-01  0.42087604704E-01 -0.11856242272E+00  0.13203569582E+00  0.20548354171E-01 0.  0.
         14    1    1    2    0    0  0.20770898492E-01  0.34336619352E-02  0.11894413156E-01  0.24180515354E-01  0.00000000000E+00 0. -1.
     999901    1    3    3    0    0  0.13620605699E-01 -0.45521266639E-01  0.10666800956E+00  0.88771378883E+00  0.88000000000E+00 0. -1.
        -11    1    4    4    0    0 -0.32663144455E-01  0.26814798975E-01 -0.93876393019E-01  0.10295121533E+00  0.51100000000E-03 0. -1.
         11    1    4    4    0    0 -0.17283597368E-02  0.15272805729E-01 -0.24686029697E-01  0.29084480491E-01  0.51100000000E-03 0.  1.
</event>
<event>
 8    1  0.1086235E+005  0.1043930E+01  0.7957747E-01            NaN
         13   -1    0    0    0    0  0.00000000000E+00  0.00000000000E+00  0.74505805969E-08  0.10566000000E+00  0.10566000000E+00 0. -1.
     999900   -1    0    0    0    0 -0.00000000000E+00 -0.00000000000E+00 -0.74505805969E-08  0.93827000000E+00  0.93827000000E+00 0. -1.
     999902    2    1    2    0    0  0.21241743035E-01  0.97046996776E-02  0.18445935023E-02  0.10205036181E+01  0.10202346981E+01 0.  0.
     999903    2    3    3    0    0 -0.10203168891E+00  0.94048164504E-02 -0.75215792194E-01  0.12857608070E+00  0.19377229404E-01 0.  0.
         14    1    1    2    0    0 -0.21241743035E-01 -0.97046996776E-02 -0.18445935023E-02  0.23426381884E-01  0.00000000000E+00 0.  1.
     999901    1    3    3    0    0  0.12327343194E+00  0.29988322721E-03  0.77060385696E-01  0.89192753741E+00  0.88000000000E+00 0.  1.
        -11    1    4    4    0    0 -0.34292807290E-01  0.18068630472E-02 -0.36776395990E-01  0.50319238954E-01  0.51100000000E-03 0.  1.
         11    1    4    4    0    0 -0.67738881619E-01  0.75979534032E-02 -0.38439396203E-01  0.78256841748E-01  0.51100000000E-03 0. -1.
</event>
<event>
 8    1  0.1086235E+005  0.1043930E+01  0.7957747E-01            NaN
         13   -1    0    0    0    0  0.00000000000E+00  0.00000000000E+00  0.74505805969E-08  0.10566000000E+00  0.10566000000E+00 0.  1.
     999900   -1    0    0    0    0 -0.00000000000E+00 -0.00000000000E+00 -0.74505805969E-08  0.93827000000E+00  0.93827000000E+00 0. -1.
     999902    2    1    2    0    0  0.21172931997E-01  0.31325977591E-02 -0.97536333784E-02  0.10204089545E+01  0.10201378313E+01 0.  0.
     999903    2    3    3    0    0 -0.12293629524E-02  0.41790500358E-01 -0.12357461550E+00  0.13195439052E+00  0.19832254779E-01 0.  0.
         14    1    1    2    0    0 -0.21172931997E-01 -0.31325977591E-02  0.97536333784E-02  0.23521045515E-01  0.00000000000E+00 0.  1.
     999901    1    3    3    0    0  0.22402294949E-01 -0.38657902598E-01  0.11382098212E+00  0.88845456396E+00  0.88000000000E+00 0.  1.
        -11    1    4    4    0    0  0.44288974291E-02  0.16056536711E-01 -0.25986424975E-01  0.30870421241E-01  0.51100000000E-03 0.  1.
         11    1    4    4    0    0 -0.56582603815E-02  0.25733963647E-01 -0.97588190523E-01  0.10108396928E+00  0.51100000000E-03 0. -1.
</event>
<event>
 8    1  0.1086235E+005  0.1043930E+01  0.7957747E-01            NaN
         13   -1    0    0    0    0  0.00000000000E+00  0.00000000000E+00  0.74505805969E-08  0.10566000000E+00  0.10566000000E+00 0. -1.
     999900   -1    0    0    0    0 -0.00000000000E+00 -0.00000000000E+00 -0.74505805969E-08  0.93827000000E+00  0.93827000000E+00 0.  1.
     999902    2    1    2    0    0  0.96266170170E-02 -0.19177770859E-01 -0.99811541028E-02  0.10202639465E+01  0.10199894306E+01 0.  0.
     999903    2    3    3    0    0  0.16654226310E-01  0.86988086979E-01  0.89808022368E-01  0.12825584319E+00  0.23233378997E-01 0.  0.
         14    1    1    2    0    0 -0.96266170170E-02  0.19177770859E-01  0.99811541028E-02  0.23666053485E-01  0.00000000000E+00 0. -1.
     999901    1    3    3    0    0 -0.70276092927E-02 -0.10616585784E+00 -0.99789176471E-01  0.89200810333E+00  0.88000000000E+00 0.  1.
        -11    1    4    4    0    0 -0.43408733375E-02  0.15186631950E-01  0.23319188106E-01  0.28169533653E-01  0.51100000000E-03 0. -1.
         11    1    4    4    0    0  0.20995099647E-01  0.71801455029E-01  0.66488834262E-01  0.10008630953E+00  0.51100000000E-03 0.  1.
</event>
<event>
 8    1  0.1086235E+005  0.1043930E+01  0.7957747E-01            NaN
         13   -1    0    0    0    0  0.00000000000E+00  0.00000000000E+00  0.74505805969E-08  0.10566000000E+00  0.10566000000E+00 0. -1.
     999900   -1    0    0    0    0 -0.00000000000E+00 -0.00000000000E+00 -0.74505805969E-08  0.93827000000E+00  0.93827000000E+00 0.  1.
     999902    2    1    2    0    0 -0.16883047338E-01  0.16803088247E-01  0.20404000586E-02  0.10200230074E+01  0.10197428065E+01 0.  0.
     999903    2    3    3    0    0 -0.57436869372E-01 -0.51053569638E-01  0.10374249228E+00  0.13064544189E+00  0.20006645036E-01 0.  0.
         14    1    1    2    0    0  0.16883047338E-01 -0.16803088247E-01 -0.20404000586E-02  0.23906992585E-01  0.00000000000E+00 0.  1.
     999901    1    3    3    0    0  0.40553822034E-01  0.67856657885E-01 -0.10170209222E+00  0.88937756553E+00  0.88000000000E+00 0.  1.
        -11    1    4    4    0    0 -0.22932544157E-01 -0.94801863135E-02  0.25728894305E-01  0.35749302611E-01  0.51100000000E-03 0. -1.
         11    1    4    4    0    0 -0.34504325215E-01 -0.41573383324E-01  0.78013597975E-01  0.94896139277E-01  0.51100000000E-03 0.  1.
</event>
<event>
 8    1  0.1086235E+005  0.1043930E+01  0.7957747E-01            NaN
         13   -1    0    0    0    0  0.00000000000E+00  0.00000000000E+00  0.74505805969E-08  0.10566000000E+00  0.10566000000E+00 0.  1.
     999900   -1    0    0    0    0 -0.00000000000E+00 -0.00000000000E+00 -0.74505805969E-08  0.93827000000E+00  0.93827000000E+00 0.  1.
     999902    2    1    2    0    0  0.15806680080E-01 -0.15494363898E-01  0.32135653431E-02  0.10215636536E+01  0.10213187773E+01 0.  0.
     999903    2    3    3    0    0 -0.11995492230E-01  0.78253819059E-01  0.10173255409E+00  0.13068337338E+00  0.21472761458E-01 0.  0.
         14    1    1    2    0    0 -0.15806680080E-01  0.15494363898E-01 -0.32135653431E-02  0.22366346371E-01  0.00000000000E+00 0. -1.
     999901    1    3    3    0    0  0.27802172310E-01 -0.93748182958E-01 -0.98518988749E-01  0.89088028025E+00  0.88000000000E+00 0.  1.
        -11    1    4    4    0    0  0.49700474563E-02  0.11639703393E-01  0.22203492650E-01  0.25562477846E-01  0.51100000000E-03 0. -1.
         11    1    4    4    0    0 -0.16965539686E-01  0.66614115667E-01  0.79529061442E-01  0.10512089553E+00  0.51100000000E-03 0.  1.
</event>
<event>
 8    1  0.1086235E+005  0.1043930E+01  0.7957747E-01            NaN
         13   -1    0    0    0    0  0.00000000000E+00  0.00000000000E+00  0.74505805969E-08  0.10566000000E+00  0.10566000000E+00 0.  1.
     999900   -1    0    0    0    0 -0.00000000000E+00 -0.00000000000E+00 -0.74505805969E-08  0.93827000000E+00  0.93827000000E+00 0.  1.
     999902    2    1    2    0    0  0.15983784702E-01 -0.13242476445E-01 -0.10970929352E-01  0.10204522265E+01  0.10201821116E+01 0.  0.
     999903    2    3    3    0    0  0.33070809823E-01  0.58362021528E-02  0.12400954416E+00  0.12979197109E+00  0.18434993861E-01 0.  0.
         14    1    1    2    0    0 -0.15983784702E-01  0.13242476445E-01  0.10970929352E-01  0.23477773460E-01  0.00000000000E+00 0. -1.
     999901    1    3    3    0    0 -0.17087025121E-01 -0.19078678598E-01 -0.13498047351E+00  0.89066025545E+00  0.88000000000E+00 0.  1.
        -11    1    4    4    0    0  0.18340407568E-01  0.68110835379E-02  0.97499582219E-01  0.99444411923E-01  0.51100000000E-03 0.  1.
         11    1    4    4    0    0  0.14730402255E-01 -0.97488138514E-03  0.26509961944E-01  0.30347559170E-01  0.51100000000E-03 0. -1.
</event>
<event>
 8    1  0.1086235E+005  0.1043930E+01  0.7957747E-01            NaN
         13   -1    0    0    0    0  0.00000000000E+00  0.00000000000E+00  0.74505805969E-08  0.10566000000E+00  0.10566000000E+00 0. -1.
     999900   -1    0    0    0    0 -0.00000000000E+00 -0.00000000000E+00 -0.74505805969E-08  0.93827000000E+00  0.93827000000E+00 0. -1.
     999902    2    1    2    0    0  0.45183416241E-02 -0.17524070179E-01 -0.15145496170E-01  0.10203313877E+01  0.10200584524E+01 0.  0.
     999903    2    3    3    0    0  0.83821297543E-01  0.93751063651E-01 -0.23292862301E-01  0.12974871678E+00  0.21838045123E-01 0.  0.
         14    1    1    2    0    0 -0.45183416241E-02  0.17524070179E-01  0.15145496170E-01  0.23598612266E-01  0.00000000000E+00 0. -1.
     999901    1    3    3    0    0 -0.79302955919E-01 -0.11127513383E+00  0.81473661309E-02  0.89058267095E+00  0.88000000000E+00 0.  1.
        -11    1    4    4    0    0  0.55225066555E-01  0.62315099930E-01 -0.48129082811E-02  0.83405064969E-01  0.51100000000E-03 0. -1.
         11    1    4    4    0    0  0.28596230988E-01  0.31435963721E-01 -0.18479954020E-01  0.46343651812E-01  0.51100000000E-03 0.  1.
</event>
<event>
 8    1  0.1086235E+005  0.1043930E+01  0.7957747E-01            NaN
         13   -1    0    0    0    0  0.00000000000E+00  0.00000000000E+00  0.74505805969E-08  0.10566000000E+00  0.10566000000E+00 0.  1.
     999900   -1    0    0    0    0 -0.00000000000E+00 -0.00000000000E+00 -0.74505805969E-08  0.93827000000E+00  0.93827000000E+00 0. -1.
     999902    2    1    2    0    0 -0.50922214991E-02  0.20419870666E-01  0.30478872962E-02  0.10226652062E+01  0.10224440975E+01 0.  0.
     999903    2    3    3    0    0  0.92004575197E-01 -0.86274304205E-01  0.28988268278E-01  0.13054170678E+00  0.17109064488E-01 0.  0.
         14    1    1    2    0    0  0.50922214991E-02 -0.20419870666E-01 -0.30478872962E-02  0.21264793786E-01  0.00000000000E+00 0.  1.
     999901    1    3    3    0    0 -0.97096796696E-01  0.10669417487E+00 -0.25940380981E-01  0.89212349944E+00  0.88000000000E+00 0. -1.
        -11    1    4    4    0    0  0.75121587774E-01 -0.78610492719E-01  0.24843076612E-01  0.11153610219E+00  0.51100000000E-03 0.  1.
         11    1    4    4    0    0  0.16882987423E-01 -0.76638114854E-02  0.41451916660E-02  0.19005604588E-01  0.51100000000E-03 0. -1.
</event>
<event>
 8    1  0.1086235E+005  0.1043930E+01  0.7957747E-01            NaN
         13   -1    0    0    0    0  0.00000000000E+00  0.00000000000E+00  0.74505805969E-08  0.10566000000E+00  0.10566000000E+00 0. -1.
     999900   -1    0    0    0    0 -0.00000000000E+00 -0.00000000000E+00 -0.74505805969E-08  0.93827000000E+00  0.93827000000E+00 0.  1.
     999902    2    1    2    0    0 -0.15551069180E-01  0.17681762788E-01 -0.38965029408E-02  0.10200623813E+01  0.10197831135E+01 0.  0.
     999903    2    3    3    0    0  0.76231881779E-01 -0.67473504644E-01 -0.74588851220E-01  0.12839375575E+00  0.23611144843E-01 0.  0.
         14    1    1    2    0    0  0.15551069180E-01 -0.17681762788E-01  0.38965029408E-02  0.23867618715E-01  0.00000000000E+00 0.  1.
     999901    1    3    3    0    0 -0.91782950960E-01  0.85155267432E-01  0.70692348279E-01  0.89166862554E+00  0.88000000000E+00 0.  1.
        -11    1    4    4    0    0  0.15873913665E-01 -0.27987524491E-01 -0.26711879137E-01  0.41821863543E-01  0.51100000000E-03 0. -1.
         11    1    4    4    0    0  0.60357968114E-01 -0.39485980154E-01 -0.47876972083E-01  0.86571892207E-01  0.51100000000E-03 0.  1.
</event>
<event>
 8    1  0.1086235E+005  0.1043930E+01  0.7957747E-01            NaN
         13   -1    0    0    0    0  0.00000000000E+00  0.00000000000E+00  0.74505805969E-08  0.10566000000E+00  0.10566000000E+00 0.  1.
     999900   -1    0    0    0    0 -0.00000000000E+00 -0.00000000000E+00 -0.74505805969E-08  0.93827000000E+00  0.93827000000E+00 0.  1.
     999902    2    1    2    0    0 -0.23013230474E-01  0.82398426462E-02 -0.49900035866E-03  0.10194810167E+01  0.10191878093E+01 0.  0.
     999903    2    3    3    0    0  0.11769352923E+00  0.21310430085E-02 -0.46479589956E-01  0.12709661281E+00  0.11699937536E-01 0.  0.
         14    1    1    2    0    0  0.23013230474E-01 -0.82398426462E-02  0.49900035866E-03  0.24448983313E-01  0.00000000000E+00 0. -1.
     999901    1    3    3    0    0 -0.14070675971E+00  0.61087996377E-02  0.45980589597E-01  0.89238440388E+00  0.88000000000E+00 0. -1.
        -11    1    4    4    0    0  0.57188219184E-01  0.20206316901E-02 -0.28766953302E-01  0.64049778213E-01  0.51100000000E-03 0.  1.
         11    1    4    4    0    0  0.60505310048E-01  0.11041131844E-03 -0.17712636654E-01  0.63046834598E-01  0.51100000000E-03 0. -1.
</event>
<event>
 8    1  0.1086235E+005  0.1043930E+01  0.7957747E-01            NaN
         13   -1    0    0    0    0  0.00000000000E+00  0.00000000000E+00  0.74505805969E-08  0.10566000000E+00  0.10566000000E+00 0.  1.
     999900   -1    0    0    0    0 -0.00000000000E+00 -0.00000000000E+00 -0.74505805969E-08  0.93827000000E+00  0.93827000000E+00 0. -1.
     999902    2    1    2    0    0 -0.14293699953E-01  0.19009303764E-01 -0.38716829130E-02  0.10198332488E+01  0.10195485285E+01 0.  0.
     999903    2    3    3    0    0 -0.43525146171E-02 -0.96570582700E-01  0.81667098104E-01  0.12810771911E+00  0.19931155390E-01 0.  0.
         14    1    1    2    0    0  0.14293699953E-01 -0.19009303764E-01  0.38716829130E-02  0.24096751161E-01  0.00000000000E+00 0. -1.
     999901    1    3    3    0    0 -0.99411853357E-02  0.11557988646E+00 -0.85538781017E-01  0.89172552973E+00  0.88000000000E+00 0. -1.
        -11    1    4    4    0    0  0.70760069746E-02 -0.56324186014E-01  0.49737082714E-01  0.75475309358E-01  0.51100000000E-03 0. -1.
         11    1    4    4    0    0 -0.11428521592E-01 -0.40246396686E-01  0.31930015390E-01  0.52632409747E-01  0.51100000000E-03 0.  1.
</event>
<event>
 8    1  0.1086235E+005  0.1043930E+01  0.7957747E-01            NaN
         13   -1    0    0    0    0  0.00000000000E+00  0.00000000000E+00  0.74505805969E-08  0.10566000000E+00  0.10566000000E+00 0. -1.
     999900   -1    0    0    0    0 -0.00000000000E+00 -0.00000000000E+00 -0.74505805969E-08  0.93827000000E+00  0.93827000000E+00 0. -1.
     999902    2    1    2    0    0  0.13303149741E-01  0.31640152541E-02 -0.18763568672E-01  0.10207124141E+01  0.10204483211E+01 0.  0.
     999903    2    3    3    0    0 -0.10315878130E-01 -0.72085038894E-01  0.10319943749E+00  0.12880700796E+00  0.25267592459E-01 0.  0.
         14    1    1    2    0    0 -0.13303149741E-01 -0.31640152541E-02  0.18763568672E-01  0.23217585896E-01  0.00000000000E+00 0. -1.
     999901    1    3    3    0    0  0.23619027871E-01  0.75249054148E-01 -0.12196300616E+00  0.89190540614E+00  0.88000000000E+00 0. -1.
        -11    1    4    4    0    0 -0.14595426235E-01 -0.26680268799E-01  0.31162233249E-01  0.43545483258E-01  0.51100000000E-03 0. -1.
         11    1    4    4    0    0  0.42795481047E-02 -0.45404770095E-01  0.72037204242E-01  0.85261524707E-01  0.51100000000E-03 0.  1.
</event>
<event>
 8    1  0.1086235E+005  0.1043930E+01  0.7957747E-01            NaN
         13   -1    0    0    0    0  0.00000000000E+00  0.00000000000E+00  0.74505805969E-08  0.10566000000E+00  0.10566000000E+00 0.  1.
     999900   -1    0    0    0    0 -0.00000000000E+00 -0.00000000000E+00 -0.74505805969E-08  0.93827000000E+00  0.93827000000E+00 0.  1.
     999902    2    1    2    0    0 -0.10505708335E-01  0.11318145078E-01  0.18667085257E-01  0.10197033538E+01  0.10194155185E+01 0.  0.
     999903    2    3    3    0    0  0.41952883561E-03  0.12983233628E+00 -0.48690615625E-02  0.13137969399E+00  0.19501402111E-01 0.  0.
         14    1    1    2    0    0  0.10505708335E-01 -0.11318145078E-01 -0.18667085257E-01  0.24226646231E-01  0.00000000000E+00 0. -1.
     999901    1    3    3    0    0 -0.10925237171E-01 -0.11851419120E+00  0.23536146819E-01  0.88832365978E+00  0.88000000000E+00 0.  1.
        -11    1    4    4    0    0  0.37868326495E-02  0.12320465293E+00 -0.16825423486E-02  0.12327537741E+00  0.51100000000E-03 0. -1.
         11    1    4    4    0    0 -0.33673038138E-02  0.66276833401E-02 -0.31865192138E-02  0.81043165740E-02  0.51100000000E-03 0.  1.
</event>
<event>
 8    1  0.1086235E+005  0.1043930E+01  0.7957747E-01            NaN
         13   -1    0    0    0    0  0.00000000000E+00  0.00000000000E+00  0.74505805969E-08  0.10566000000E+00  0.10566000000E+00 0.  1.
     999900   -1    0    0    0    0 -0.00000000000E+00 -0.00000000000E+00 -0.74505805969E-08  0.93827000000E+00  0.93827000000E+00 0. -1.
     999902    2    1    2    0    0 -0.14779670138E-01  0.15104553045E-01 -0.14395738184E-01  0.10183600284E+01  0.10180389599E+01 0.  0.
     999903    2    3    3    0    0 -0.10671263564E+00 -0.39854186844E-01 -0.60730223301E-01  0.13065567569E+00  0.20169351824E-01 0.  0.
         14    1    1    2    0    0  0.14779670138E-01 -0.15104553045E-01  0.14395738184E-01  0.25569971645E-01  0.00000000000E+00 0.  1.
     999901    1    3    3    0    0  0.91932965500E-01  0.54958739888E-01  0.46334485117E-01  0.88770435267E+00  0.88000000000E+00 0.  1.
        -11    1    4    4    0    0 -0.53667140013E-01 -0.29634605198E-01 -0.27183672419E-01  0.67064035888E-01  0.51100000000E-03 0.  1.
         11    1    4    4    0    0 -0.53045495625E-01 -0.10219581646E-01 -0.33546550882E-01  0.63591639798E-01  0.51100000000E-03 0. -1.
</event>
<event>
 8    1  0.1086235E+005  0.1043930E+01  0.7957747E-01            NaN
         13   -1    0    0    0    0  0.00000000000E+00  0.00000000000E+00  0.74505805969E-08  0.10566000000E+00  0.10566000000E+00 0.  1.
     999900   -1    0    0    0    0 -0.00000000000E+00 -0.00000000000E+00 -0.74505805969E-08  0.93827000000E+00  0.93827000000E+00 0. -1.
     999902    2    1    2    0    0  0.90958211312E-03  0.20528050855E-01  0.11010226556E-01  0.10206179151E+01  0.10203516430E+01 0.  0.
     999903    2    3    3    0    0 -0.56164092619E-01  0.10656554351E+00 -0.51200625206E-01  0.13240057430E+00  0.19944615584E-01 0.  0.
         14    1    1    2    0    0 -0.90958211312E-03 -0.20528050855E-01 -0.11010226556E-01  0.23312084856E-01  0.00000000000E+00 0.  1.
     999901    1    3    3    0    0  0.57073674732E-01 -0.86037492658E-01  0.62210851762E-01  0.88821734084E+00  0.88000000000E+00 0.  1.
        -11    1    4    4    0    0 -0.30259435062E-01  0.56041860183E-01 -0.37789756476E-01  0.74058425034E-01  0.51100000000E-03 0.  1.
         11    1    4    4    0    0 -0.25904657558E-01  0.50523683330E-01 -0.13410868729E-01  0.58342149270E-01  0.51100000000E-03 0. -1.
</event>
<event>
 8    1  0.1086235E+005  0.1043930E+01  0.7957747E-01            NaN
         13   -1    0    0    0    0  0.00000000000E+00  0.00000000000E+00  0.74505805969E-08  0.10566000000E+00  0.10566000000E+00 0. -1.
     999900   -1    0    0    0    0 -0.00000000000E+00 -0.00000000000E+00 -0.74505805969E-08  0.93827000000E+00  0.93827000000E+00 0. -1.
     999902    2    1    2    0    0 -0.14494066060E-01  0.17452502605E-01 -0.72230801003E-02  0.10201215838E+01  0.10198437159E+01 0.  0.
     999903    2    3    3    0    0  0.18428174260E-02 -0.12144248834E+00  0.35341882758E-01  0.12806189498E+00  0.19978145996E-01 0.  0.
         14    1    1    2    0    0  0.14494066060E-01 -0.17452502605E-01  0.72230801003E-02  0.23808416249E-01  0.00000000000E+00 0. -1.
     999901    1    3    3    0    0 -0.16336883486E-01  0.13889499095E+00 -0.42564962858E-01  0.89205968877E+00  0.88000000000E+00 0. -1.
        -11    1    4    4    0    0  0.10873176042E-01 -0.65343072699E-01  0.17838473594E-01  0.68603318929E-01  0.51100000000E-03 0.  1.
         11    1    4    4    0    0 -0.90303586159E-02 -0.56099415644E-01  0.17503409164E-01  0.59458576048E-01  0.51100000000E-03 0. -1.
</event>
<event>
 8    1  0.1086235E+005  0.1043930E+01  0.7957747E-01            NaN
         13   -1    0    0    0    0  0.00000000000E+00  0.00000000000E+00  0.74505805969E-08  0.10566000000E+00  0.10566000000E+00 0. -1.
     999900   -1    0    0    0    0 -0.00000000000E+00 -0.00000000000E+00 -0.74505805969E-08  0.93827000000E+00  0.93827000000E+00 0.  1.
     999902    2    1    2    0    0  0.55955189419E-02 -0.17139705234E-01  0.14924720399E-01  0.10205243040E+01  0.10202558642E+01 0.  0.
     999903    2    3    3    0    0  0.96509755185E-01 -0.80547107069E-01 -0.35817637134E-01  0.13212085744E+00  0.19262620205E-01 0.  0.
         14    1    1    2    0    0 -0.55955189419E-02  0.17139705234E-01 -0.14924720399E-01  0.23405696032E-01  0.00000000000E+00 0. -1.
     999901    1    3    3    0    0 -0.90914236243E-01  0.63407401835E-01  0.50742357533E-01  0.88840344653E+00  0.88000000000E+00 0. -1.
        -11    1    4    4    0    0  0.90569218628E-01 -0.68083241013E-01 -0.33067637412E-01  0.11803321920E+00  0.51100000000E-03 0.  1.
         11    1    4    4    0    0  0.59405365573E-02 -0.12463866056E-01 -0.27499997216E-02  0.14087638238E-01  0.51100000000E-03 0. -1.
</event>
<event>
 8    1  0.1086235E+005  0.1043930E+01  0.7957747E-01            NaN
         13   -1    0    0    0    0  0.00000000000E+00  0.00000000000E+00  0.74505805969E-08  0.10566000000E+00  0.10566000000E+00 0. -1.
     999900   -1    0    0    0    0 -0.00000000000E+00 -0.00000000000E+00 -0.74505805969E-08  0.93827000000E+00  0.93827000000E+00 0. -1.
     999902    2    1    2    0    0 -0.11722886397E-01 -0.11901859089E-01  0.16976165349E-01  0.10201125588E+01  0.10198344778E+01 0.  0.
     999903    2    3    3    0    0 -0.80799925274E-01 -0.60407674029E-01 -0.80871075324E-01  0.13067535816E+00  0.18926262164E-01 0.  0.
         14    1    1    2    0    0  0.11722886397E-01  0.11901859089E-01 -0.16976165349E-01  0.23817441198E-01  0.00000000000E+00 0.  1.
     999901    1    3    3    0    0  0.69077038877E-01  0.48505814941E-01  0.97847240673E-01  0.88943720064E+00  0.88000000000E+00 0.  1.
        -11    1    4    4    0    0 -0.38503238238E-01 -0.40533456740E-01 -0.43855889943E-01  0.71056742634E-01  0.51100000000E-03 0.  1.
         11    1    4    4    0    0 -0.42296687036E-01 -0.19874217290E-01 -0.37015185381E-01  0.59618615523E-01  0.51100000000E-03 0. -1.
</event>
<event>
 8    1  0.1086235E+005  0.1043930E+01  0.7957747E-01            NaN
         13   -1    0    0    0    0  0.00000000000E+00  0.00000000000E+00  0.74505805969E-08  0.10566000000E+00  0.10566000000E+00 0.  1.
     999900   -1    0    0    0    0 -0.00000000000E+00 -0.00000000000E+00 -0.74505805969E-08  0.93827000000E+00  0.93827000000E+00 0.  1.
     999902    2    1    2    0    0  0.73794657431E-02 -0.44092468474E-02 -0.26058069649E-01  0.10164905946E+01  0.10161201740E+01 0.  0.
     999903    2    3    3    0    0 -0.91287030773E-01  0.46942226821E-01 -0.74176032210E-01  0.12818468467E+00  0.19807447644E-01 0.  0.
         14    1    1    2    0    0 -0.73794657431E-02  0.44092468474E-02  0.26058069649E-01  0.27439405356E-01  0.00000000000E+00 0.  1.
     999901    1    3    3    0    0  0.98666496516E-01 -0.51351473669E-01  0.48117962560E-01  0.88830590998E+00  0.88000000000E+00 0.  1.
        -11    1    4    4    0    0 -0.48907975179E-01  0.33257304863E-01 -0.50350854341E-01  0.77675659100E-01  0.51100000000E-03 0.  1.
         11    1    4    4    0    0 -0.42379055594E-01  0.13684921958E-01 -0.23825177869E-01  0.50509025565E-01  0.51100000000E-03 0. -1.
</event>
<event>
 8    1  0.1086235E+005  0.1043930E+01  0.7957747E-01            NaN
         13   -1    0    0    0    0  0.00000000000E+00  0.00000000000E+00  0.74505805969E-08  0.10566000000E+00  0.10566000000E+00 0. -1.
     999900   -1    0    0    0    0 -0.00000000000E+00 -0.00000000000E+00 -0.74505805969E-08  0.93827000000E+00  0.93827000000E+00 0. -1.
     999902    2    1    2    0    0 -0.87164886014E-02  0.14418815264E-01 -0.15916514662E-01  0.10207521044E+01  0.10204889239E+01 0.  0.
     999903    2    3    3    0    0 -0.89813218030E-01 -0.85540655230E-01 -0.28550471185E-01  0.13129823140E+00  0.32256446408E-01 0.  0.
         14    1    1    2    0    0  0.87164886014E-02 -0.14418815264E-01  0.15916514662E-01  0.23177895637E-01  0.00000000000E+00 0. -1.
     999901    1    3    3    0    0  0.81096729428E-01  0.99959470494E-01  0.12633956523E-01  0.88945387296E+00  0.88000000000E+00 0.  1.
        -11    1    4    4    0    0 -0.45003584940E-01 -0.57194596257E-01 -0.28805867385E-01  0.78272495906E-01  0.51100000000E-03 0. -1.
         11    1    4    4    0    0 -0.44809633090E-01 -0.28346058973E-01  0.25539620005E-03  0.53025735498E-01  0.51100000000E-03 0.  1.
</event>
<event>
 8    1  0.1086235E+005  0.1043930E+01  0.7957747E-01            NaN
         13   -1    0    0    0    0  0.00000000000E+00  0.00000000000E+00  0.74505805969E-08  0.10566000000E+00  0.10566000000E+00 0.  1.
     999900   -1    0    0    0    0 -0.00000000000E+00 -0.00000000000E+00 -0.74505805969E-08  0.93827000000E+00  0.93827000000E+00 0.  1.
     999902    2    1    2    0    0  0.63993395877E-02  0.22556428832E-01 -0.47024418502E-02  0.10200164685E+01  0.10197361125E+01 0.  0.
     999903    2    3    3    0    0 -0.95025698659E-01 -0.82179845847E-01  0.12586162537E-01  0.12785301855E+00  0.20113985055E-01 0.  0.
         14    1    1    2    0    0 -0.63993395877E-02 -0.22556428832E-01  0.47024418502E-02  0.23913531486E-01  0.00000000000E+00 0.  1.
     999901    1    3    3    0    0  0.10142503825E+00  0.10473627468E+00 -0.17288604387E-01  0.89216344997E+00  0.88000000000E+00 0.  1.
        -11    1    4    4    0    0 -0.45256201847E-01 -0.34179201030E-01 -0.36255669189E-02  0.56830867010E-01  0.51100000000E-03 0.  1.
         11    1    4    4    0    0 -0.49769496813E-01 -0.48000644817E-01  0.16211729456E-01  0.71022151536E-01  0.51100000000E-03 0. -1.
</event>
<event>
 8    1  0.1086235E+005  0.1043930E+01  0.7957747E-01            NaN
         13   -1    0    0    0    0  0.00000000000E+00  0.00000000000E+00  0.74505805969E-08  0.10566000000E+00  0.10566000000E+00 0.  1.
     999900   -1    0    0    0    0 -0.00000000000E+00 -0.00000000000E+00 -0.74505805969E-08  0.93827000000E+00  0.93827000000E+00 0.  1.
     999902    2    1    2    0    0  0.11213582968E-01 -0.80204635197E-02  0.20971858112E-01  0.10188323684E+01  0.10185231975E+01 0.  0.
     999903    2    3    3    0    0  0.11938988444E-01  0.97921264177E-01 -0.77539345749E-01  0.12702037413E+00  0.19766433210E-01 0.  0.
         14    1    1    2    0    0 -0.11213582968E-01  0.80204635197E-02 -0.20971858112E-01  0.25097631576E-01  0.00000000000E+00 0. -1.
     999901    1    3    3    0    0 -0.72540547602E-03 -0.10594172770E+00  0.98511203861E-01  0.89181199429E+00  0.88000000000E+00 0. -1.
        -11    1    4    4    0    0  0.30337258302E-02  0.48611096271E-01 -0.50159753548E-01  0.69917838711E-01  0.51100000000E-03 0.  1.
         11    1    4    4    0    0  0.89052626135E-02  0.49310167906E-01 -0.27379592201E-01  0.57102535419E-01  0.51100000000E-03 0. -1.
</event>
<event>
 8    1  0.1086235E+005  0.1043930E+01  0.7957747E-01            NaN
         13   -1    0    0    0    0  0.00000000000E+00  0.00000000000E+00  0.74505805969E-08  0.10566000000E+00  0.10566000000E+00 0.  1.
     999900   -1    0    0    0    0 -0.00000000000E+00 -0.00000000000E+00 -0.74505805969E-08  0.93827000000E+00  0.93827000000E+00 0.  1.
     999902    2    1    2    0    0 -0.12444064496E-01 -0.14077841529E-01 -0.15607552501E-01  0.10195038653E+01  0.10192112123E+01 0.  0.
     999903    2    3    3    0    0 -0.10857823913E+00  0.66883848354E-01 -0.19264714020E-01  0.13056632550E+00  0.20340918482E-01 0.  0.
         14    1    1    2    0    0  0.12444064496E-01  0.14077841529E-01  0.15607552501E-01  0.24426134740E-01  0.00000000000E+00 0.  1.
     999901    1    3    3    0    0  0.96134174638E-01 -0.80961689882E-01  0.36571615185E-02  0.88893753976E+00  0.88000000000E+00 0.  1.
        -11    1    4    4    0    0 -0.36395954330E-01  0.25119361085E-01 -0.16249165556E-01  0.47116284819E-01  0.51100000000E-03 0. -1.
         11    1    4    4    0    0 -0.72182284803E-01  0.41764487269E-01 -0.30155484639E-02  0.83450040682E-01  0.51100000000E-03 0.  1.
</event>
<event>
 8    1  0.1086235E+005  0.1043930E+01  0.7957747E-01            NaN
         13   -1    0    0    0    0  0.00000000000E+00  0.00000000000E+00  0.74505805969E-08  0.10566000000E+00  0.10566000000E+00 0.  1.
     999900   -1    0    0    0    0 -0.00000000000E+00 -0.00000000000E+00 -0.74505805969E-08  0.93827000000E+00  0.93827000000E+00 0.  1.
     999902    2    1    2    0    0 -0.15167106104E-01 -0.14795927802E-01 -0.10814987218E-01  0.10201408315E+01  0.10198634181E+01 0.  0.
     999903    2    3    3    0    0  0.72792666666E-01  0.72781168134E-01 -0.75253803427E-01  0.12909704452E+00  0.20175262565E-01 0.  0.
         14    1    1    2    0    0  0.15167106104E-01  0.14795927802E-01  0.10814987218E-01  0.23789168452E-01  0.00000000000E+00 0.  1.
     999901    1    3    3    0    0 -0.87959772771E-01 -0.87577095936E-01  0.64438816208E-01  0.89104378702E+00  0.88000000000E+00 0.  1.
        -11    1    4    4    0    0  0.32830228178E-01  0.31906730443E-01 -0.45919324761E-01  0.64843726275E-01  0.51100000000E-03 0.  1.
         11    1    4    4    0    0  0.39962438488E-01  0.40874437691E-01 -0.29334478666E-01  0.64253318249E-01  0.51100000000E-03 0. -1.
</event>
<event>
 8    1  0.1086235E+005  0.1043930E+01  0.7957747E-01            NaN
         13   -1    0    0    0    0  0.00000000000E+00  0.00000000000E+00  0.74505805969E-08  0.10566000000E+00  0.10566000000E+00 0. -1.
     999900   -1    0    0    0    0 -0.00000000000E+00 -0.00000000000E+00 -0.74505805969E-08  0.93827000000E+00  0.93827000000E+00 0. -1.
     999902    2    1    2    0    0 -0.69705835159E-03 -0.24136724722E-01 -0.11997056511E-01  0.10169671230E+01  0.10166096264E+01 0.  0.
     999903    2    3    3    0    0 -0.27876567041E-01  0.11554867978E+00 -0.33863925777E-01  0.12526711858E+00  0.20407967570E-01 0.  0.
         14    1    1    2    0    0  0.69705835159E-03  0.24136724722E-01  0.11997056511E-01  0.26962876990E-01  0.00000000000E+00 0. -1.
     999901    1    3    3    0    0  0.27179508689E-01 -0.13968540450E+00  0.21866869266E-01  0.89170000443E+00  0.88000000000E+00 0.  1.
        -11    1    4    4    0    0 -0.13552187835E-01  0.38170556728E-01 -0.26059004744E-02  0.40591933119E-01  0.51100000000E-03 0.  1.
         11    1    4    4    0    0 -0.14324379206E-01  0.77378123051E-01 -0.31258025303E-01  0.84675185464E-01  0.51100000000E-03 0. -1.
</event>
<event>
 8    1  0.1086235E+005  0.1043930E+01  0.7957747E-01            NaN
         13   -1    0    0    0    0  0.00000000000E+00  0.00000000000E+00  0.74505805969E-08  0.10566000000E+00  0.10566000000E+00 0. -1.
     999900   -1    0    0    0    0 -0.00000000000E+00 -0.00000000000E+00 -0.74505805969E-08  0.93827000000E+00  0.93827000000E+00 0.  1.
     999902    2    1    2    0    0  0.41099787296E-02 -0.65938201123E-02  0.22394508700E-01  0.10202258989E+01  0.10199504892E+01 0.  0.
     999903    2    3    3    0    0  0.10507932711E-01 -0.12044970372E+00  0.50355919739E-01  0.13242753410E+00  0.19564901163E-01 0.  0.
         14    1    1    2    0    0 -0.41099787296E-02  0.65938201123E-02 -0.22394508700E-01  0.23704101096E-01  0.00000000000E+00 0.  1.
     999901    1    3    3    0    0 -0.63979539811E-02  0.11385588361E+00 -0.27961411039E-01  0.88779836481E+00  0.88000000000E+00 0.  1.
        -11    1    4    4    0    0  0.41519512684E-02 -0.56436712506E-01  0.13098915032E-01  0.58087726017E-01  0.51100000000E-03 0.  1.
         11    1    4    4    0    0  0.63559814423E-02 -0.64012991216E-01  0.37257004708E-01  0.74339808079E-01  0.51100000000E-03 0. -1.
</event>
<event>
 8    1  0.1086235E+005  0.1043930E+01  0.7957747E-01            NaN
         13   -1    0    0    0    0  0.00000000000E+00  0.00000000000E+00  0.74505805969E-08  0.10566000000E+00  0.10566000000E+00 0. -1.
     999900   -1    0    0    0    0 -0.00000000000E+00 -0.00000000000E+00 -0.74505805969E-08  0.93827000000E+00  0.93827000000E+00 0. -1.
     999902    2    1    2    0    0  0.20941572051E-02  0.12544247210E-02 -0.22992137228E-01  0.10208086365E+01  0.10205467529E+01 0.  0.
     999903    2    3    3    0    0 -0.92387467895E-01 -0.70352426300E-01  0.53903694590E-01  0.12953578964E+00  0.19723194398E-01 0.  0.
         14    1    1    2    0    0 -0.20941572051E-02 -0.12544247210E-02  0.22992137228E-01  0.23121363500E-01  0.00000000000E+00 0. -1.
     999901    1    3    3    0    0  0.94481625100E-01  0.71606851021E-01 -0.76895831819E-01  0.89127284686E+00  0.88000000000E+00 0. -1.
        -11    1    4    4    0    0 -0.37152193150E-01 -0.36454502089E-01  0.16000336662E-01  0.54456295069E-01  0.51100000000E-03 0. -1.
         11    1    4    4    0    0 -0.55235274745E-01 -0.33897924211E-01  0.37903357928E-01  0.75079494573E-01  0.51100000000E-03 0.  1.
</event>
<event>
 8    1  0.1086235E+005  0.1043930E+01  0.7957747E-01            NaN
         13   -1    0    0    0    0  0.00000000000E+00  0.00000000000E+00  0.74505805969E-08  0.10566000000E+00  0.10566000000E+00 0. -1.
     999900   -1    0    0    0    0 -0.00000000000E+00 -0.00000000000E+00 -0.74505805969E-08  0.93827000000E+00  0.93827000000E+00 0.  1.
     999902    2    1    2    0    0  0.12598769864E-01 -0.21928644460E-01 -0.17436513668E-02  0.10185797580E+01  0.10182642528E+01 0.  0.
     999903    2    3    3    0    0  0.43776689465E-02 -0.53715958944E-01 -0.11687240275E+00  0.13047354291E+00  0.21438718376E-01 0.  0.
         14    1    1    2    0    0 -0.12598769864E-01  0.21928644460E-01  0.17436513668E-02  0.25350242011E-01  0.00000000000E+00 0.  1.
     999901    1    3    3    0    0  0.82211009172E-02  0.31787314485E-01  0.11512875138E+00  0.88810621508E+00  0.88000000000E+00 0. -1.
        -11    1    4    4    0    0  0.12622365652E-01 -0.29240317663E-01 -0.71244069625E-01  0.78040366923E-01  0.51100000000E-03 0. -1.
         11    1    4    4    0    0 -0.82446967056E-02 -0.24475641281E-01 -0.45628333123E-01  0.52433175990E-01  0.51100000000E-03 0.  1.
</event>
<event>
 8    1  0.1086235E+005  0.1043930E+01  0.7957747E-01            NaN
         13   -1    0    0    0    0  0.00000000000E+00  0.00000000000E+00  0.74505805969E-08  0.10566000000E+00  0.10566000000E+00 0.  1.
     999900   -1    0    0    0    0 -0.00000000000E+00 -0.00000000000E+00 -0.74505805969E-08  0.93827000000E+00  0.93827000000E+00 0. -1.
     999902    2    1    2    0    0  0.16001800261E-01 -0.17346876548E-01 -0.34459049566E-02  0.10200795074E+01  0.10198006449E+01 0.  0.
     999903    2    3    3    0    0  0.72302818456E-01 -0.10745188474E+00 -0.25064674905E-01  0.13342507166E+00  0.20010165670E-01 0.  0.
         14    1    1    2    0    0 -0.16001800261E-01  0.17346876548E-01  0.34459049566E-02  0.23850492627E-01  0.00000000000E+00 0.  1.
     999901    1    3    3    0    0 -0.56301018195E-01  0.90105008188E-01  0.21618769949E-01  0.88665443571E+00  0.88000000000E+00 0. -1.
        -11    1    4    4    0    0  0.23054194455E-01 -0.45405442314E-01 -0.21975546620E-02  0.50972938322E-01  0.51100000000E-03 0. -1.
         11    1    4    4    0    0  0.49248624001E-01 -0.62046442422E-01 -0.22867120243E-01  0.82452133341E-01  0.51100000000E-03 0.  1.
</event>
<event>
 8    1  0.1086235E+005  0.1043930E+01  0.7957747E-01            NaN
         13   -1    0    0    0    0  0.00000000000E+00  0.00000000000E+00  0.74505805969E-08  0.10566000000E+00  0.10566000000E+00 0.  1.
     999900   -1    0    0    0    0 -0.00000000000E+00 -0.00000000000E+00 -0.74505805969E-08  0.93827000000E+00  0.93827000000E+00 0.  1.
     999902    2    1    2    0    0 -0.14510560121E-01 -0.17618052228E-01  0.61626210011E-02  0.10202882992E+01  0.10200143545E+01 0.  0.
     999903    2    3    3    0    0  0.42922214662E-01  0.98984202575E-01 -0.65620084864E-01  0.12784930055E+00  0.19981472473E-01 0.  0.
         14    1    1    2    0    0  0.14510560121E-01  0.17618052228E-01 -0.61626210011E-02  0.23641700805E-01  0.00000000000E+00 0.  1.
     999901    1    3    3    0    0 -0.57432774783E-01 -0.11660225480E+00  0.71782705865E-01  0.89243899865E+00  0.88000000000E+00 0. -1.
        -11    1    4    4    0    0  0.30938825177E-01  0.84071201528E-01 -0.47075786309E-01  0.10120063541E+00  0.51100000000E-03 0. -1.
         11    1    4    4    0    0  0.11983389485E-01  0.14913001048E-01 -0.18544298555E-01  0.26648665139E-01  0.51100000000E-03 0.  1.
</event>
<event>
 8    1  0.1086235E+005  0.1043930E+01  0.7957747E-01            NaN
         13   -1    0    0    0    0  0.00000000000E+00  0.00000000000E+00  0.74505805969E-08  0.10566000000E+00  0.10566000000E+00 0. -1.
     999900   -1    0    0    0    0 -0.00000000000E+00 -0.00000000000E+00 -0.74505805969E-08  0.93827000000E+00  0.93827000000E+00 0.  1.
     999902    2    1    2    0    0 -0.91613291838E-02 -0.16790117544E-02 -0.22181809562E-01  0.10198721175E+01  0.10195883260E+01 0.  0.
     999903    2    3    3    0    0  0.56857088006E-02  0.96408272804E-01 -0.87398052208E-01  0.13189987235E+00  0.20791210793E-01 0.  0.
         14    1    1    2    0    0  0.91613291838E-02  0.16790117544E-02  0.22181809562E-01  0.24057882458E-01  0.00000000000E+00 0.  1.
     999901    1    3    3    0    0 -0.14847037984E-01 -0.98087284559E-01  0.65216242646E-01  0.88797224519E+00  0.88000000000E+00 0.  1.
        -11    1    4    4    0    0 -0.34183295945E-02  0.39948509276E-01 -0.24978562142E-01  0.47241486622E-01  0.51100000000E-03 0.  1.
         11    1    4    4    0    0  0.91040383951E-02  0.56459763528E-01 -0.62419490066E-01  0.84658385727E-01  0.51100000000E-03 0. -1.
</event>
<event>
 8    1  0.1086235E+005  0.1043930E+01  0.7957747E-01            NaN
         13   -1    0    0    0    0  0.00000000000E+00  0.00000000000E+00  0.74505805969E-08  0.10566000000E+00  0.10566000000E+00 0. -1.
     999900   -1    0    0    0    0 -0.00000000000E+00 -0.00000000000E+00 -0.74505805969E-08  0.93827000000E+00  0.93827000000E+00 0. -1.
     999902    2    1    2    0    0 -0.20753588187E-02  0.14563381116E-01  0.18112895379E-01  0.10205959870E+01  0.10203292079E+01 0.  0.
     999903    2    3    3    0    0 -0.12688498915E+00 -0.26192370309E-01  0.39678131123E-02  0.13074287640E+00  0.17091385347E-01 0.  0.
         14    1    1    2    0    0  0.20753588187E-02 -0.14563381116E-01 -0.18112895379E-01  0.23334013001E-01  0.00000000000E+00 0.  1.
     999901    1    3    3    0    0  0.12480963033E+00  0.40755751425E-01  0.14145082266E-01  0.88985311060E+00  0.88000000000E+00 0.  1.
        -11    1    4    4    0    0 -0.60855485981E-01 -0.21197908638E-01  0.30646086253E-02  0.64516621514E-01  0.51100000000E-03 0.  1.
         11    1    4    4    0    0 -0.66029503170E-01 -0.49944616711E-02  0.90320448699E-03  0.66226254881E-01  0.51100000000E-03 0. -1.
</event>
<event>
 8    1  0.1407606E+005  0.1043930E+01  0.7957747E-01            NaN
         13   -1    0    0    0    0  0.00000000000E+00  0.00000000000E+00  0.74505805969E-08  0.10566000000E+00  0.10566000000E+00 0.  1.
     999900   -1    0    0    0    0 -0.00000000000E+00 -0.00000000000E+00 -0.74505805969E-08  0.93827000000E+00  0.93827000000E+00 0. -1.
     999902    2    1    2    0    0  0.74928215770E-02  0.66749414006E-02  0.35339369676E-01  0.10071935295E+01  0.10065233418E+01 0.  0.
     999903    2    3    3    0    0  0.23901005218E-01  0.56902923272E-01 -0.96175786270E-01  0.11585278941E+00  0.19049572738E-01 0.  0.
         14    1    1    2    0    0 -0.74928215770E-02 -0.66749414006E-02 -0.35339369676E-01  0.36736470529E-01  0.00000000000E+00 0. -1.
     999901    1    3    3    0    0 -0.16408183641E-01 -0.50227981872E-01  0.13151515595E+00  0.89134074006E+00  0.88000000000E+00 0.  1.
        -11    1    4    4    0    0  0.25776953351E-01  0.48686013567E-01 -0.75030438510E-01  0.93083871133E-01  0.51100000000E-03 0.  1.
         11    1    4    4    0    0 -0.18759481331E-02  0.82169097055E-02 -0.21145347760E-01  0.22768918274E-01  0.51100000000E-03 0. -1.
</event>
<event>
 8    1  0.1086235E+005  0.1043930E+01  0.7957747E-01            NaN
         13   -1    0    0    0    0  0.00000000000E+00  0.00000000000E+00  0.74505805969E-08  0.10566000000E+00  0.10566000000E+00 0. -1.
     999900   -1    0    0    0    0 -0.00000000000E+00 -0.00000000000E+00 -0.74505805969E-08  0.93827000000E+00  0.93827000000E+00 0.  1.
     999902    2    1    2    0    0 -0.27662820431E-03 -0.23691698918E-01  0.59699499048E-02  0.10194961419E+01  0.10192033015E+01 0.  0.
     999903    2    3    3    0    0  0.11786563126E+00 -0.54525710147E-01  0.12385145065E-01  0.13104271910E+00  0.12387183349E-01 0.  0.
         14    1    1    2    0    0  0.27662820431E-03  0.23691698918E-01 -0.59699499048E-02  0.24433858121E-01  0.00000000000E+00 0. -1.
     999901    1    3    3    0    0 -0.11814225946E+00  0.30834011229E-01 -0.64151951604E-02  0.88845342278E+00  0.88000000000E+00 0.  1.
        -11    1    4    4    0    0  0.62274821015E-01 -0.30838894292E-01  0.71937256888E-03  0.69497980917E-01  0.51100000000E-03 0.  1.
         11    1    4    4    0    0  0.55590810245E-01 -0.23686815855E-01  0.11665772496E-01  0.61544738183E-01  0.51100000000E-03 0. -1.
</event>
<event>
 8    1  0.1086235E+005  0.1043930E+01  0.7957747E-01            NaN
         13   -1    0    0    0    0  0.00000000000E+00  0.00000000000E+00  0.74505805969E-08  0.10566000000E+00  0.10566000000E+00 0.  1.
     999900   -1    0    0    0    0 -0.00000000000E+00 -0.00000000000E+00 -0.74505805969E-08  0.93827000000E+00  0.93827000000E+00 0.  1.
     999902    2    1    2    0    0  0.15109737534E-01  0.15481486636E-01  0.19614140297E-01  0.10147290566E+01  0.10143088106E+01 0.  0.
     999903    2    3    3    0    0  0.50460375571E-01  0.44746949017E-01  0.10857098049E+00  0.12905448073E+00  0.17856714188E-01 0.  0.
         14    1    1    2    0    0 -0.15109737534E-01 -0.15481486636E-01 -0.19614140297E-01  0.29200943417E-01  0.00000000000E+00 0. -1.
     999901    1    3    3    0    0 -0.35350638036E-01 -0.29265462381E-01 -0.88956840196E-01  0.88567457585E+00  0.88000000000E+00 0.  1.
        -11    1    4    4    0    0  0.10774159288E-01  0.74719353578E-02  0.10199093896E-01  0.16619114407E-01  0.51100000000E-03 0.  1.
         11    1    4    4    0    0  0.39686216282E-01  0.37275013660E-01  0.98371886597E-01  0.11243536632E+00  0.51100000000E-03 0. -1.
</event>
<event>
 8    1  0.1086235E+005  0.1043930E+01  0.7957747E-01            NaN
         13   -1    0    0    0    0  0.00000000000E+00  0.00000000000E+00  0.74505805969E-08  0.10566000000E+00  0.10566000000E+00 0. -1.
     999900   -1    0    0    0    0 -0.00000000000E+00 -0.00000000000E+00 -0.74505805969E-08  0.93827000000E+00  0.93827000000E+00 0.  1.
     999902    2    1    2    0    0  0.21341645888E-01 -0.53553488506E-03  0.10907597232E-01  0.10199565079E+01  0.10196747274E+01 0.  0.
     999903    2    3    3    0    0 -0.75297887430E-01 -0.91061091399E-01 -0.48018108873E-01  0.12810096206E+00  0.11925748703E-01 0.  0.
         14    1    1    2    0    0 -0.21341645888E-01  0.53553488506E-03 -0.10907597232E-01  0.23973492115E-01  0.00000000000E+00 0.  1.
     999901    1    3    3    0    0  0.96639533319E-01  0.90525556514E-01  0.58925706105E-01  0.89185554583E+00  0.88000000000E+00 0. -1.
        -11    1    4    4    0    0 -0.90394410117E-02 -0.13606213191E-01 -0.10797494735E-01  0.19587943863E-01  0.51100000000E-03 0.  1.
         11    1    4    4    0    0 -0.66258446419E-01 -0.77454878208E-01 -0.37220614137E-01  0.10851301820E+00  0.51100000000E-03 0. -1.
</event>
<event>
 8    1  0.1086235E+005  0.1043930E+01  0.7957747E-01            NaN
         13   -1    0    0    0    0  0.00000000000E+00  0.00000000000E+00  0.74505805969E-08  0.10566000000E+00  0.10566000000E+00 0. -1.
     999900   -1    0    0    0    0 -0.00000000000E+00 -0.00000000000E+00 -0.74505805969E-08  0.93827000000E+00  0.93827000000E+00 0. -1.
     999902    2    1    2    0    0 -0.17501070175E-01  0.67517549948E-02  0.10269391198E-01  0.10225446300E+01  0.10223209801E+01 0.  0.
     999903    2    3    3    0    0 -0.70073150008E-01  0.12610124279E-01  0.11350329543E+00  0.13493244949E+00  0.15953252581E-01 0.  0.
         14    1    1    2    0    0  0.17501070175E-01 -0.67517549948E-02 -0.10269391198E-01  0.21385369961E-01  0.00000000000E+00 0.  1.
     999901    1    3    3    0    0  0.52572079834E-01 -0.58583692838E-02 -0.10323390423E+00  0.88761218054E+00  0.88000000000E+00 0. -1.
        -11    1    4    4    0    0 -0.26232759703E-01  0.11708705893E-01  0.38326405617E-01  0.47900166637E-01  0.51100000000E-03 0. -1.
         11    1    4    4    0    0 -0.43840390305E-01  0.90141838528E-03  0.75176889808E-01  0.87032282858E-01  0.51100000000E-03 0.  1.
</event>
<event>
 8    1  0.1086235E+005  0.1043930E+01  0.7957747E-01            NaN
         13   -1    0    0    0    0  0.00000000000E+00  0.00000000000E+00  0.74505805969E-08  0.10566000000E+00  0.10566000000E+00 0.  1.
     999900   -1    0    0    0    0 -0.00000000000E+00 -0.00000000000E+00 -0.74505805969E-08  0.93827000000E+00  0.93827000000E+00 0.  1.
     999902    2    1    2    0    0  0.17826040008E-01 -0.10161925204E-01  0.98941467126E-02  0.10211500403E+01  0.10208959194E+01 0.  0.
     999903    2    3    3    0    0 -0.11517995326E+00  0.18073553777E-01 -0.50039928482E-01  0.12869279766E+00  0.21558449533E-01 0.  0.
         14    1    1    2    0    0 -0.17826040008E-01  0.10161925204E-01 -0.98941467126E-02  0.22779959732E-01  0.00000000000E+00 0. -1.
     999901    1    3    3    0    0  0.13300599327E+00 -0.28235478981E-01  0.59934075194E-01  0.89245724261E+00  0.88000000000E+00 0. -1.
        -11    1    4    4    0    0 -0.73201421744E-01  0.13671664528E-01 -0.42716059423E-01  0.85850366394E-01  0.51100000000E-03 0. -1.
         11    1    4    4    0    0 -0.41978531521E-01  0.44018892494E-02 -0.73238690586E-02  0.42842431264E-01  0.51100000000E-03 0.  1.
</event>
<event>
 8    1  0.1086235E+005  0.1043930E+01  0.7957747E-01            NaN
         13   -1    0    0    0    0  0.00000000000E+00  0.00000000000E+00  0.74505805969E-08  0.10566000000E+00  0.10566000000E+00 0. -1.
     999900   -1    0    0    0    0 -0.00000000000E+00 -0.00000000000E+00 -0.74505805969E-08  0.93827000000E+00  0.93827000000E+00 0. -1.
     999902    2    1    2    0    0 -0.18320153751E-01 -0.45062040613E-02 -0.13889670262E-01  0.10205023060E+01  0.10202333555E+01 0.  0.
     999903    2    3    3    0    0 -0.99455472598E-01 -0.85182027291E-01 -0.10643926648E-01  0.13308917596E+00  0.21261862133E-01 0.  0.
         14    1    1    2    0    0  0.18320153751E-01  0.45062040613E-02  0.13889670262E-01  0.23427694050E-01  0.00000000000E+00 0. -1.
     999901    1    3    3    0    0  0.81135318847E-01  0.80675823230E-01 -0.32457436141E-02  0.88741312999E+00  0.88000000000E+00 0.  1.
        -11    1    4    4    0    0 -0.46714486421E-01 -0.50276680774E-01 -0.12754712034E-01  0.69806387038E-01  0.51100000000E-03 0.  1.
         11    1    4    4    0    0 -0.52740986177E-01 -0.34905346517E-01  0.21107853854E-02  0.63282788927E-01  0.51100000000E-03 0. -1.
</event>
<event>
 8    1  0.1086235E+005  0.1043930E+01  0.7957747E-01            NaN
         13   -1    0    0    0    0  0.00000000000E+00  0.00000000000E+00  0.74505805969E-08  0.10566000000E+00  0.10566000000E+00 0. -1.
     999900   -1    0    0    0    0 -0.00000000000E+00 -0.00000000000E+00 -0.74505805969E-08  0.93827000000E+00  0.93827000000E+00 0. -1.
     999902    2    1    2    0    0 -0.11634510943E-01 -0.18469000126E-02 -0.19977853332E-01  0.10207375980E+01  0.10204740842E+01 0.  0.
     999903    2    3    3    0    0 -0.13484065311E-01 -0.16353882303E-01 -0.13061385920E+00  0.13368957275E+00  0.19069666046E-01 0.  0.
         14    1    1    2    0    0  0.11634510943E-01  0.18469000126E-02  0.19977853332E-01  0.23192401951E-01  0.00000000000E+00 0. -1.
     999901    1    3    3    0    0  0.18495543684E-02  0.14506982291E-01  0.11063600587E+00  0.88704802530E+00  0.88000000000E+00 0.  1.
        -11    1    4    4    0    0 -0.10230862603E-01 -0.19005903828E-01 -0.78826047546E-01  0.81729442813E-01  0.51100000000E-03 0.  1.
         11    1    4    4    0    0 -0.32532027084E-02  0.26520215244E-02 -0.51787811658E-01  0.51960129939E-01  0.51100000000E-03 0. -1.
</event>
<event>
 8    1  0.1086235E+005  0.1043930E+01  0.7957747E-01            NaN
         13   -1    0    0    0    0  0.00000000000E+00  0.00000000000E+00  0.74505805969E-08  0.10566000000E+00  0.10566000000E+00 0.  1.
     999900   -1    0    0    0    0 -0.00000000000E+00 -0.00000000000E+00 -0.74505805969E-08  0.93827000000E+00  0.93827000000E+00 0. -1.
     999902    2    1    2    0    0  0.13292807553E-02  0.20929392172E-01  0.12123993162E-01  0.10197060933E+01  0.10194183239E+01 0.  0.
     999903    2    3    3    0    0 -0.10352336673E+00  0.54341128814E-02 -0.74622959649E-01  0.12911122742E+00  0.18828326987E-01 0.  0.
         14    1    1    2    0    0 -0.13292807553E-02 -0.20929392172E-01 -0.12123993162E-01  0.24223906667E-01  0.00000000000E+00 0.  1.
     999901    1    3    3    0    0  0.10485264749E+00  0.15495279291E-01  0.86746952812E-01  0.89059486591E+00  0.88000000000E+00 0.  1.
        -11    1    4    4    0    0 -0.24917169897E-01  0.77341100067E-02 -0.12725851315E-01  0.29032571811E-01  0.51100000000E-03 0.  1.
         11    1    4    4    0    0 -0.78606196835E-01 -0.22999971253E-02 -0.61897108334E-01  0.10007865561E+00  0.51100000000E-03 0. -1.
</event>
<event>
 8    1  0.1086235E+005  0.1043930E+01  0.7957747E-01            NaN
         13   -1    0    0    0    0  0.00000000000E+00  0.00000000000E+00  0.74505805969E-08  0.10566000000E+00  0.10566000000E+00 0. -1.
     999900   -1    0    0    0    0 -0.00000000000E+00 -0.00000000000E+00 -0.74505805969E-08  0.93827000000E+00  0.93827000000E+00 0.  1.
     999902    2    1    2    0    0 -0.18117779727E-01 -0.17378070243E-02  0.15212710717E-01  0.10202086914E+01  0.10199328769E+01 0.  0.
     999903    2    3    3    0    0  0.71015282073E-02 -0.83466360180E-01 -0.95414198798E-01  0.12916779276E+00  0.23735719284E-01 0.  0.
         14    1    1    2    0    0  0.18117779727E-01  0.17378070243E-02 -0.15212710717E-01  0.23721308624E-01  0.00000000000E+00 0.  1.
     999901    1    3    3    0    0 -0.25219307934E-01  0.81728553156E-01  0.11062690952E+00  0.89104089861E+00  0.88000000000E+00 0. -1.
        -11    1    4    4    0    0 -0.62670895283E-02 -0.50005982124E-01 -0.63171186546E-01  0.80812960533E-01  0.51100000000E-03 0.  1.
         11    1    4    4    0    0  0.13368617736E-01 -0.33460378056E-01 -0.32243012252E-01  0.48354832229E-01  0.51100000000E-03 0. -1.
</event>
<event>
 8    1  0.1086235E+005  0.1043930E+01  0.7957747E-01            NaN
         13   -1    0    0    0    0  0.00000000000E+00  0.00000000000E+00  0.74505805969E-08  0.10566000000E+00  0.10566000000E+00 0. -1.
     999900   -1    0    0    0    0 -0.00000000000E+00 -0.00000000000E+00 -0.74505805969E-08  0.93827000000E+00  0.93827000000E+00 0. -1.
     999902    2    1    2    0    0  0.13681766850E-01 -0.13842814603E-01  0.14202763369E-01  0.10198357528E+01  0.10195510924E+01 0.  0.
     999903    2    3    3    0    0 -0.98407448935E-01 -0.82187653378E-01  0.10870819966E-02  0.13000035771E+00  0.21449356239E-01 0.  0.
         14    1    1    2    0    0 -0.13681766850E-01  0.13842814603E-01 -0.14202763369E-01  0.24094247189E-01  0.00000000000E+00 0. -1.
     999901    1    3    3    0    0  0.11208921578E+00  0.68344838775E-01  0.13115681373E-01  0.88983539510E+00  0.88000000000E+00 0. -1.
        -11    1    4    4    0    0 -0.29618500003E-01 -0.34989716642E-01  0.69493691804E-02  0.46369070145E-01  0.51100000000E-03 0.  1.
         11    1    4    4    0    0 -0.68788948931E-01 -0.47197936736E-01 -0.58622871838E-02  0.83631287562E-01  0.51100000000E-03 0. -1.
</event>
<event>
 8    1  0.1086235E+005  0.1043930E+01  0.7957747E-01            NaN
         13   -1    0    0    0    0  0.00000000000E+00  0.00000000000E+00  0.74505805969E-08  0.10566000000E+00  0.10566000000E+00 0. -1.
     999900   -1    0    0    0    0 -0.00000000000E+00 -0.00000000000E+00 -0.74505805969E-08  0.93827000000E+00  0.93827000000E+00 0.  1.
     999902    2    1    2    0    0  0.36346327717E-02 -0.60276751459E-02 -0.20172966585E-01  0.10225643265E+01  0.10223410927E+01 0.  0.
     999903    2    3    3    0    0  0.16367242890E-01  0.95791548580E-01 -0.89168466961E-01  0.13391948589E+00  0.23227263754E-01 0.  0.
         14    1    1    2    0    0 -0.36346327717E-02  0.60276751459E-02  0.20172966585E-01  0.21365673495E-01  0.00000000000E+00 0. -1.
     999901    1    3    3    0    0 -0.12732610118E-01 -0.10181922373E+00  0.68995500376E-01  0.88864484062E+00  0.88000000000E+00 0. -1.
        -11    1    4    4    0    0  0.76429194206E-02  0.74440101404E-01 -0.55776946537E-01  0.93333122740E-01  0.51100000000E-03 0. -1.
         11    1    4    4    0    0  0.87243234690E-02  0.21351447176E-01 -0.33391520424E-01  0.40586363150E-01  0.51100000000E-03 0.  1.
</event>
<event>
 8    1  0.1086235E+005  0.1043930E+01  0.7957747E-01            NaN
         13   -1    0    0    0    0  0.00000000000E+00  0.00000000000E+00  0.74505805969E-08  0.10566000000E+00  0.10566000000E+00 0.  1.
     999900   -1    0    0    0    0 -0.00000000000E+00 -0.00000000000E+00 -0.74505805969E-08  0.93827000000E+00  0.93827000000E+00 0.  1.
     999902    2    1    2    0    0  0.15418365540E-01 -0.21540177710E-02  0.34446116214E-02  0.10279853728E+01  0.10278617103E+01 0.  0.
     999903    2    3    3    0    0  0.67978752721E-01 -0.97103539041E-01 -0.67665392240E-01  0.13847166374E+00  0.23357830302E-01 0.  0.
         14    1    1    2    0    0 -0.15418365540E-01  0.21540177710E-02 -0.34446116214E-02  0.15944627236E-01  0.00000000000E+00 0. -1.
     999901    1    3    3    0    0 -0.52560387181E-01  0.94949521270E-01  0.71110003862E-01  0.88951370902E+00  0.88000000000E+00 0. -1.
        -11    1    4    4    0    0  0.42879204566E-01 -0.72028766406E-01 -0.37224133014E-01  0.91720589694E-01  0.51100000000E-03 0. -1.
         11    1    4    4    0    0  0.25099548155E-01 -0.25074772635E-01 -0.30441259226E-01  0.46751074047E-01  0.51100000000E-03 0.  1.
</event>
<event>
 8    1  0.1086235E+005  0.1043930E+01  0.7957747E-01            NaN
         13   -1    0    0    0    0  0.00000000000E+00  0.00000000000E+00  0.74505805969E-08  0.10566000000E+00  0.10566000000E+00 0. -1.
     999900   -1    0    0    0    0 -0.00000000000E+00 -0.00000000000E+00 -0.74505805969E-08  0.93827000000E+00  0.93827000000E+00 0. -1.
     999902    2    1    2    0    0  0.17407251145E-01 -0.80921330467E-02  0.13143829153E-01  0.10206651068E+01  0.10203999241E+01 0.  0.
     999903    2    3    3    0    0 -0.12453152517E-01  0.91361439010E-01  0.91028496267E-01  0.13114350615E+00  0.20259282470E-01 0.  0.
         14    1    1    2    0    0 -0.17407251145E-01  0.80921330467E-02 -0.13143829153E-01  0.23264893175E-01  0.00000000000E+00 0. -1.
     999901    1    3    3    0    0  0.29860403662E-01 -0.99453572057E-01 -0.77884667114E-01  0.88952160068E+00  0.88000000000E+00 0. -1.
        -11    1    4    4    0    0 -0.50105355934E-02  0.18541851780E-01  0.90455343924E-02  0.21236490949E-01  0.51100000000E-03 0. -1.
         11    1    4    4    0    0 -0.74426169237E-02  0.72819587230E-01  0.81982961875E-01  0.10990701520E+00  0.51100000000E-03 0.  1.
</event>
<event>
 8    1  0.1086235E+005  0.1043930E+01  0.7957747E-01            NaN
         13   -1    0    0    0    0  0.00000000000E+00  0.00000000000E+00  0.74505805969E-08  0.10566000000E+00  0.10566000000E+00 0.  1.
     999900   -1    0    0    0    0 -0.00000000000E+00 -0.00000000000E+00 -0.74505805969E-08  0.93827000000E+00  0.93827000000E+00 0. -1.
     999902    2    1    2    0    0 -0.17357845391E-01 -0.16451847258E-01  0.11507580225E-02  0.10199866853E+01  0.10197056222E+01 0.  0.
     999903    2    3    3    0    0  0.46952486859E-01 -0.51892430086E-01 -0.10793765328E+00  0.13021585232E+00  0.20205713958E-01 0.  0.
         14    1    1    2    0    0  0.17357845391E-01  0.16451847258E-01 -0.11507580225E-02  0.23943314701E-01  0.00000000000E+00 0. -1.
     999901    1    3    3    0    0 -0.64310332250E-01  0.35440582828E-01  0.10908841130E+00  0.88977083298E+00  0.88000000000E+00 0.  1.
        -11    1    4    4    0    0  0.10580450629E-01 -0.90693603152E-02 -0.38161232954E-01  0.40629300432E-01  0.51100000000E-03 0. -1.
         11    1    4    4    0    0  0.36372036230E-01 -0.42823069771E-01 -0.69776420327E-01  0.89586551885E-01  0.51100000000E-03 0.  1.
</event>
<event>
 8    1  0.1086235E+005  0.1043930E+01  0.7957747E-01            NaN
         13   -1    0    0    0    0  0.00000000000E+00  0.00000000000E+00  0.74505805969E-08  0.10566000000E+00  0.10566000000E+00 0.  1.
     999900   -1    0    0    0    0 -0.00000000000E+00 -0.00000000000E+00 -0.74505805969E-08  0.93827000000E+00  0.93827000000E+00 0. -1.
     999902    2    1    2    0    0 -0.72749053400E-02 -0.21438010825E-01  0.90453589533E-02  0.10195510937E+01  0.10192595849E+01 0.  0.
     999903    2    3    3    0    0 -0.12442306556E-01 -0.74132132680E-01  0.10753790449E+00  0.13247491089E+00  0.18298005993E-01 0.  0.
         14    1    1    2    0    0  0.72749053400E-02  0.21438010825E-01 -0.90453589533E-02  0.24378906342E-01  0.00000000000E+00 0.  1.
     999901    1    3    3    0    0  0.51674012164E-02  0.52694121855E-01 -0.98492545540E-01  0.88707618277E+00  0.88000000000E+00 0. -1.
        -11    1    4    4    0    0  0.32847586678E-02 -0.30758835500E-01  0.48829306665E-01  0.57805345006E-01  0.51100000000E-03 0. -1.
         11    1    4    4    0    0 -0.15727065224E-01 -0.43373297180E-01  0.58708597829E-01  0.74669565881E-01  0.51100000000E-03 0.  1.
</event>
<event>
 8    1  0.1086235E+005  0.1043930E+01  0.7957747E-01            NaN
         13   -1    0    0    0    0  0.00000000000E+00  0.00000000000E+00  0.74505805969E-08  0.10566000000E+00  0.10566000000E+00 0. -1.
     999900   -1    0    0    0    0 -0.00000000000E+00 -0.00000000000E+00 -0.74505805969E-08  0.93827000000E+00  0.93827000000E+00 0. -1.
     999902    2    1    2    0    0 -0.24206263173E-01  0.19421583676E-02 -0.24073069259E-02  0.10195269206E+01  0.10192348265E+01 0.  0.
     999903    2    3    3    0    0  0.38065367551E-01 -0.46456632454E-01  0.11200643920E+00  0.12862249015E+00  0.19776542802E-01 0.  0.
         14    1    1    2    0    0  0.24206263173E-01 -0.19421583676E-02  0.24073069259E-02  0.24403079366E-01  0.00000000000E+00 0.  1.
     999901    1    3    3    0    0 -0.62271630724E-01  0.48398790822E-01 -0.11441374613E+00  0.89090443048E+00  0.88000000000E+00 0. -1.
        -11    1    4    4    0    0  0.28412293280E-01 -0.27603922941E-01  0.88585952120E-01  0.97041058347E-01  0.51100000000E-03 0.  1.
         11    1    4    4    0    0  0.96530742714E-02 -0.18852709513E-01  0.23420487081E-01  0.31581431807E-01  0.51100000000E-03 0. -1.
</event>
<event>
 8    1  0.1086235E+005  0.1043930E+01  0.7957747E-01            NaN
         13   -1    0    0    0    0  0.00000000000E+00  0.00000000000E+00  0.74505805969E-08  0.10566000000E+00  0.10566000000E+00 0. -1.
     999900   -1    0    0    0    0 -0.00000000000E+00 -0.00000000000E+00 -0.74505805969E-08  0.93827000000E+00  0.93827000000E+00 0. -1.
     999902    2    1    2    0    0 -0.13614827480E-01 -0.59272511885E-02 -0.18898940263E-01  0.10198953214E+01  0.10196120835E+01 0.  0.
     999903    2    3    3    0    0  0.11510780205E+00  0.53097892800E-01 -0.34566728783E-02  0.12844036087E+00  0.20390816560E-01 0.  0.
         14    1    1    2    0    0  0.13614827480E-01  0.59272511885E-02  0.18898940263E-01  0.24034678633E-01  0.00000000000E+00 0. -1.
     999901    1    3    3    0    0 -0.12872262953E+00 -0.59025143989E-01 -0.15442267384E-01  0.89145496050E+00  0.88000000000E+00 0. -1.
        -11    1    4    4    0    0  0.45176991482E-01  0.12780481183E-01 -0.78236560779E-02  0.47600125778E-01  0.51100000000E-03 0. -1.
         11    1    4    4    0    0  0.69930810568E-01  0.40317411617E-01  0.43669831996E-02  0.80840235090E-01  0.51100000000E-03 0.  1.
</event>
<event>
 8    1  0.1086235E+005  0.1043930E+01  0.7957747E-01            NaN
         13   -1    0    0    0    0  0.00000000000E+00  0.00000000000E+00  0.74505805969E-08  0.10566000000E+00  0.10566000000E+00 0.  1.
     999900   -1    0    0    0    0 -0.00000000000E+00 -0.00000000000E+00 -0.74505805969E-08  0.93827000000E+00  0.93827000000E+00 0. -1.
     999902    2    1    2    0    0 -0.13068079934E-01 -0.17375769044E-01  0.97894213781E-02  0.10200862412E+01  0.10198075380E+01 0.  0.
     999903    2    3    3    0    0  0.16047361907E-01 -0.71322450626E-01 -0.10610564671E+00  0.13037301761E+00  0.19857131471E-01 0.  0.
         14    1    1    2    0    0  0.13068079934E-01  0.17375769044E-01 -0.97894213781E-02  0.23843758804E-01  0.00000000000E+00 0.  1.
     999901    1    3    3    0    0 -0.29115441841E-01  0.53946681582E-01  0.11589506809E+00  0.88971322358E+00  0.88000000000E+00 0.  1.
        -11    1    4    4    0    0  0.15340141070E-01 -0.34962558428E-01 -0.65858976650E-01  0.76127303553E-01  0.51100000000E-03 0. -1.
         11    1    4    4    0    0  0.70722083741E-03 -0.36359892198E-01 -0.40246670062E-01  0.54245714061E-01  0.51100000000E-03 0.  1.
</event>
<event>
 8    1  0.1086235E+005  0.1043930E+01  0.7957747E-01            NaN
         13   -1    0    0    0    0  0.00000000000E+00  0.00000000000E+00  0.74505805969E-08  0.10566000000E+00  0.10566000000E+00 0.  1.
     999900   -1    0    0    0    0 -0.00000000000E+00 -0.00000000000E+00 -0.74505805969E-08  0.93827000000E+00  0.93827000000E+00 0.  1.
     999902    2    1    2    0    0  0.17282849056E-01 -0.14279313806E-01 -0.93322344529E-02  0.10196465432E+01  0.10193573401E+01 0.  0.
     999903    2    3    3    0    0 -0.83374922325E-01 -0.97728364431E-01 -0.39437315762E-02  0.12996976653E+00  0.19348806295E-01 0.  0.
         14    1    1    2    0    0 -0.17282849056E-01  0.14279313806E-01  0.93322344529E-02  0.24283456800E-01  0.00000000000E+00 0.  1.
     999901    1    3    3    0    0  0.10065777138E+00  0.83449050625E-01 -0.53885028767E-02  0.88967677667E+00  0.88000000000E+00 0. -1.
        -11    1    4    4    0    0 -0.57961514661E-01 -0.66465906967E-01  0.62401364924E-02  0.88410714256E-01  0.51100000000E-03 0. -1.
         11    1    4    4    0    0 -0.25413407664E-01 -0.31262457464E-01 -0.10183868069E-01  0.41559052271E-01  0.51100000000E-03 0.  1.
</event>
<event>
 8    1  0.1086235E+005  0.1043930E+01  0.7957747E-01            NaN
         13   -1    0    0    0    0  0.00000000000E+00  0.00000000000E+00  0.74505805969E-08  0.10566000000E+00  0.10566000000E+00 0. -1.
     999900   -1    0    0    0    0 -0.00000000000E+00 -0.00000000000E+00 -0.74505805969E-08  0.93827000000E+00  0.93827000000E+00 0.  1.
     999902    2    1    2    0    0 -0.18964715069E-01 -0.13082854894E-01  0.44321253180E-02  0.10204680042E+01  0.10201982564E+01 0.  0.
     999903    2    3    3    0    0 -0.72422437613E-01 -0.45231011270E-01  0.99437549518E-01  0.13315900357E+00  0.23508299112E-01 0.  0.
         14    1    1    2    0    0  0.18964715069E-01  0.13082854894E-01 -0.44321253180E-02  0.23461995752E-01  0.00000000000E+00 0.  1.
     999901    1    3    3    0    0  0.53457722544E-01  0.32148156376E-01 -0.95005424200E-01  0.88730900068E+00  0.88000000000E+00 0.  1.
        -11    1    4    4    0    0 -0.65084680089E-01 -0.42001757672E-01  0.76560393494E-01  0.10891243365E+00  0.51100000000E-03 0.  1.
         11    1    4    4    0    0 -0.73377575243E-02 -0.32292535977E-02  0.22877156024E-01  0.24246569923E-01  0.51100000000E-03 0. -1.
</event>
<event>
 8    1  0.1086235E+005  0.1043930E+01  0.7957747E-01            NaN
         13   -1    0    0    0    0  0.00000000000E+00  0.00000000000E+00  0.74505805969E-08  0.10566000000E+00  0.10566000000E+00 0.  1.
     999900   -1    0    0    0    0 -0.00000000000E+00 -0.00000000000E+00 -0.74505805969E-08  0.93827000000E+00  0.93827000000E+00 0.  1.
     999902    2    1    2    0    0 -0.11458033160E-01  0.15922355867E-01  0.11889896652E-01  0.10209914390E+01  0.10207337267E+01 0.  0.
     999903    2    3    3    0    0 -0.12469655914E+00  0.27376324067E-01 -0.30060026550E-01  0.13267057733E+00  0.19979537304E-01 0.  0.
         14    1    1    2    0    0  0.11458033160E-01 -0.15922355867E-01 -0.11889896652E-01  0.22938561041E-01  0.00000000000E+00 0.  1.
     999901    1    3    3    0    0  0.11323852598E+00 -0.11453968201E-01  0.41949923201E-01  0.88832086163E+00  0.88000000000E+00 0. -1.
        -11    1    4    4    0    0 -0.65310138877E-01  0.10096328018E-01 -0.24829711850E-01  0.70598341277E-01  0.51100000000E-03 0. -1.
         11    1    4    4    0    0 -0.59386420265E-01  0.17279996049E-01 -0.52303146994E-02  0.62072236050E-01  0.51100000000E-03 0.  1.
</event>
<event>
 8    1  0.1086235E+005  0.1043930E+01  0.7957747E-01            NaN
         13   -1    0    0    0    0  0.00000000000E+00  0.00000000000E+00  0.74505805969E-08  0.10566000000E+00  0.10566000000E+00 0. -1.
     999900   -1    0    0    0    0 -0.00000000000E+00 -0.00000000000E+00 -0.74505805969E-08  0.93827000000E+00  0.93827000000E+00 0. -1.
     999902    2    1    2    0    0 -0.15800238552E-01  0.38016186634E-02 -0.16904475446E-01  0.10204808820E+01  0.10202114337E+01 0.  0.
     999903    2    3    3    0    0  0.42501200022E-01 -0.11445972702E+00  0.33166674083E-01  0.12925031500E+00  0.26424128073E-01 0.  0.
         14    1    1    2    0    0  0.15800238552E-01 -0.38016186634E-02  0.16904475446E-01  0.23449117955E-01  0.00000000000E+00 0. -1.
     999901    1    3    3    0    0 -0.58301438574E-01  0.11826134568E+00 -0.50071149529E-01  0.89123056705E+00  0.88000000000E+00 0.  1.
        -11    1    4    4    0    0  0.45056874199E-01 -0.97335160878E-01  0.25175296496E-01  0.11017400842E+00  0.51100000000E-03 0. -1.
         11    1    4    4    0    0 -0.25556741776E-02 -0.17124566143E-01  0.79913775869E-02  0.19076306582E-01  0.51100000000E-03 0.  1.
</event>
<event>
 8    1  0.1232649E+005  0.1043930E+01  0.7957747E-01            NaN
         13   -1    0    0    0    0  0.00000000000E+00  0.00000000000E+00  0.74505805969E-08  0.10566000000E+00  0.10566000000E+00 0. -1.
     999900   -1    0    0    0    0 -0.00000000000E+00 -0.00000000000E+00 -0.74505805969E-08  0.93827000000E+00  0.93827000000E+00 0. -1.
     999902    2    1    2    0    0 -0.92621225522E-02  0.27999987314E-02  0.21299759141E-01  0.10205354142E+01  0.10202672321E+01 0.  0.
     999903    2    3    3    0    0  0.74313869126E-01 -0.39723795643E-01 -0.94215831220E-01  0.12804615871E+00  0.20461300651E-01 0.  0.
         14    1    1    2    0    0  0.92621225522E-02 -0.27999987314E-02 -0.21299759141E-01  0.23394585838E-01  0.00000000000E+00 0.  1.
     999901    1    3    3    0    0 -0.83575991678E-01  0.42523794375E-01  0.11551559036E+00  0.89248925545E+00  0.88000000000E+00 0.  1.
        -11    1    4    4    0    0  0.33426676786E-01 -0.71999787956E-02 -0.42255900143E-01  0.54359954318E-01  0.51100000000E-03 0. -1.
         11    1    4    4    0    0  0.40887192340E-01 -0.32523816848E-01 -0.51959931077E-01  0.73686204397E-01  0.51100000000E-03 0.  1.
</event>
<event>
 8    1  0.1086235E+005  0.1043930E+01  0.7957747E-01            NaN
         13   -1    0    0    0    0  0.00000000000E+00  0.00000000000E+00  0.74505805969E-08  0.10566000000E+00  0.10566000000E+00 0.  1.
     999900   -1    0    0    0    0 -0.00000000000E+00 -0.00000000000E+00 -0.74505805969E-08  0.93827000000E+00  0.93827000000E+00 0. -1.
     999902    2    1    2    0    0  0.18103000508E-01 -0.59968437404E-02 -0.12094865010E-01  0.10213475616E+01  0.10210978774E+01 0.  0.
     999903    2    3    3    0    0  0.72883700933E-01 -0.10929953925E+00 -0.22884377723E-01  0.13354759227E+00  0.72692170578E-02 0.  0.
         14    1    1    2    0    0 -0.18103000508E-01  0.59968437404E-02  0.12094865010E-01  0.22582438351E-01  0.00000000000E+00 0. -1.
     999901    1    3    3    0    0 -0.54780700424E-01  0.10330269551E+00  0.10789512714E-01  0.88779996938E+00  0.88000000000E+00 0.  1.
        -11    1    4    4    0    0  0.55346977525E-01 -0.84409724154E-01 -0.14596386074E-01  0.10198825942E+00  0.51100000000E-03 0.  1.
         11    1    4    4    0    0  0.17536723408E-01 -0.24889815095E-01 -0.82879916495E-02  0.31559332850E-01  0.51100000000E-03 0. -1.
</event>
<event>
 8    1  0.1086235E+005  0.1043930E+01  0.7957747E-01            NaN
         13   -1    0    0    0    0  0.00000000000E+00  0.00000000000E+00  0.74505805969E-08  0.10566000000E+00  0.10566000000E+00 0.  1.
     999900   -1    0    0    0    0 -0.00000000000E+00 -0.00000000000E+00 -0.74505805969E-08  0.93827000000E+00  0.93827000000E+00 0.  1.
     999902    2    1    2    0    0 -0.96927740694E-02 -0.10810497689E-01  0.16511925601E-01  0.10219422667E+01  0.10217056993E+01 0.  0.
     999903    2    3    3    0    0 -0.84397038327E-01 -0.37257590669E-01  0.96226853359E-01  0.13479253550E+00  0.19960765980E-01 0.  0.
         14    1    1    2    0    0  0.96927740694E-02  0.10810497689E-01 -0.16511925601E-01  0.21987733319E-01  0.00000000000E+00 0. -1.
     999901    1    3    3    0    0  0.74704264258E-01  0.26447092980E-01 -0.79714927757E-01  0.88714973118E+00  0.88000000000E+00 0.  1.
        -11    1    4    4    0    0 -0.69635418749E-01 -0.23424077510E-01  0.68377210442E-01  0.10036674240E+00  0.51100000000E-03 0.  1.
         11    1    4    4    0    0 -0.14761619578E-01 -0.13833513159E-01  0.27849642917E-01  0.34425793099E-01  0.51100000000E-03 0. -1.
</event>
<event>
 8    1  0.1086235E+005  0.1043930E+01  0.7957747E-01            NaN
         13   -1    0    0    0    0  0.00000000000E+00  0.00000000000E+00  0.74505805969E-08  0.10566000000E+00  0.10566000000E+00 0.  1.
     999900   -1    0    0    0    0 -0.00000000000E+00 -0.00000000000E+00 -0.74505805969E-08  0.93827000000E+00  0.93827000000E+00 0.  1.
     999902    2    1    2    0    0 -0.10483076057E-01 -0.12424757225E-02  0.21662556989E-01  0.10198321784E+01  0.10195474325E+01 0.  0.
     999903    2    3    3    0    0  0.40204341012E-01  0.88514294864E-01 -0.80822601941E-01  0.12790802250E+00  0.19416482787E-01 0.  0.
         14    1    1    2    0    0  0.10483076057E-01  0.12424757225E-02 -0.21662556989E-01  0.24097821578E-01  0.00000000000E+00 0. -1.
     999901    1    3    3    0    0 -0.50687417069E-01 -0.89756770587E-01  0.10248515893E+00  0.89192415592E+00  0.88000000000E+00 0. -1.
        -11    1    4    4    0    0  0.23383718634E-01  0.28938482581E-01 -0.29060185372E-01  0.47212176037E-01  0.51100000000E-03 0.  1.
         11    1    4    4    0    0  0.16820622378E-01  0.59575812283E-01 -0.51762416569E-01  0.80695846463E-01  0.51100000000E-03 0. -1.
</event>
<event>
 8    1  0.1086235E+005  0.1043930E+01  0.7957747E-01            NaN
         13   -1    0    0    0    0  0.00000000000E+00  0.00000000000E+00  0.74505805969E-08  0.10566000000E+00  0.10566000000E+00 0.  1.
     999900   -1    0    0    0    0 -0.00000000000E+00 -0.00000000000E+00 -0.74505805969E-08  0.93827000000E+00  0.93827000000E+00 0. -1.
     999902    2    1    2    0    0 -0.26734536338E-02  0.10294396021E-02 -0.24185680954E-01  0.10195752415E+01  0.10192843169E+01 0.  0.
     999903    2    3    3    0    0  0.97649081037E-01  0.53259177660E-01 -0.66900222498E-01  0.13130890271E+00  0.19862153169E-01 0.  0.
         14    1    1    2    0    0  0.26734536338E-02 -0.10294396021E-02  0.24185680954E-01  0.24354758538E-01  0.00000000000E+00 0.  1.
     999901    1    3    3    0    0 -0.10032253467E+00 -0.52229738057E-01  0.42714541544E-01  0.88826633875E+00  0.88000000000E+00 0.  1.
        -11    1    4    4    0    0  0.45457467499E-01  0.24827092187E-01 -0.42723630514E-01  0.67144140348E-01  0.51100000000E-03 0. -1.
         11    1    4    4    0    0  0.52191613538E-01  0.28432085473E-01 -0.24176591984E-01  0.64164762362E-01  0.51100000000E-03 0.  1.
</event>
<event>
 8    1  0.1086235E+005  0.1043930E+01  0.7957747E-01            NaN
         13   -1    0    0    0    0  0.00000000000E+00  0.00000000000E+00  0.74505805969E-08  0.10566000000E+00  0.10566000000E+00 0. -1.
     999900   -1    0    0    0    0 -0.00000000000E+00 -0.00000000000E+00 -0.74505805969E-08  0.93827000000E+00  0.93827000000E+00 0.  1.
     999902    2    1    2    0    0  0.10201476297E-01 -0.18284445620E-02 -0.23017299609E-01  0.10186869929E+01  0.10183741847E+01 0.  0.
     999903    2    3    3    0    0  0.49722266573E-01  0.48035186512E-01 -0.11089504454E+00  0.13202427648E+00  0.18788713110E-01 0.  0.
         14    1    1    2    0    0 -0.10201476297E-01  0.18284445620E-02  0.23017299609E-01  0.25243007140E-01  0.00000000000E+00 0. -1.
     999901    1    3    3    0    0 -0.39520790276E-01 -0.49863631074E-01  0.87877744928E-01  0.88666271638E+00  0.88000000000E+00 0. -1.
        -11    1    4    4    0    0  0.39386469814E-02 -0.11272762966E-02 -0.98925428090E-02  0.10719478351E-01  0.51100000000E-03 0.  1.
         11    1    4    4    0    0  0.45783619592E-01  0.49162462808E-01 -0.10100250173E+00  0.12130479813E+00  0.51100000000E-03 0. -1.
</event>
<event>
 8    1  0.1086235E+005  0.1043930E+01  0.7957747E-01            NaN
         13   -1    0    0    0    0  0.00000000000E+00  0.00000000000E+00  0.74505805969E-08  0.10566000000E+00  0.10566000000E+00 0. -1.
     999900   -1    0    0    0    0 -0.00000000000E+00 -0.00000000000E+00 -0.74505805969E-08  0.93827000000E+00  0.93827000000E+00 0.  1.
     999902    2    1    2    0    0  0.17032123943E-01 -0.11301511214E-02 -0.15731076438E-01  0.10207171317E+01  0.10204531473E+01 0.  0.
     999903    2    3    3    0    0 -0.14418098507E-01 -0.16329334603E-01 -0.12918567638E+00  0.13274636761E+00  0.21403980916E-01 0.  0.
         14    1    1    2    0    0 -0.17032123943E-01  0.11301511214E-02  0.15731076438E-01  0.23212868273E-01  0.00000000000E+00 0. -1.
     999901    1    3    3    0    0  0.31450222450E-01  0.15199183481E-01  0.11345459994E+00  0.88797076411E+00  0.88000000000E+00 0. -1.
        -11    1    4    4    0    0 -0.56533642191E-02 -0.19877418567E-01 -0.78042485668E-01  0.80733902335E-01  0.51100000000E-03 0.  1.
         11    1    4    4    0    0 -0.87647342879E-02  0.35480839645E-02 -0.51143190715E-01  0.52012465279E-01  0.51100000000E-03 0. -1.
</event>
<event>
 8    1  0.1086235E+005  0.1043930E+01  0.7957747E-01            NaN
         13   -1    0    0    0    0  0.00000000000E+00  0.00000000000E+00  0.74505805969E-08  0.10566000000E+00  0.10566000000E+00 0. -1.
     999900   -1    0    0    0    0 -0.00000000000E+00 -0.00000000000E+00 -0.74505805969E-08  0.93827000000E+00  0.93827000000E+00 0.  1.
     999902    2    1    2    0    0  0.19691896076E-01 -0.61801742887E-02  0.94318009579E-02  0.10212380588E+01  0.10209859199E+01 0.  0.
     999903    2    3    3    0    0 -0.38424152483E-01  0.11724282563E+00  0.36925381187E-01  0.13030225363E+00  0.19821651552E-01 0.  0.
         14    1    1    2    0    0 -0.19691896076E-01  0.61801742887E-02 -0.94318009579E-02  0.22691941182E-01  0.00000000000E+00 0. -1.
     999901    1    3    3    0    0  0.58116048559E-01 -0.12342299992E+00 -0.27493580230E-01  0.89093580519E+00  0.88000000000E+00 0. -1.
        -11    1    4    4    0    0 -0.75566221097E-03  0.17301141233E-01  0.98200912495E-04  0.17325451733E-01  0.51100000000E-03 0. -1.
         11    1    4    4    0    0 -0.37668490272E-01  0.99941684396E-01  0.36827180275E-01  0.11297680190E+00  0.51100000000E-03 0.  1.
</event>
<event>
 8    1  0.1086235E+005  0.1043930E+01  0.7957747E-01            NaN
         13   -1    0    0    0    0  0.00000000000E+00  0.00000000000E+00  0.74505805969E-08  0.10566000000E+00  0.10566000000E+00 0.  1.
     999900   -1    0    0    0    0 -0.00000000000E+00 -0.00000000000E+00 -0.74505805969E-08  0.93827000000E+00  0.93827000000E+00 0.  1.
     999902    2    1    2    0    0 -0.15839744028E-01 -0.11295618201E-01 -0.11352891329E-01  0.10214049778E+01  0.10211565757E+01 0.  0.
     999903    2    3    3    0    0  0.44167380401E-01 -0.11063554767E+00 -0.54938319445E-01  0.13271551234E+00  0.20104884289E-01 0.  0.
         14    1    1    2    0    0  0.15839744028E-01  0.11295618201E-01  0.11352891329E-01  0.22525022152E-01  0.00000000000E+00 0.  1.
     999901    1    3    3    0    0 -0.60007124429E-01  0.99339929465E-01  0.43585428116E-01  0.88868946551E+00  0.88000000000E+00 0.  1.
        -11    1    4    4    0    0  0.23953027760E-01 -0.72003439004E-01 -0.25296107126E-01  0.79989980148E-01  0.51100000000E-03 0. -1.
         11    1    4    4    0    0  0.20214352640E-01 -0.38632108662E-01 -0.29642212320E-01  0.52725532188E-01  0.51100000000E-03 0.  1.
</event>
<event>
 7    1  0.1086235E+005  0.1043930E+01  0.7957747E-01            NaN
         13   -1    0    0    0    0  0.00000000000E+00  0.00000000000E+00  0.74505805969E-08  0.10566000000E+00  0.10566000000E+00 0. -1.
     999900   -1    0    0    0    0 -0.00000000000E+00 -0.00000000000E+00 -0.74505805969E-08  0.93827000000E+00  0.93827000000E+00 0. -1.
     999903    2    1    2    0    0 -0.39844648870E-01 -0.12993235922E-02 -0.98121961339E-01  0.10737313778E+00  0.17657495150E-01 0.  0.
         14    1    1    2    0    0 -0.24553373874E-01  0.46335333557E-02 -0.36247141623E-01  0.44024914262E-01  0.00000000000E+00 0.  1.
     999901    1    1    2    0    0  0.64398022744E-01 -0.33342097635E-02  0.13436910296E+00  0.89253194795E+00  0.88000000000E+00 0.  1.
        -11    1    3    3    0    0 -0.64638040974E-02 -0.65708524596E-02 -0.14622185534E-01  0.17292376825E-01  0.51100000000E-03 0.  1.
         11    1    3    3    0    0 -0.33380844773E-01  0.52715288675E-02 -0.83499775805E-01  0.90080760959E-01  0.51100000000E-03 0. -1.
</event>
<event>
 8    1  0.1086235E+005  0.1043930E+01  0.7957747E-01            NaN
         13   -1    0    0    0    0  0.00000000000E+00  0.00000000000E+00  0.74505805969E-08  0.10566000000E+00  0.10566000000E+00 0. -1.
     999900   -1    0    0    0    0 -0.00000000000E+00 -0.00000000000E+00 -0.74505805969E-08  0.93827000000E+00  0.93827000000E+00 0.  1.
     999902    2    1    2    0    0  0.15972698787E-01 -0.93975377162E-02  0.15335370012E-01  0.10198755951E+01  0.10195918865E+01 0.  0.
     999903    2    3    3    0    0 -0.64397825661E-01  0.86883172613E-01  0.68028288894E-01  0.12942293489E+00  0.20656290849E-01 0.  0.
         14    1    1    2    0    0 -0.15972698787E-01  0.93975377162E-02 -0.15335370012E-01  0.24054404900E-01  0.00000000000E+00 0.  1.
     999901    1    3    3    0    0  0.80370524448E-01 -0.96280710329E-01 -0.52692918882E-01  0.89045266021E+00  0.88000000000E+00 0.  1.
        -11    1    4    4    0    0 -0.58985544029E-01  0.66673908037E-01  0.52350490382E-01  0.10327409831E+00  0.51100000000E-03 0. -1.
         11    1    4    4    0    0 -0.54122816316E-02  0.20209264576E-01  0.15677798512E-01  0.26148836577E-01  0.51100000000E-03 0.  1.
</event>
<event>
 8    1  0.1086235E+005  0.1043930E+01  0.7957747E-01            NaN
         13   -1    0    0    0    0  0.00000000000E+00  0.00000000000E+00  0.74505805969E-08  0.10566000000E+00  0.10566000000E+00 0.  1.
     999900   -1    0    0    0    0 -0.00000000000E+00 -0.00000000000E+00 -0.74505805969E-08  0.93827000000E+00  0.93827000000E+00 0.  1.
     999902    2    1    2    0    0  0.10328075701E-01  0.10462404762E-01  0.19344106037E-01  0.10196333850E+01  0.10193438646E+01 0.  0.
     999903    2    3    3    0    0 -0.35581267642E-01 -0.11750364805E+00 -0.29407541218E-01  0.12786003849E+00  0.20254679655E-01 0.  0.
         14    1    1    2    0    0 -0.10328075701E-01 -0.10462404762E-01 -0.19344106037E-01  0.24296614979E-01  0.00000000000E+00 0. -1.
     999901    1    3    3    0    0  0.45909343343E-01  0.12796605282E+00  0.48751647255E-01  0.89177334653E+00  0.88000000000E+00 0. -1.
        -11    1    4    4    0    0 -0.27441303671E-01 -0.84480350246E-01 -0.11952712551E-01  0.89627468910E-01  0.51100000000E-03 0. -1.
         11    1    4    4    0    0 -0.81399639718E-02 -0.33023297809E-01 -0.17454828666E-01  0.38232569576E-01  0.51100000000E-03 0.  1.
</event>
<event>
 8    1  0.1086235E+005  0.1043930E+01  0.7957747E-01            NaN
         13   -1    0    0    0    0  0.00000000000E+00  0.00000000000E+00  0.74505805969E-08  0.10566000000E+00  0.10566000000E+00 0.  1.
     999900   -1    0    0    0    0 -0.00000000000E+00 -0.00000000000E+00 -0.74505805969E-08  0.93827000000E+00  0.93827000000E+00 0.  1.
     999902    2    1    2    0    0  0.72324300996E-02 -0.16152455038E-01  0.19183106825E-01  0.10178301641E+01  0.10174954749E+01 0.  0.
     999903    2    3    3    0    0 -0.10866643916E+00 -0.30098860598E-01  0.59555928256E-01  0.12920368750E+00  0.20792976315E-01 0.  0.
         14    1    1    2    0    0 -0.72324300996E-02  0.16152455038E-01 -0.19183106825E-01  0.26099835945E-01  0.00000000000E+00 0.  1.
     999901    1    3    3    0    0  0.11589886926E+00  0.13946405560E-01 -0.40372821431E-01  0.88862647655E+00  0.88000000000E+00 0. -1.
        -11    1    4    4    0    0 -0.10369406548E+00 -0.23405761625E-01  0.55055593413E-01  0.11971494635E+00  0.51100000000E-03 0.  1.
         11    1    4    4    0    0 -0.49723736818E-02 -0.66930989732E-02  0.45003348423E-02  0.94887411488E-02  0.51100000000E-03 0. -1.
</event>
<event>
 8    1  0.1086235E+005  0.1043930E+01  0.7957747E-01            NaN
         13   -1    0    0    0    0  0.00000000000E+00  0.00000000000E+00  0.74505805969E-08  0.10566000000E+00  0.10566000000E+00 0. -1.
     999900   -1    0    0    0    0 -0.00000000000E+00 -0.00000000000E+00 -0.74505805969E-08  0.93827000000E+00  0.93827000000E+00 0. -1.
     999902    2    1    2    0    0 -0.43163239416E-02  0.11302729453E-01  0.19449444027E-01  0.10210244719E+01  0.10207675097E+01 0.  0.
     999903    2    3    3    0    0 -0.98968411318E-01 -0.64101496192E-01  0.57695558840E-01  0.13191953984E+00  0.13047575547E-01 0.  0.
         14    1    1    2    0    0  0.43163239416E-02 -0.11302729453E-01 -0.19449444027E-01  0.22905528119E-01  0.00000000000E+00 0.  1.
     999901    1    3    3    0    0  0.94652087376E-01  0.75404225644E-01 -0.38246114813E-01  0.88910493205E+00  0.88000000000E+00 0.  1.
        -11    1    4    4    0    0 -0.76413928511E-01 -0.45623524917E-01  0.48421169463E-01  0.10131863239E+00  0.51100000000E-03 0. -1.
         11    1    4    4    0    0 -0.22554482807E-01 -0.18477971275E-01  0.92743893779E-02  0.30600907445E-01  0.51100000000E-03 0.  1.
</event>
<event>
 8    1  0.1086235E+005  0.1043930E+01  0.7957747E-01            NaN
         13   -1    0    0    0    0  0.00000000000E+00  0.00000000000E+00  0.74505805969E-08  0.10566000000E+00  0.10566000000E+00 0.  1.
     999900   -1    0    0    0    0 -0.00000000000E+00 -0.00000000000E+00 -0.74505805969E-08  0.93827000000E+00  0.93827000000E+00 0.  1.
     999902    2    1    2    0    0  0.10283259768E-01 -0.82326854864E-02  0.18536091525E-01  0.10211899641E+01  0.10209367432E+01 0.  0.
     999903    2    3    3    0    0  0.50620979898E-01  0.11902025420E+00 -0.17250367725E-02  0.13089172443E+00  0.20034052394E-01 0.  0.
         14    1    1    2    0    0 -0.10283259768E-01  0.82326854864E-02 -0.18536091525E-01  0.22740035857E-01  0.00000000000E+00 0. -1.
     999901    1    3    3    0    0 -0.40337720129E-01 -0.12725293969E+00  0.20261128297E-01  0.89029823972E+00  0.88000000000E+00 0.  1.
        -11    1    4    4    0    0  0.25243393774E-01  0.76746494105E-01 -0.79873301993E-02  0.81186894578E-01  0.51100000000E-03 0.  1.
         11    1    4    4    0    0  0.25377586124E-01  0.42273760096E-01  0.62622934268E-02  0.49704829847E-01  0.51100000000E-03 0. -1.
</event>
<event>
 8    1  0.1086235E+005  0.1043930E+01  0.7957747E-01            NaN
         13   -1    0    0    0    0  0.00000000000E+00  0.00000000000E+00  0.74505805969E-08  0.10566000000E+00  0.10566000000E+00 0. -1.
     999900   -1    0    0    0    0 -0.00000000000E+00 -0.00000000000E+00 -0.74505805969E-08  0.93827000000E+00  0.93827000000E+00 0.  1.
     999902    2    1    2    0    0 -0.10562185627E-01  0.12836796981E-01 -0.16774371855E-01  0.10203138472E+01  0.10200405012E+01 0.  0.
     999903    2    3    3    0    0  0.65248531120E-01  0.65276511430E-01 -0.90323866228E-01  0.13244746280E+00  0.29419990378E-01 0.  0.
         14    1    1    2    0    0  0.10562185627E-01 -0.12836796981E-01  0.16774371855E-01  0.23616152800E-01  0.00000000000E+00 0. -1.
     999901    1    3    3    0    0 -0.75810716747E-01 -0.52439714449E-01  0.73549494373E-01  0.88786638440E+00  0.88000000000E+00 0. -1.
        -11    1    4    4    0    0  0.10823675792E-01  0.26763884255E-01 -0.37816624893E-01  0.47579572270E-01  0.51100000000E-03 0.  1.
         11    1    4    4    0    0  0.54424855327E-01  0.38512627175E-01 -0.52507241335E-01  0.84867890530E-01  0.51100000000E-03 0. -1.
</event>
<event>
 8    1  0.1086235E+005  0.1043930E+01  0.7957747E-01            NaN
         13   -1    0    0    0    0  0.00000000000E+00  0.00000000000E+00  0.74505805969E-08  0.10566000000E+00  0.10566000000E+00 0.  1.
     999900   -1    0    0    0    0 -0.00000000000E+00 -0.00000000000E+00 -0.74505805969E-08  0.93827000000E+00  0.93827000000E+00 0. -1.
     999902    2    1    2    0    0  0.15403811495E-01 -0.11403719971E-01 -0.14320619339E-01  0.10200050679E+01  0.10197244413E+01 0.  0.
     999903    2    3    3    0    0  0.12890064792E+00  0.10634953447E-01  0.16432591702E-01  0.13190991816E+00  0.20042883232E-01 0.  0.
         14    1    1    2    0    0 -0.15403811495E-01  0.11403719971E-01  0.14320619339E-01  0.23924932100E-01  0.00000000000E+00 0.  1.
     999901    1    3    3    0    0 -0.11349683643E+00 -0.22038673418E-01 -0.30753211041E-01  0.88809514974E+00  0.88000000000E+00 0. -1.
        -11    1    4    4    0    0  0.79952580240E-01  0.16098966226E-01  0.81719787059E-02  0.81967274919E-01  0.51100000000E-03 0. -1.
         11    1    4    4    0    0  0.48948067684E-01 -0.54640127791E-02  0.82606129960E-02  0.49942643240E-01  0.51100000000E-03 0.  1.
</event>
<event>
 8    1  0.1086235E+005  0.1043930E+01  0.7957747E-01            NaN
         13   -1    0    0    0    0  0.00000000000E+00  0.00000000000E+00  0.74505805969E-08  0.10566000000E+00  0.10566000000E+00 0. -1.
     999900   -1    0    0    0    0 -0.00000000000E+00 -0.00000000000E+00 -0.74505805969E-08  0.93827000000E+00  0.93827000000E+00 0.  1.
     999902    2    1    2    0    0  0.20033905725E-01 -0.29363176510E-02  0.12453130775E-01  0.10201590134E+01  0.10198820288E+01 0.  0.
     999903    2    3    3    0    0 -0.71084836951E-01 -0.64978171726E-01 -0.83406592910E-01  0.12811590703E+00  0.13483658523E-01 0.  0.
         14    1    1    2    0    0 -0.20033905725E-01  0.29363176510E-02 -0.12453130775E-01  0.23770986644E-01  0.00000000000E+00 0.  1.
     999901    1    3    3    0    0  0.91118742676E-01  0.62041854075E-01  0.95859723685E-01  0.89204310633E+00  0.88000000000E+00 0. -1.
        -11    1    4    4    0    0 -0.65686660517E-01 -0.58759302450E-01 -0.70803040490E-01  0.11305186711E+00  0.51100000000E-03 0. -1.
         11    1    4    4    0    0 -0.53981764334E-02 -0.62188692767E-02 -0.12603552420E-01  0.15064039913E-01  0.51100000000E-03 0.  1.
</event>
<event>
 8    1  0.1086235E+005  0.1043930E+01  0.7957747E-01            NaN
         13   -1    0    0    0    0  0.00000000000E+00  0.00000000000E+00  0.74505805969E-08  0.10566000000E+00  0.10566000000E+00 0.  1.
     999900   -1    0    0    0    0 -0.00000000000E+00 -0.00000000000E+00 -0.74505805969E-08  0.93827000000E+00  0.93827000000E+00 0.  1.
     999902    2    1    2    0    0  0.17713256720E-01  0.37461455953E-02 -0.18101683156E-01  0.10183279688E+01  0.10180060844E+01 0.  0.
     999903    2    3    3    0    0  0.10709612490E+00 -0.26294862163E-01  0.65098170118E-01  0.12938816492E+00  0.18507450459E-01 0.  0.
         14    1    1    2    0    0 -0.17713256720E-01 -0.37461455953E-02  0.18101683156E-01  0.25602031238E-01  0.00000000000E+00 0.  1.
     999901    1    3    3    0    0 -0.89382868185E-01  0.30041007758E-01 -0.83199853274E-01  0.88893980384E+00  0.88000000000E+00 0.  1.
        -11    1    4    4    0    0  0.29306913755E-01 -0.11170215476E-01  0.27317907570E-01  0.41595650044E-01  0.51100000000E-03 0.  1.
         11    1    4    4    0    0  0.77789211150E-01 -0.15124646687E-01  0.37780262548E-01  0.87792514874E-01  0.51100000000E-03 0. -1.
</event>
<event>
 8    1  0.1086235E+005  0.1043930E+01  0.7957747E-01            NaN
         13   -1    0    0    0    0  0.00000000000E+00  0.00000000000E+00  0.74505805969E-08  0.10566000000E+00  0.10566000000E+00 0. -1.
     999900   -1    0    0    0    0 -0.00000000000E+00 -0.00000000000E+00 -0.74505805969E-08  0.93827000000E+00  0.93827000000E+00 0.  1.
     999902    2    1    2    0    0  0.10577967380E-01  0.14882462513E-01  0.14394821787E-01  0.10206793661E+01  0.10204145120E+01 0.  0.
     999903    2    3    3    0    0 -0.19153260642E-01 -0.26162599935E-01 -0.12284037165E+00  0.12860193591E+00  0.19934191294E-01 0.  0.
         14    1    1    2    0    0 -0.10577967380E-01 -0.14882462513E-01 -0.14394821787E-01  0.23250633940E-01  0.00000000000E+00 0.  1.
     999901    1    3    3    0    0  0.29731228021E-01  0.41045062449E-01  0.13723519344E+00  0.89207743015E+00  0.88000000000E+00 0. -1.
        -11    1    4    4    0    0 -0.18005781358E-01 -0.12401653931E-01 -0.95450942812E-01  0.97924219616E-01  0.51100000000E-03 0.  1.
         11    1    4    4    0    0 -0.11474792843E-02 -0.13760946004E-01 -0.27389428840E-01  0.30677716291E-01  0.51100000000E-03 0. -1.
</event>
<event>
 8    1  0.1086235E+005  0.1043930E+01  0.7957747E-01            NaN
         13   -1    0    0    0    0  0.00000000000E+00  0.00000000000E+00  0.74505805969E-08  0.10566000000E+00  0.10566000000E+00 0. -1.
     999900   -1    0    0    0    0 -0.00000000000E+00 -0.00000000000E+00 -0.74505805969E-08  0.93827000000E+00  0.93827000000E+00 0.  1.
     999902    2    1    2    0    0 -0.22681978004E-01  0.38998178589E-02 -0.57250821267E-02  0.10202138184E+01  0.10199381246E+01 0.  0.
     999903    2    3    3    0    0 -0.11992236950E-01 -0.11968597453E+00  0.45162563398E-01  0.13005806172E+00  0.20171664262E-01 0.  0.
         14    1    1    2    0    0  0.22681978004E-01 -0.38998178589E-02  0.57250821267E-02  0.23716181625E-01  0.00000000000E+00 0.  1.
     999901    1    3    3    0    0 -0.10689741053E-01  0.12358579239E+00 -0.50887645525E-01  0.89015575666E+00  0.88000000000E+00 0.  1.
        -11    1    4    4    0    0 -0.10312867815E-03 -0.82261421727E-01  0.35623745087E-01  0.89645214457E-01  0.51100000000E-03 0. -1.
         11    1    4    4    0    0 -0.11889108272E-01 -0.37424552802E-01  0.95388183113E-02  0.40412847261E-01  0.51100000000E-03 0.  1.
</event>
<event>
 8    1  0.1086235E+005  0.1043930E+01  0.7957747E-01            NaN
         13   -1    0    0    0    0  0.00000000000E+00  0.00000000000E+00  0.74505805969E-08  0.10566000000E+00  0.10566000000E+00 0.  1.
     999900   -1    0    0    0    0 -0.00000000000E+00 -0.00000000000E+00 -0.74505805969E-08  0.93827000000E+00  0.93827000000E+00 0. -1.
     999902    2    1    2    0    0  0.20213565106E-01 -0.72353449777E-02 -0.97094315249E-02  0.10203670738E+01  0.10200949729E+01 0.  0.
     999903    2    3    3    0    0  0.94237303948E-01 -0.89200888582E-01  0.21598850285E-01  0.13291111839E+00  0.19010183586E-01 0.  0.
         14    1    1    2    0    0 -0.20213565106E-01  0.72353449777E-02  0.97094315249E-02  0.23562926214E-01  0.00000000000E+00 0.  1.
     999901    1    3    3    0    0 -0.74023738842E-01  0.81965543605E-01 -0.31308281810E-01  0.88745595539E+00  0.88000000000E+00 0.  1.
        -11    1    4    4    0    0  0.41298249287E-01 -0.46965996118E-01  0.27082816227E-02  0.62601486372E-01  0.51100000000E-03 0.  1.
         11    1    4    4    0    0  0.52939054660E-01 -0.42234892464E-01  0.18890568662E-01  0.70309632023E-01  0.51100000000E-03 0. -1.
</event>
<event>
 8    1  0.1086235E+005  0.1043930E+01  0.7957747E-01            NaN
         13   -1    0    0    0    0  0.00000000000E+00  0.00000000000E+00  0.74505805969E-08  0.10566000000E+00  0.10566000000E+00 0.  1.
     999900   -1    0    0    0    0 -0.00000000000E+00 -0.00000000000E+00 -0.74505805969E-08  0.93827000000E+00  0.93827000000E+00 0.  1.
     999902    2    1    2    0    0 -0.16991644992E-01  0.81380998120E-02 -0.16363910245E-01  0.10189755970E+01  0.10186699883E+01 0.  0.
     999903    2    3    3    0    0  0.25955939372E-01  0.12419647512E+00 -0.22178800703E-01  0.13029800960E+00  0.19677319076E-01 0.  0.
         14    1    1    2    0    0  0.16991644992E-01 -0.81380998120E-02  0.16363910245E-01  0.24954402950E-01  0.00000000000E+00 0.  1.
     999901    1    3    3    0    0 -0.42947584364E-01 -0.11605837530E+00  0.58148904579E-02  0.88867758745E+00  0.88000000000E+00 0. -1.
        -11    1    4    4    0    0  0.10104631908E-01  0.91416148375E-01 -0.15278614174E-01  0.93234719616E-01  0.51100000000E-03 0.  1.
         11    1    4    4    0    0  0.15851307464E-01  0.32780326740E-01 -0.69001865289E-02  0.37063289986E-01  0.51100000000E-03 0. -1.
</event>
<event>
 8    1  0.1086235E+005  0.1043930E+01  0.7957747E-01            NaN
         13   -1    0    0    0    0  0.00000000000E+00  0.00000000000E+00  0.74505805969E-08  0.10566000000E+00  0.10566000000E+00 0. -1.
     999900   -1    0    0    0    0 -0.00000000000E+00 -0.00000000000E+00 -0.74505805969E-08  0.93827000000E+00  0.93827000000E+00 0.  1.
     999902    2    1    2    0    0  0.20841515063E-01  0.10621561380E-01 -0.13352689338E-02  0.10204999070E+01  0.10202309008E+01 0.  0.
     999903    2    3    3    0    0 -0.63477505194E-01 -0.82275469248E-01  0.72824199233E-01  0.12851381840E+00  0.20341853929E-01 0.  0.
         14    1    1    2    0    0 -0.20841515063E-01 -0.10621561380E-01  0.13352689338E-02  0.23430093030E-01  0.00000000000E+00 0. -1.
     999901    1    3    3    0    0  0.84319020257E-01  0.92897030628E-01 -0.74159468166E-01  0.89198608857E+00  0.88000000000E+00 0.  1.
        -11    1    4    4    0    0 -0.42032326284E-01 -0.63923848365E-01  0.61246237698E-01  0.98001722412E-01  0.51100000000E-03 0.  1.
         11    1    4    4    0    0 -0.21445178910E-01 -0.18351620883E-01  0.11577961535E-01  0.30512095992E-01  0.51100000000E-03 0. -1.
</event>
<event>
 8    1  0.1086235E+005  0.1043930E+01  0.7957747E-01            NaN
         13   -1    0    0    0    0  0.00000000000E+00  0.00000000000E+00  0.74505805969E-08  0.10566000000E+00  0.10566000000E+00 0.  1.
     999900   -1    0    0    0    0 -0.00000000000E+00 -0.00000000000E+00 -0.74505805969E-08  0.93827000000E+00  0.93827000000E+00 0.  1.
     999902    2    1    2    0    0 -0.45954407076E-02 -0.34829803951E-02  0.22700287266E-01  0.10205088073E+01  0.10202400077E+01 0.  0.
     999903    2    3    3    0    0 -0.59168154244E-01  0.11478604386E+00  0.31635904796E-02  0.13070690476E+00  0.19939415863E-01 0.  0.
         14    1    1    2    0    0  0.45954407076E-02  0.34829803951E-02 -0.22700287266E-01  0.23421192747E-01  0.00000000000E+00 0. -1.
     999901    1    3    3    0    0  0.54572713536E-01 -0.11826902426E+00  0.19536696786E-01  0.88980190249E+00  0.88000000000E+00 0.  1.
        -11    1    4    4    0    0 -0.41370193797E-01  0.63072037553E-01 -0.40511464221E-02  0.75539709850E-01  0.51100000000E-03 0. -1.
         11    1    4    4    0    0 -0.17797960446E-01  0.51714006309E-01  0.72147369017E-02  0.55167194909E-01  0.51100000000E-03 0.  1.
</event>
<event>
 8    1  0.1086235E+005  0.1043930E+01  0.7957747E-01            NaN
         13   -1    0    0    0    0  0.00000000000E+00  0.00000000000E+00  0.74505805969E-08  0.10566000000E+00  0.10566000000E+00 0.  1.
     999900   -1    0    0    0    0 -0.00000000000E+00 -0.00000000000E+00 -0.74505805969E-08  0.93827000000E+00  0.93827000000E+00 0.  1.
     999902    2    1    2    0    0 -0.23771865437E-01  0.85134529855E-02  0.15952812516E-01  0.10140624140E+01  0.10136224676E+01 0.  0.
     999903    2    3    3    0    0  0.36203912193E-01 -0.44695730199E-01  0.10971083349E+00  0.12545739622E+00  0.19866044485E-01 0.  0.
         14    1    1    2    0    0  0.23771865437E-01 -0.85134529855E-02 -0.15952812516E-01  0.29867586030E-01  0.00000000000E+00 0. -1.
     999901    1    3    3    0    0 -0.59975777630E-01  0.53209183185E-01 -0.93758020978E-01  0.88860501775E+00  0.88000000000E+00 0.  1.
        -11    1    4    4    0    0  0.15633637817E-01 -0.56294135387E-02  0.32844256233E-01  0.36811780949E-01  0.51100000000E-03 0. -1.
         11    1    4    4    0    0  0.20570274376E-01 -0.39066316661E-01  0.76866577262E-01  0.88645615268E-01  0.51100000000E-03 0.  1.
</event>
<event>
 8    1  0.1086235E+005  0.1043930E+01  0.7957747E-01            NaN
         13   -1    0    0    0    0  0.00000000000E+00  0.00000000000E+00  0.74505805969E-08  0.10566000000E+00  0.10566000000E+00 0.  1.
     999900   -1    0    0    0    0 -0.00000000000E+00 -0.00000000000E+00 -0.74505805969E-08  0.93827000000E+00  0.93827000000E+00 0.  1.
     999902    2    1    2    0    0  0.11277487720E-01  0.20207854557E-01 -0.61504558719E-02  0.10199849124E+01  0.10197038071E+01 0.  0.
     999903    2    3    3    0    0 -0.72172794818E-01  0.35102589387E-01  0.99791306387E-01  0.12958642865E+00  0.19830117684E-01 0.  0.
         14    1    1    2    0    0 -0.11277487720E-01 -0.20207854557E-01  0.61504558719E-02  0.23945087648E-01  0.00000000000E+00 0.  1.
     999901    1    3    3    0    0  0.83450282538E-01 -0.14894734830E-01 -0.10594176226E+00  0.89039848370E+00  0.88000000000E+00 0.  1.
        -11    1    4    4    0    0 -0.58044618158E-02  0.81064106259E-02  0.19953379044E-01  0.22311524521E-01  0.51100000000E-03 0. -1.
         11    1    4    4    0    0 -0.66368333002E-01  0.26996178761E-01  0.79837927343E-01  0.10727490413E+00  0.51100000000E-03 0.  1.
</event>
<event>
 8    1  0.1086235E+005  0.1043930E+01  0.7957747E-01            NaN
         13   -1    0    0    0    0  0.00000000000E+00  0.00000000000E+00  0.74505805969E-08  0.10566000000E+00  0.10566000000E+00 0.  1.
     999900   -1    0    0    0    0 -0.00000000000E+00 -0.00000000000E+00 -0.74505805969E-08  0.93827000000E+00  0.93827000000E+00 0. -1.
     999902    2    1    2    0    0  0.23100228834E-01  0.59048912856E-02 -0.36770580896E-02  0.10198051359E+01  0.10195197429E+01 0.  0.
     999903    2    3    3    0    0 -0.11267569343E+00 -0.25128172372E-02  0.57309905104E-01  0.12726641482E+00  0.14497895686E-01 0.  0.
         14    1    1    2    0    0 -0.23100228834E-01 -0.59048912856E-02  0.36770580896E-02  0.24124864134E-01  0.00000000000E+00 0.  1.
     999901    1    3    3    0    0  0.13577592226E+00  0.84177085227E-02 -0.60986963193E-01  0.89253872104E+00  0.88000000000E+00 0. -1.
        -11    1    4    4    0    0 -0.46046972010E-01 -0.75826031890E-02  0.26677633856E-01  0.53756643977E-01  0.51100000000E-03 0.  1.
         11    1    4    4    0    0 -0.66628721416E-01  0.50697859518E-02  0.30632271247E-01  0.73509770846E-01  0.51100000000E-03 0. -1.
</event>
<event>
 8    1  0.1086235E+005  0.1043930E+01  0.7957747E-01            NaN
         13   -1    0    0    0    0  0.00000000000E+00  0.00000000000E+00  0.74505805969E-08  0.10566000000E+00  0.10566000000E+00 0. -1.
     999900   -1    0    0    0    0 -0.00000000000E+00 -0.00000000000E+00 -0.74505805969E-08  0.93827000000E+00  0.93827000000E+00 0. -1.
     999902    2    1    2    0    0  0.57863971447E-02  0.14573328447E-01  0.17695895077E-01  0.10202866289E+01  0.10200126451E+01 0.  0.
     999903    2    3    3    0    0  0.11861051586E+00  0.53773623568E-01 -0.57472548332E-02  0.13190859779E+00  0.20169039846E-01 0.  0.
         14    1    1    2    0    0 -0.57863971447E-02 -0.14573328447E-01 -0.17695895077E-01  0.23643371090E-01  0.00000000000E+00 0.  1.
     999901    1    3    3    0    0 -0.11282411871E+00 -0.39200295122E-01  0.23443149910E-01  0.88837803112E+00  0.88000000000E+00 0. -1.
        -11    1    4    4    0    0  0.65317998540E-01  0.31089751678E-01  0.67451100400E-02  0.72655152764E-01  0.51100000000E-03 0.  1.
         11    1    4    4    0    0  0.53292517319E-01  0.22683871890E-01 -0.12492364873E-01  0.59253445024E-01  0.51100000000E-03 0. -1.
</event>
<event>
 8    1  0.1086235E+005  0.1043930E+01  0.7957747E-01            NaN
         13   -1    0    0    0    0  0.00000000000E+00  0.00000000000E+00  0.74505805969E-08  0.10566000000E+00  0.10566000000E+00 0. -1.
     999900   -1    0    0    0    0 -0.00000000000E+00 -0.00000000000E+00 -0.74505805969E-08  0.93827000000E+00  0.93827000000E+00 0.  1.
     999902    2    1    2    0    0 -0.20381072736E-01 -0.39937357379E-02  0.10926195499E-01  0.10204625801E+01  0.10201927061E+01 0.  0.
     999903    2    3    3    0    0  0.32784607944E-01  0.36941175478E-01 -0.11719576583E+00  0.12865683128E+00  0.19448695141E-01 0.  0.
         14    1    1    2    0    0  0.20381072736E-01  0.39937357379E-02 -0.10926195499E-01  0.23467419950E-01  0.00000000000E+00 0.  1.
     999901    1    3    3    0    0 -0.53165680680E-01 -0.40934911216E-01  0.12812196133E+00  0.89180574877E+00  0.88000000000E+00 0. -1.
        -11    1    4    4    0    0  0.11557337522E-01  0.48596677065E-02 -0.46588425074E-01  0.48248636174E-01  0.51100000000E-03 0. -1.
         11    1    4    4    0    0  0.21227270422E-01  0.32081507772E-01 -0.70607340760E-01  0.80408195109E-01  0.51100000000E-03 0.  1.
</event>
<event>
 8    1  0.1086235E+005  0.1043930E+01  0.7957747E-01            NaN
         13   -1    0    0    0    0  0.00000000000E+00  0.00000000000E+00  0.74505805969E-08  0.10566000000E+00  0.10566000000E+00 0. -1.
     999900   -1    0    0    0    0 -0.00000000000E+00 -0.00000000000E+00 -0.74505805969E-08  0.93827000000E+00  0.93827000000E+00 0. -1.
     999902    2    1    2    0    0  0.20837278239E-01 -0.39406060736E-02  0.93349079032E-02  0.10207597379E+01  0.10204967327E+01 0.  0.
     999903    2    3    3    0    0  0.10919468556E+00  0.69759555701E-01 -0.19905247790E-01  0.13278804241E+00  0.21132211210E-01 0.  0.
         14    1    1    2    0    0 -0.20837278239E-01  0.39406060736E-02 -0.93349079032E-02  0.23170262109E-01  0.00000000000E+00 0. -1.
     999901    1    3    3    0    0 -0.88357407322E-01 -0.73700161775E-01  0.29240155693E-01  0.88797169548E+00  0.88000000000E+00 0. -1.
        -11    1    4    4    0    0  0.72795278987E-01  0.34534779417E-01 -0.14156859242E-01  0.81807587771E-01  0.51100000000E-03 0. -1.
         11    1    4    4    0    0  0.36399406574E-01  0.35224776284E-01 -0.57483885481E-02  0.50980454637E-01  0.51100000000E-03 0.  1.
</event>
<event>
 8    1  0.1086235E+005  0.1043930E+01  0.7957747E-01            NaN
         13   -1    0    0    0    0  0.00000000000E+00  0.00000000000E+00  0.74505805969E-08  0.10566000000E+00  0.10566000000E+00 0.  1.
     999900   -1    0    0    0    0 -0.00000000000E+00 -0.00000000000E+00 -0.74505805969E-08  0.93827000000E+00  0.93827000000E+00 0.  1.
     999902    2    1    2    0    0 -0.93760289308E-02 -0.42241084764E-02  0.20851845164E-01  0.10206802160E+01  0.10204153815E+01 0.  0.
     999903    2    3    3    0    0 -0.39284524253E-01 -0.12200821733E+00 -0.18474611445E-01  0.13145910478E+00  0.22603230312E-01 0.  0.
         14    1    1    2    0    0  0.93760289308E-02  0.42241084764E-02 -0.20851845164E-01  0.23249784035E-01  0.00000000000E+00 0. -1.
     999901    1    3    3    0    0  0.29908495323E-01  0.11778410885E+00  0.39326456609E-01  0.88922111119E+00  0.88000000000E+00 0. -1.
        -11    1    4    4    0    0 -0.16818459245E-01 -0.50658599554E-01 -0.18976507130E-01  0.56652654166E-01  0.51100000000E-03 0.  1.
         11    1    4    4    0    0 -0.22466065008E-01 -0.71349617771E-01  0.50189568549E-03  0.74806450613E-01  0.51100000000E-03 0. -1.
</event>
<event>
 8    1  0.1086235E+005  0.1043930E+01  0.7957747E-01            NaN
         13   -1    0    0    0    0  0.00000000000E+00  0.00000000000E+00  0.74505805969E-08  0.10566000000E+00  0.10566000000E+00 0.  1.
     999900   -1    0    0    0    0 -0.00000000000E+00 -0.00000000000E+00 -0.74505805969E-08  0.93827000000E+00  0.93827000000E+00 0.  1.
     999902    2    1    2    0    0  0.10489290067E-01 -0.21677668722E-01 -0.70353684162E-03  0.10198376466E+01  0.10195530315E+01 0.  0.
     999903    2    3    3    0    0  0.19466953071E-01  0.12293966250E+00  0.21975145185E-01  0.12770027293E+00  0.18202467505E-01 0.  0.
         14    1    1    2    0    0 -0.10489290067E-01  0.21677668722E-01  0.70353684162E-03  0.24092353381E-01  0.00000000000E+00 0.  1.
     999901    1    3    3    0    0 -0.89776630039E-02 -0.14461733122E+00 -0.22678682026E-01  0.89213737369E+00  0.88000000000E+00 0.  1.
        -11    1    4    4    0    0  0.18031928844E-01  0.89752724652E-01  0.23250400332E-01  0.94453926741E-01  0.51100000000E-03 0. -1.
         11    1    4    4    0    0  0.14350242266E-02  0.33186937844E-01 -0.12752551475E-02  0.33246346185E-01  0.51100000000E-03 0.  1.
</event>
<event>
 8    1  0.1086235E+005  0.1043930E+01  0.7957747E-01            NaN
         13   -1    0    0    0    0  0.00000000000E+00  0.00000000000E+00  0.74505805969E-08  0.10566000000E+00  0.10566000000E+00 0. -1.
     999900   -1    0    0    0    0 -0.00000000000E+00 -0.00000000000E+00 -0.74505805969E-08  0.93827000000E+00  0.93827000000E+00 0.  1.
     999902    2    1    2    0    0 -0.75246820704E-02  0.14469065945E-01 -0.15144764912E-01  0.10216737961E+01  0.10214313520E+01 0.  0.
     999903    2    3    3    0    0  0.11279649962E+00  0.62625179289E-01 -0.20514069862E-01  0.13216548949E+00  0.20048095720E-01 0.  0.
         14    1    1    2    0    0  0.75246820704E-02 -0.14469065945E-01  0.15144764912E-01  0.22256203940E-01  0.00000000000E+00 0. -1.
     999901    1    3    3    0    0 -0.12032118169E+00 -0.48156113344E-01  0.53693049496E-02  0.88950830657E+00  0.88000000000E+00 0. -1.
        -11    1    4    4    0    0  0.57366206630E-01  0.22689815684E-01 -0.15796929531E-01  0.63682913741E-01  0.51100000000E-03 0. -1.
         11    1    4    4    0    0  0.55430292994E-01  0.39935363605E-01 -0.47171403310E-02  0.68482575751E-01  0.51100000000E-03 0.  1.
</event>
<event>
 8    1  0.1086235E+005  0.1043930E+01  0.7957747E-01            NaN
         13   -1    0    0    0    0  0.00000000000E+00  0.00000000000E+00  0.74505805969E-08  0.10566000000E+00  0.10566000000E+00 0.  1.
     999900   -1    0    0    0    0 -0.00000000000E+00 -0.00000000000E+00 -0.74505805969E-08  0.93827000000E+00  0.93827000000E+00 0. -1.
     999902    2    1    2    0    0 -0.12281678057E-01 -0.13879566718E-01  0.11409087535E-01  0.10221665153E+01  0.10219348001E+01 0.  0.
     999903    2    3    3    0    0  0.53849028539E-02  0.85387561741E-01 -0.95829441276E-01  0.12994111051E+00  0.19528889048E-01 0.  0.
         14    1    1    2    0    0  0.12281678057E-01  0.13879566718E-01 -0.11409087535E-01  0.21763484706E-01  0.00000000000E+00 0. -1.
     999901    1    3    3    0    0 -0.17666580910E-01 -0.99267128459E-01  0.10723852881E+00  0.89222540478E+00  0.88000000000E+00 0.  1.
        -11    1    4    4    0    0  0.87505834410E-02  0.74043470326E-01 -0.73679071030E-01  0.10482306443E+00  0.51100000000E-03 0.  1.
         11    1    4    4    0    0 -0.33656805871E-02  0.11344091416E-01 -0.22150370246E-01  0.25118046080E-01  0.51100000000E-03 0. -1.
</event>
<event>
 8    1  0.1086235E+005  0.1043930E+01  0.7957747E-01            NaN
         13   -1    0    0    0    0  0.00000000000E+00  0.00000000000E+00  0.74505805969E-08  0.10566000000E+00  0.10566000000E+00 0. -1.
     999900   -1    0    0    0    0 -0.00000000000E+00 -0.00000000000E+00 -0.74505805969E-08  0.93827000000E+00  0.93827000000E+00 0. -1.
     999902    2    1    2    0    0 -0.32124002315E-02  0.12067039219E-01 -0.21614166204E-01  0.10189679261E+01  0.10186621272E+01 0.  0.
     999903    2    3    3    0    0  0.12718000017E+00  0.40002880267E-02 -0.11891430237E-02  0.12908903993E+00  0.21721220535E-01 0.  0.
         14    1    1    2    0    0  0.32124002315E-02 -0.12067039219E-01  0.21614166204E-01  0.24962073861E-01  0.00000000000E+00 0. -1.
     999901    1    3    3    0    0 -0.13039240040E+00  0.80667511920E-02 -0.20425023180E-01  0.88987888621E+00  0.88000000000E+00 0. -1.
        -11    1    4    4    0    0  0.10828085295E+00 -0.36303234902E-02  0.24917982498E-02  0.10837154859E+00  0.51100000000E-03 0.  1.
         11    1    4    4    0    0  0.18899147211E-01  0.76306115169E-02 -0.36809412735E-02  0.20717491332E-01  0.51100000000E-03 0. -1.
</event>
<event>
 8    1  0.1086235E+005  0.1043930E+01  0.7957747E-01            NaN
         13   -1    0    0    0    0  0.00000000000E+00  0.00000000000E+00  0.74505805969E-08  0.10566000000E+00  0.10566000000E+00 0. -1.
     999900   -1    0    0    0    0 -0.00000000000E+00 -0.00000000000E+00 -0.74505805969E-08  0.93827000000E+00  0.93827000000E+00 0.  1.
     999902    2    1    2    0    0 -0.11717148884E-02  0.20229298849E-01  0.13164103453E-01  0.10197661620E+01  0.10194798350E+01 0.  0.
     999903    2    3    3    0    0 -0.88186142849E-01  0.92964909517E-01  0.26400524133E-01  0.13238958884E+00  0.20266853923E-01 0.  0.
         14    1    1    2    0    0  0.11717148884E-02 -0.20229298849E-01 -0.13164103453E-01  0.24163838011E-01  0.00000000000E+00 0.  1.
     999901    1    3    3    0    0  0.87014427960E-01 -0.72735610668E-01 -0.13236420680E-01  0.88737657314E+00  0.88000000000E+00 0.  1.
        -11    1    4    4    0    0 -0.75184858203E-01  0.77932477546E-01  0.14596943215E-01  0.10926832035E+00  0.51100000000E-03 0.  1.
         11    1    4    4    0    0 -0.13001284645E-01  0.15032431971E-01  0.11803580918E-01  0.23121268497E-01  0.51100000000E-03 0. -1.
</event>
<event>
 8    1  0.1086235E+005  0.1043930E+01  0.7957747E-01            NaN
         13   -1    0    0    0    0  0.00000000000E+00  0.00000000000E+00  0.74505805969E-08  0.10566000000E+00  0.10566000000E+00 0.  1.
     999900   -1    0    0    0    0 -0.00000000000E+00 -0.00000000000E+00 -0.74505805969E-08  0.93827000000E+00  0.93827000000E+00 0. -1.
     999902    2    1    2    0    0 -0.52263593507E-02  0.24547907288E-01  0.97215863385E-02  0.10170148774E+01  0.10166586630E+01 0.  0.
     999903    2    3    3    0    0  0.96625878709E-01  0.45447176028E-01  0.69199110363E-01  0.12889988838E+00  0.20607234284E-01 0.  0.
         14    1    1    2    0    0  0.52263593507E-02 -0.24547907288E-01 -0.97215863385E-02  0.26915122612E-01  0.00000000000E+00 0. -1.
     999901    1    3    3    0    0 -0.10185223806E+00 -0.20899268740E-01 -0.59477524024E-01  0.88811498901E+00  0.88000000000E+00 0. -1.
        -11    1    4    4    0    0  0.70313698560E-01  0.41965442494E-01  0.47917368947E-01  0.94875971335E-01  0.51100000000E-03 0. -1.
         11    1    4    4    0    0  0.26312180149E-01  0.34817335342E-02  0.21281741416E-01  0.34023917048E-01  0.51100000000E-03 0.  1.
</event>
<event>
 8    1  0.1086235E+005  0.1043930E+01  0.7957747E-01            NaN
         13   -1    0    0    0    0  0.00000000000E+00  0.00000000000E+00  0.74505805969E-08  0.10566000000E+00  0.10566000000E+00 0. -1.
     999900   -1    0    0    0    0 -0.00000000000E+00 -0.00000000000E+00 -0.74505805969E-08  0.93827000000E+00  0.93827000000E+00 0.  1.
     999902    2    1    2    0    0  0.34078130068E-02  0.54805317470E-03 -0.23799429774E-01  0.10198815820E+01  0.10195980163E+01 0.  0.
     999903    2    3    3    0    0 -0.79261301899E-01 -0.32195402807E-01  0.93361794124E-01  0.12767472880E+00  0.16294595177E-01 0.  0.
         14    1    1    2    0    0 -0.34078130068E-02 -0.54805317470E-03  0.23799429774E-01  0.24048418022E-01  0.00000000000E+00 0. -1.
     999901    1    3    3    0    0  0.82669114906E-01  0.32743455982E-01 -0.11716122390E+00  0.89220685318E+00  0.88000000000E+00 0.  1.
        -11    1    4    4    0    0 -0.14184163173E-01  0.39372891200E-03  0.17656276417E-01  0.22657244433E-01  0.51100000000E-03 0.  1.
         11    1    4    4    0    0 -0.65077138726E-01 -0.32589131719E-01  0.75705517708E-01  0.10501748437E+00  0.51100000000E-03 0. -1.
</event>
<event>
 8    1  0.1086235E+005  0.1043930E+01  0.7957747E-01            NaN
         13   -1    0    0    0    0  0.00000000000E+00  0.00000000000E+00  0.74505805969E-08  0.10566000000E+00  0.10566000000E+00 0. -1.
     999900   -1    0    0    0    0 -0.00000000000E+00 -0.00000000000E+00 -0.74505805969E-08  0.93827000000E+00  0.93827000000E+00 0.  1.
     999902    2    1    2    0    0  0.17479161674E-01  0.28282774018E-02 -0.10303940159E-01  0.10234436282E+01  0.10232385688E+01 0.  0.
     999903    2    3    3    0    0 -0.90963425893E-01  0.62077491184E-01  0.68738075577E-01  0.13130131649E+00  0.19676201757E-01 0.  0.
         14    1    1    2    0    0 -0.17479161674E-01 -0.28282774018E-02  0.10303940159E-01  0.20486371779E-01  0.00000000000E+00 0. -1.
     999901    1    3    3    0    0  0.10844258757E+00 -0.59249213783E-01 -0.79042015736E-01  0.89214231173E+00  0.88000000000E+00 0.  1.
        -11    1    4    4    0    0 -0.51709285627E-01  0.40233234009E-01  0.30346494518E-01  0.72206192182E-01  0.51100000000E-03 0.  1.
         11    1    4    4    0    0 -0.39254140266E-01  0.21844257175E-01  0.38391581059E-01  0.59095124306E-01  0.51100000000E-03 0. -1.
</event>
<event>
 8    1  0.1086235E+005  0.1043930E+01  0.7957747E-01            NaN
         13   -1    0    0    0    0  0.00000000000E+00  0.00000000000E+00  0.74505805969E-08  0.10566000000E+00  0.10566000000E+00 0.  1.
     999900   -1    0    0    0    0 -0.00000000000E+00 -0.00000000000E+00 -0.74505805969E-08  0.93827000000E+00  0.93827000000E+00 0.  1.
     999902    2    1    2    0    0 -0.49014046772E-02  0.17570380239E-01 -0.14749621640E-01  0.10204716674E+01  0.10202020048E+01 0.  0.
     999903    2    3    3    0    0 -0.81242735970E-01 -0.86100767472E-01 -0.50897525960E-01  0.13036921447E+00  0.19795191999E-01 0.  0.
         14    1    1    2    0    0  0.49014046772E-02 -0.17570380239E-01  0.14749621640E-01  0.23458332594E-01  0.00000000000E+00 0. -1.
     999901    1    3    3    0    0  0.76341331293E-01  0.10367114771E+00  0.36147904320E-01  0.89010245293E+00  0.88000000000E+00 0.  1.
        -11    1    4    4    0    0 -0.48397463958E-01 -0.37758829714E-01 -0.22405791019E-01  0.65347718638E-01  0.51100000000E-03 0.  1.
         11    1    4    4    0    0 -0.32845272012E-01 -0.48341937757E-01 -0.28491734940E-01  0.65021495835E-01  0.51100000000E-03 0. -1.
</event>
<event>
 8    1  0.1086235E+005  0.1043930E+01  0.7957747E-01            NaN
         13   -1    0    0    0    0  0.00000000000E+00  0.00000000000E+00  0.74505805969E-08  0.10566000000E+00  0.10566000000E+00 0. -1.
     999900   -1    0    0    0    0 -0.00000000000E+00 -0.00000000000E+00 -0.74505805969E-08  0.93827000000E+00  0.93827000000E+00 0. -1.
     999902    2    1    2    0    0  0.12310913061E-02 -0.11179820099E-01  0.20697121141E-01  0.10203742197E+01  0.10201022857E+01 0.  0.
     999903    2    3    3    0    0  0.11811705039E+00  0.34963412582E-01 -0.36099215579E-01  0.12963444330E+00  0.18106841564E-01 0.  0.
         14    1    1    2    0    0 -0.12310913061E-02  0.11179820099E-01 -0.20697121141E-01  0.23555780326E-01  0.00000000000E+00 0.  1.
     999901    1    3    3    0    0 -0.11688595908E+00 -0.46143232681E-01  0.56796336720E-01  0.89073977638E+00  0.88000000000E+00 0.  1.
        -11    1    4    4    0    0  0.34787456779E-01  0.19050031234E-01 -0.10987144951E-01  0.41158830333E-01  0.51100000000E-03 0. -1.
         11    1    4    4    0    0  0.83329593611E-01  0.15913381348E-01 -0.25112070629E-01  0.88475612966E-01  0.51100000000E-03 0.  1.
</event>
<event>
 8    1  0.1086235E+005  0.1043930E+01  0.7957747E-01            NaN
         13   -1    0    0    0    0  0.00000000000E+00  0.00000000000E+00  0.74505805969E-08  0.10566000000E+00  0.10566000000E+00 0.  1.
     999900   -1    0    0    0    0 -0.00000000000E+00 -0.00000000000E+00 -0.74505805969E-08  0.93827000000E+00  0.93827000000E+00 0.  1.
     999902    2    1    2    0    0 -0.20156030962E-01 -0.15608311065E-02 -0.12416388077E-01  0.10202051508E+01  0.10199292530E+01 0.  0.
     999903    2    3    3    0    0  0.24372052262E-01  0.17956453726E-01  0.12425538489E+00  0.12832912344E+00  0.10608114252E-01 0.  0.
         14    1    1    2    0    0  0.20156030962E-01  0.15608311065E-02  0.12416388077E-01  0.23724849225E-01  0.00000000000E+00 0.  1.
     999901    1    3    3    0    0 -0.44528083223E-01 -0.19517284832E-01 -0.13667177297E+00  0.89187602733E+00  0.88000000000E+00 0.  1.
        -11    1    4    4    0    0  0.14553626828E-01  0.15553583463E-01  0.71313514474E-01  0.74428492394E-01  0.51100000000E-03 0.  1.
         11    1    4    4    0    0  0.98184254336E-02  0.24028702623E-02  0.52941870415E-01  0.53900631050E-01  0.51100000000E-03 0. -1.
</event>
<event>
 8    1  0.1086235E+005  0.1043930E+01  0.7957747E-01            NaN
         13   -1    0    0    0    0  0.00000000000E+00  0.00000000000E+00  0.74505805969E-08  0.10566000000E+00  0.10566000000E+00 0. -1.
     999900   -1    0    0    0    0 -0.00000000000E+00 -0.00000000000E+00 -0.74505805969E-08  0.93827000000E+00  0.93827000000E+00 0. -1.
     999902    2    1    2    0    0 -0.17058299783E-02  0.15284303402E-01 -0.18289231287E-01  0.10200340638E+01  0.10197541250E+01 0.  0.
     999903    2    3    3    0    0 -0.89021497192E-01 -0.67256555218E-01  0.60243024894E-01  0.12840390821E+00  0.20250195358E-01 0.  0.
         14    1    1    2    0    0  0.17058299783E-02 -0.15284303402E-01  0.18289231287E-01  0.23895936212E-01  0.00000000000E+00 0. -1.
     999901    1    3    3    0    0  0.87315667213E-01  0.82540858620E-01 -0.78532256181E-01  0.89163015558E+00  0.88000000000E+00 0. -1.
        -11    1    4    4    0    0 -0.44095192884E-01 -0.29799484466E-01  0.39730276484E-01  0.66416498706E-01  0.51100000000E-03 0.  1.
         11    1    4    4    0    0 -0.44926304308E-01 -0.37457070752E-01  0.20512748409E-01  0.61987409499E-01  0.51100000000E-03 0. -1.
</event>
<event>
 8    1  0.1086235E+005  0.1043930E+01  0.7957747E-01            NaN
         13   -1    0    0    0    0  0.00000000000E+00  0.00000000000E+00  0.74505805969E-08  0.10566000000E+00  0.10566000000E+00 0.  1.
     999900   -1    0    0    0    0 -0.00000000000E+00 -0.00000000000E+00 -0.74505805969E-08  0.93827000000E+00  0.93827000000E+00 0. -1.
     999902    2    1    2    0    0  0.17068882115E-01 -0.19565250347E-01  0.10524683797E-01  0.10159136704E+01  0.10155272871E+01 0.  0.
     999903    2    3    3    0    0  0.10966148074E+00 -0.66923780930E-01  0.39343668656E-02  0.12976489503E+00  0.17861016941E-01 0.  0.
         14    1    1    2    0    0 -0.17068882115E-01  0.19565250347E-01 -0.10524683797E-01  0.28016329646E-01  0.00000000000E+00 0.  1.
     999901    1    3    3    0    0 -0.92592598626E-01  0.47358530583E-01  0.65903169310E-02  0.88614877533E+00  0.88000000000E+00 0.  1.
        -11    1    4    4    0    0  0.36212887826E-01 -0.18384183143E-01  0.89214741743E-02  0.41583713843E-01  0.51100000000E-03 0. -1.
         11    1    4    4    0    0  0.73448592915E-01 -0.48539597786E-01 -0.49871073086E-02  0.88181181183E-01  0.51100000000E-03 0.  1.
</event>
<event>
 8    1  0.1086235E+005  0.1043930E+01  0.7957747E-01            NaN
         13   -1    0    0    0    0  0.00000000000E+00  0.00000000000E+00  0.74505805969E-08  0.10566000000E+00  0.10566000000E+00 0. -1.
     999900   -1    0    0    0    0 -0.00000000000E+00 -0.00000000000E+00 -0.74505805969E-08  0.93827000000E+00  0.93827000000E+00 0. -1.
     999902    2    1    2    0    0  0.88538952342E-02  0.17677857726E-01  0.12880659703E-01  0.10203331886E+01  0.10200602954E+01 0.  0.
     999903    2    3    3    0    0  0.92477305663E-01  0.93505339773E-01  0.51666812968E-02  0.13308903545E+00  0.19766034835E-01 0.  0.
         14    1    1    2    0    0 -0.88538952342E-02 -0.17677857726E-01 -0.12880659703E-01  0.23596811416E-01  0.00000000000E+00 0.  1.
     999901    1    3    3    0    0 -0.83623410429E-01 -0.75827482047E-01  0.77139784065E-02  0.88724415313E+00  0.88000000000E+00 0. -1.
        -11    1    4    4    0    0  0.37986781819E-01  0.27735108766E-01  0.75747133439E-02  0.47643144885E-01  0.51100000000E-03 0.  1.
         11    1    4    4    0    0  0.54490523843E-01  0.65770231007E-01 -0.24080320471E-02  0.85445890567E-01  0.51100000000E-03 0. -1.
</event>
<event>
 8    1  0.1086235E+005  0.1043930E+01  0.7957747E-01            NaN
         13   -1    0    0    0    0  0.00000000000E+00  0.00000000000E+00  0.74505805969E-08  0.10566000000E+00  0.10566000000E+00 0.  1.
     999900   -1    0    0    0    0 -0.00000000000E+00 -0.00000000000E+00 -0.74505805969E-08  0.93827000000E+00  0.93827000000E+00 0. -1.
     999902    2    1    2    0    0  0.21762967368E-01 -0.36997919302E-02  0.98342323453E-02  0.10197633425E+01  0.10194769479E+01 0.  0.
     999903    2    3    3    0    0 -0.58715673315E-01 -0.13959693730E-01  0.11362939419E+00  0.12995689567E+00  0.18296233713E-01 0.  0.
         14    1    1    2    0    0 -0.21762967368E-01  0.36997919302E-02 -0.98342323453E-02  0.24166657501E-01  0.00000000000E+00 0.  1.
     999901    1    3    3    0    0  0.80478640682E-01  0.10259901800E-01 -0.10379516184E+00  0.88980644683E+00  0.88000000000E+00 0. -1.
        -11    1    4    4    0    0 -0.58466721621E-02 -0.78922484380E-02  0.16858581733E-01  0.19517788292E-01  0.51100000000E-03 0.  1.
         11    1    4    4    0    0 -0.52869001152E-01 -0.60674452921E-02  0.96770812453E-01  0.11043910738E+00  0.51100000000E-03 0. -1.
</event>
<event>
 8    1  0.1086235E+005  0.1043930E+01  0.7957747E-01            NaN
         13   -1    0    0    0    0  0.00000000000E+00  0.00000000000E+00  0.74505805969E-08  0.10566000000E+00  0.10566000000E+00 0.  1.
     999900   -1    0    0    0    0 -0.00000000000E+00 -0.00000000000E+00 -0.74505805969E-08  0.93827000000E+00  0.93827000000E+00 0. -1.
     999902    2    1    2    0    0 -0.27395082542E-02  0.11616682623E-01 -0.20320959568E-01  0.10203632094E+01  0.10200910182E+01 0.  0.
     999903    2    3    3    0    0  0.11044426235E+00  0.55169892581E-01 -0.41775877929E-01  0.13178695408E+00  0.19517304027E-01 0.  0.
         14    1    1    2    0    0  0.27395082542E-02 -0.11616682623E-01  0.20320959568E-01  0.23566790584E-01  0.00000000000E+00 0.  1.
     999901    1    3    3    0    0 -0.11318377060E+00 -0.43553209958E-01  0.21454918360E-01  0.88857625534E+00  0.88000000000E+00 0.  1.
        -11    1    4    4    0    0  0.55418585171E-01  0.22213545117E-01 -0.11274954888E-01  0.60762216037E-01  0.51100000000E-03 0. -1.
         11    1    4    4    0    0  0.55025677175E-01  0.32956347464E-01 -0.30500923041E-01  0.71024738043E-01  0.51100000000E-03 0.  1.
</event>
<event>
 7    1  0.1086235E+005  0.1043930E+01  0.7957747E-01            NaN
         13   -1    0    0    0    0  0.00000000000E+00  0.00000000000E+00  0.74505805969E-08  0.10566000000E+00  0.10566000000E+00 0.  1.
     999900   -1    0    0    0    0 -0.00000000000E+00 -0.00000000000E+00 -0.74505805969E-08  0.93827000000E+00  0.93827000000E+00 0. -1.
     999903    2    1    2    0    0 -0.55412108367E-01  0.17435655660E-02  0.20968290585E-01  0.62533094238E-01  0.19929297289E-01 0.  0.
         14    1    1    2    0    0 -0.62923160350E-01 -0.58502849202E-01  0.27868036033E-01  0.90324608527E-01  0.00000000000E+00 0.  1.
     999901    1    1    2    0    0  0.11833526872E+00  0.56759283637E-01 -0.48836326618E-01  0.89107229723E+00  0.88000000000E+00 0. -1.
        -11    1    3    3    0    0 -0.15059665035E-01  0.13302304747E-02  0.15752695415E-01  0.21839678521E-01  0.51100000000E-03 0.  1.
         11    1    3    3    0    0 -0.40352443332E-01  0.41333509133E-03  0.52155951703E-02  0.40693415717E-01  0.51100000000E-03 0. -1.
</event>
<event>
 8    1  0.1086235E+005  0.1043930E+01  0.7957747E-01            NaN
         13   -1    0    0    0    0  0.00000000000E+00  0.00000000000E+00  0.74505805969E-08  0.10566000000E+00  0.10566000000E+00 0. -1.
     999900   -1    0    0    0    0 -0.00000000000E+00 -0.00000000000E+00 -0.74505805969E-08  0.93827000000E+00  0.93827000000E+00 0. -1.
     999902    2    1    2    0    0  0.77844568046E-02 -0.22808908336E-01  0.22321148795E-03  0.10198282596E+01  0.10195434200E+01 0.  0.
     999903    2    3    3    0    0  0.56014915067E-01  0.11252902167E+00 -0.14544686164E-01  0.12805439633E+00  0.19645078125E-01 0.  0.
         14    1    1    2    0    0 -0.77844568046E-02  0.22808908336E-01 -0.22321148795E-03  0.24101740406E-01  0.00000000000E+00 0.  1.
     999901    1    3    3    0    0 -0.48230458262E-01 -0.13533793001E+00  0.14767897652E-01  0.89177386327E+00  0.88000000000E+00 0.  1.
        -11    1    4    4    0    0  0.76942520994E-02  0.22086161808E-01  0.43240606112E-02  0.23789886085E-01  0.51100000000E-03 0. -1.
         11    1    4    4    0    0  0.48320662968E-01  0.90442859866E-01 -0.18868746775E-01  0.10426451024E+00  0.51100000000E-03 0.  1.
</event>
<event>
 8    1  0.1086235E+005  0.1043930E+01  0.7957747E-01            NaN
         13   -1    0    0    0    0  0.00000000000E+00  0.00000000000E+00  0.74505805969E-08  0.10566000000E+00  0.10566000000E+00 0.  1.
     999900   -1    0    0    0    0 -0.00000000000E+00 -0.00000000000E+00 -0.74505805969E-08  0.93827000000E+00  0.93827000000E+00 0. -1.
     999902    2    1    2    0    0 -0.20241938665E-01  0.39761479711E-02 -0.13549167051E-01  0.10192495267E+01  0.10189506720E+01 0.  0.
     999903    2    3    3    0    0 -0.91285032142E-01 -0.80704122906E-01  0.42364406204E-01  0.13057399702E+00  0.20216657446E-01 0.  0.
         14    1    1    2    0    0  0.20241938665E-01 -0.39761479711E-02  0.13549167051E-01  0.24680473281E-01  0.00000000000E+00 0.  1.
     999901    1    3    3    0    0  0.71043093477E-01  0.84680270877E-01 -0.55913573254E-01  0.88867552970E+00  0.88000000000E+00 0.  1.
        -11    1    4    4    0    0 -0.36765641431E-01 -0.20158935398E-01  0.16914658000E-01  0.45215725610E-01  0.51100000000E-03 0. -1.
         11    1    4    4    0    0 -0.54519390711E-01 -0.60545187508E-01  0.25449748204E-01  0.85358271412E-01  0.51100000000E-03 0.  1.
</event>
<event>
 8    1  0.1086235E+005  0.1043930E+01  0.7957747E-01            NaN
         13   -1    0    0    0    0  0.00000000000E+00  0.00000000000E+00  0.74505805969E-08  0.10566000000E+00  0.10566000000E+00 0. -1.
     999900   -1    0    0    0    0 -0.00000000000E+00 -0.00000000000E+00 -0.74505805969E-08  0.93827000000E+00  0.93827000000E+00 0.  1.
     999902    2    1    2    0    0  0.22014560086E-01  0.38670811677E-02  0.72097704625E-02  0.10204443456E+01  0.10201740472E+01 0.  0.
     999903    2    3    3    0    0  0.22546727249E-01  0.10375349749E-02  0.12851512057E+00  0.13211823572E+00  0.20728256178E-01 0.  0.
         14    1    1    2    0    0 -0.22014560086E-01 -0.38670811677E-02 -0.72097704625E-02  0.23485654401E-01  0.00000000000E+00 0.  1.
     999901    1    3    3    0    0 -0.53216716263E-03  0.28295461928E-02 -0.12130535011E+00  0.88832610988E+00  0.88000000000E+00 0.  1.
        -11    1    4    4    0    0  0.23930536568E-01  0.49151526428E-02  0.86087444536E-01  0.89488203322E-01  0.51100000000E-03 0. -1.
         11    1    4    4    0    0 -0.13838093193E-02 -0.38776176679E-02  0.42427676037E-01  0.42630032394E-01  0.51100000000E-03 0.  1.
</event>
<event>
 8    1  0.1086235E+005  0.1043930E+01  0.7957747E-01            NaN
         13   -1    0    0    0    0  0.00000000000E+00  0.00000000000E+00  0.74505805969E-08  0.10566000000E+00  0.10566000000E+00 0.  1.
     999900   -1    0    0    0    0 -0.00000000000E+00 -0.00000000000E+00 -0.74505805969E-08  0.93827000000E+00  0.93827000000E+00 0. -1.
     999902    2    1    2    0    0 -0.20369670003E-01  0.96537083490E-03  0.11554983620E-01  0.10204912918E+01  0.10202220854E+01 0.  0.
     999903    2    3    3    0    0  0.28560258641E-01 -0.11014033348E+00 -0.58383350297E-01  0.12940768964E+00  0.19777591173E-01 0.  0.
         14    1    1    2    0    0  0.20369670003E-01 -0.96537083490E-03 -0.11554983620E-01  0.23438708227E-01  0.00000000000E+00 0.  1.
     999901    1    3    3    0    0 -0.48929928644E-01  0.11110570431E+00  0.69938333917E-01  0.89108360214E+00  0.88000000000E+00 0.  1.
        -11    1    4    4    0    0  0.23040360577E-01 -0.68182268530E-01 -0.27637082308E-01  0.77095715814E-01  0.51100000000E-03 0. -1.
         11    1    4    4    0    0  0.55198980643E-02 -0.41958064947E-01 -0.30746267989E-01  0.52311973821E-01  0.51100000000E-03 0.  1.
</event>
<event>
 8    1  0.1086235E+005  0.1043930E+01  0.7957747E-01            NaN
         13   -1    0    0    0    0  0.00000000000E+00  0.00000000000E+00  0.74505805969E-08  0.10566000000E+00  0.10566000000E+00 0.  1.
     999900   -1    0    0    0    0 -0.00000000000E+00 -0.00000000000E+00 -0.74505805969E-08  0.93827000000E+00  0.93827000000E+00 0.  1.
     999902    2    1    2    0    0  0.22696885155E-02  0.23851583159E-01 -0.15760110167E-02  0.10199188918E+01  0.10196362158E+01 0.  0.
     999903    2    3    3    0    0 -0.11111406654E+00  0.67626545398E-01 -0.11778035781E-02  0.13156519999E+00  0.19706070163E-01 0.  0.
         14    1    1    2    0    0 -0.22696885155E-02 -0.23851583159E-01  0.15760110167E-02  0.24011108176E-01  0.00000000000E+00 0.  1.
     999901    1    3    3    0    0  0.11338375505E+00 -0.43774962240E-01 -0.39820743869E-03  0.88835369184E+00  0.88000000000E+00 0.  1.
        -11    1    4    4    0    0 -0.34636561428E-01  0.10847605683E-01 -0.10123007574E-02  0.36313190584E-01  0.51100000000E-03 0. -1.
         11    1    4    4    0    0 -0.76477505111E-01  0.56778939715E-01 -0.16550282062E-03  0.95252009404E-01  0.51100000000E-03 0.  1.
</event>
<event>
 8    1  0.1086235E+005  0.1043930E+01  0.7957747E-01            NaN
         13   -1    0    0    0    0  0.00000000000E+00  0.00000000000E+00  0.74505805969E-08  0.10566000000E+00  0.10566000000E+00 0.  1.
     999900   -1    0    0    0    0 -0.00000000000E+00 -0.00000000000E+00 -0.74505805969E-08  0.93827000000E+00  0.93827000000E+00 0.  1.
     999902    2    1    2    0    0  0.53017988394E-02 -0.22451376238E-01  0.54943720723E-02  0.10202158378E+01  0.10199401915E+01 0.  0.
     999903    2    3    3    0    0  0.95493546941E-01  0.73602086310E-01 -0.41029909646E-01  0.12919096276E+00  0.21692550724E-01 0.  0.
         14    1    1    2    0    0 -0.53017988394E-02  0.22451376238E-01 -0.54943720723E-02  0.23714162232E-01  0.00000000000E+00 0.  1.
     999901    1    3    3    0    0 -0.90191748101E-01 -0.96053462547E-01  0.46524281719E-01  0.89102487501E+00  0.88000000000E+00 0.  1.
        -11    1    4    4    0    0  0.63541783469E-01  0.42581495476E-01 -0.35448590242E-01  0.84306617027E-01  0.51100000000E-03 0. -1.
         11    1    4    4    0    0  0.31951763472E-01  0.31020590833E-01 -0.55813194044E-02  0.44884345733E-01  0.51100000000E-03 0.  1.
</event>
