<event>
 8    1  0.1128298E+005  0.1043930E+01  0.7957747E-01            NaN
         13   -1    0    0    0    0  0.00000000000E+00  0.00000000000E+00  0.74505805969E-08  0.10566000000E+00  0.10566000000E+00 0. -1.
     999900   -1    0    0    0    0 -0.00000000000E+00 -0.00000000000E+00 -0.74505805969E-08  0.93827000000E+00  0.93827000000E+00 0. -1.
     999902    2    1    2    0    0 -0.20352429962E-01  0.12654662417E-01  0.60854626210E-02  0.10192036023E+01  0.10189036207E+01 0.  0.
     999903    2    3    3    0    0  0.82515587697E-01 -0.27189222456E-01  0.92155125938E-01  0.12814953486E+00  0.19536120832E-01 0.  0.
         14    1    1    2    0    0  0.20352429962E-01 -0.12654662417E-01 -0.60854626210E-02  0.24726397667E-01  0.00000000000E+00 0. -1.
     999901    1    3    3    0    0 -0.10286801766E+00  0.39843884874E-01 -0.86069663317E-01  0.89105406747E+00  0.88000000000E+00 0.  1.
        -11    1    4    4    0    0  0.75353697927E-01 -0.18230579470E-01  0.78969439347E-01  0.11066601687E+00  0.51100000000E-03 0. -1.
         11    1    4    4    0    0  0.71618897696E-02 -0.89586429865E-02  0.13185686591E-01  0.17483517984E-01  0.51100000000E-03 0.  1.
</event>
<event>
 8    1  0.1128298E+005  0.1043930E+01  0.7957747E-01            NaN
         13   -1    0    0    0    0  0.00000000000E+00  0.00000000000E+00  0.74505805969E-08  0.10566000000E+00  0.10566000000E+00 0.  1.
     999900   -1    0    0    0    0 -0.00000000000E+00 -0.00000000000E+00 -0.74505805969E-08  0.93827000000E+00  0.93827000000E+00 0. -1.
     999902    2    1    2    0    0  0.17416611509E-01 -0.17378277073E-01  0.31336803371E-02  0.10191275239E+01  0.10188256706E+01 0.  0.
     999903    2    3    3    0    0  0.25069318693E-01 -0.24705835372E-01 -0.12352714991E+00  0.12999579967E+00  0.20027534154E-01 0.  0.
         14    1    1    2    0    0 -0.17416611509E-01  0.17378277073E-01 -0.31336803371E-02  0.24802476145E-01  0.00000000000E+00 0. -1.
     999901    1    3    3    0    0 -0.76527071846E-02  0.73275582988E-02  0.12666083025E+00  0.88913172419E+00  0.88000000000E+00 0.  1.
        -11    1    4    4    0    0  0.12040936799E-01 -0.58799258324E-02 -0.20805704656E-01  0.24752699934E-01  0.51100000000E-03 0. -1.
         11    1    4    4    0    0  0.13028381895E-01 -0.18825909539E-01 -0.10272144526E+00  0.10524309973E+00  0.51100000000E-03 0.  1.
</event>
<event>
 8    1  0.1128298E+005  0.1043930E+01  0.7957747E-01            NaN
         13   -1    0    0    0    0  0.00000000000E+00  0.00000000000E+00  0.74505805969E-08  0.10566000000E+00  0.10566000000E+00 0. -1.
     999900   -1    0    0    0    0 -0.00000000000E+00 -0.00000000000E+00 -0.74505805969E-08  0.93827000000E+00  0.93827000000E+00 0.  1.
     999902    2    1    2    0    0 -0.58750906754E-02 -0.10501527104E-01  0.19812264318E-01  0.10207497373E+01  0.10204865024E+01 0.  0.
     999903    2    3    3    0    0  0.70539518480E-01 -0.10884356939E+00  0.13911044356E-01  0.13196113803E+00  0.19936863613E-01 0.  0.
         14    1    1    2    0    0  0.58750906754E-02  0.10501527104E-01 -0.19812264318E-01  0.23180262711E-01  0.00000000000E+00 0.  1.
     999901    1    3    3    0    0 -0.76414609155E-01  0.98342042285E-01  0.59012199615E-02  0.88878859926E+00  0.88000000000E+00 0. -1.
        -11    1    4    4    0    0  0.14016230245E-01 -0.97435529295E-02  0.31652544399E-02  0.17368692831E-01  0.51100000000E-03 0. -1.
         11    1    4    4    0    0  0.56523288234E-01 -0.99100016460E-01  0.10745789916E-01  0.11459244520E+00  0.51100000000E-03 0.  1.
</event>
<event>
 8    1  0.1128298E+005  0.1043930E+01  0.7957747E-01            NaN
         13   -1    0    0    0    0  0.00000000000E+00  0.00000000000E+00  0.74505805969E-08  0.10566000000E+00  0.10566000000E+00 0.  1.
     999900   -1    0    0    0    0 -0.00000000000E+00 -0.00000000000E+00 -0.74505805969E-08  0.93827000000E+00  0.93827000000E+00 0.  1.
     999902    2    1    2    0    0  0.23557428039E-02  0.19241888370E-01  0.14838601152E-01  0.10195172190E+01  0.10192248898E+01 0.  0.
     999903    2    3    3    0    0  0.10946979731E+00 -0.65434998335E-01 -0.10401668100E-03  0.12886191101E+00  0.18439245083E-01 0.  0.
         14    1    1    2    0    0 -0.23557428039E-02 -0.19241888370E-01 -0.14838601152E-01  0.24412781004E-01  0.00000000000E+00 0. -1.
     999901    1    3    3    0    0 -0.10711405451E+00  0.84676886705E-01  0.14942617833E-01  0.89065530799E+00  0.88000000000E+00 0. -1.
        -11    1    4    4    0    0  0.27894237979E-01 -0.24930537062E-01  0.43907490329E-02  0.37671739922E-01  0.51100000000E-03 0. -1.
         11    1    4    4    0    0  0.81575559333E-01 -0.40504461273E-01 -0.44947657139E-02  0.91190171089E-01  0.51100000000E-03 0.  1.
</event>
<event>
 8    1  0.1128298E+005  0.1043930E+01  0.7957747E-01            NaN
         13   -1    0    0    0    0  0.00000000000E+00  0.00000000000E+00  0.74505805969E-08  0.10566000000E+00  0.10566000000E+00 0.  1.
     999900   -1    0    0    0    0 -0.00000000000E+00 -0.00000000000E+00 -0.74505805969E-08  0.93827000000E+00  0.93827000000E+00 0. -1.
     999902    2    1    2    0    0  0.12535261697E-01 -0.21618380812E-02 -0.20123599189E-01  0.10201231612E+01  0.10198453306E+01 0.  0.
     999903    2    3    3    0    0 -0.55305586580E-01  0.35189878952E-01 -0.11270892623E+00  0.13188356838E+00  0.19822665537E-01 0.  0.
         14    1    1    2    0    0 -0.12535261697E-01  0.21618380812E-02  0.20123599189E-01  0.23806838808E-01  0.00000000000E+00 0.  1.
     999901    1    3    3    0    0  0.67840848277E-01 -0.37351717033E-01  0.92585327038E-01  0.88823959281E+00  0.88000000000E+00 0.  1.
        -11    1    4    4    0    0 -0.20169930917E-01  0.32262174560E-02 -0.41908902632E-01  0.46624584000E-01  0.51100000000E-03 0. -1.
         11    1    4    4    0    0 -0.35135655663E-01  0.31963661496E-01 -0.70800023595E-01  0.85258984378E-01  0.51100000000E-03 0.  1.
</event>
<event>
 8    1  0.1128298E+005  0.1043930E+01  0.7957747E-01            NaN
         13   -1    0    0    0    0  0.00000000000E+00  0.00000000000E+00  0.74505805969E-08  0.10566000000E+00  0.10566000000E+00 0. -1.
     999900   -1    0    0    0    0 -0.00000000000E+00 -0.00000000000E+00 -0.74505805969E-08  0.93827000000E+00  0.93827000000E+00 0.  1.
     999902    2    1    2    0    0  0.12118652047E-02 -0.23153244240E-01 -0.58623886714E-05  0.10207450616E+01  0.10204817193E+01 0.  0.
     999903    2    3    3    0    0  0.25292805362E-01 -0.27479234495E-01 -0.12479217716E+00  0.13160489813E+00  0.18759728149E-01 0.  0.
         14    1    1    2    0    0 -0.12118652047E-02  0.23153244240E-01  0.58623886714E-05  0.23184938440E-01  0.00000000000E+00 0. -1.
     999901    1    3    3    0    0 -0.24080940158E-01  0.43259902552E-02  0.12478631477E+00  0.88914016343E+00  0.88000000000E+00 0. -1.
        -11    1    4    4    0    0  0.14377910079E-01 -0.10049964402E-01 -0.85186919486E-01  0.86975849839E-01  0.51100000000E-03 0. -1.
         11    1    4    4    0    0  0.10914895284E-01 -0.17429270092E-01 -0.39605257673E-01  0.44629048291E-01  0.51100000000E-03 0.  1.
</event>
<event>
 8    1  0.1128298E+005  0.1043930E+01  0.7957747E-01            NaN
         13   -1    0    0    0    0  0.00000000000E+00  0.00000000000E+00  0.74505805969E-08  0.10566000000E+00  0.10566000000E+00 0.  1.
     999900   -1    0    0    0    0 -0.00000000000E+00 -0.00000000000E+00 -0.74505805969E-08  0.93827000000E+00  0.93827000000E+00 0.  1.
     999902    2    1    2    0    0  0.10507169182E-01 -0.21132500191E-01  0.27165166225E-02  0.10201736823E+01  0.10198970435E+01 0.  0.
     999903    2    3    3    0    0 -0.15766085033E-01  0.88895188123E-01  0.89466526031E-01  0.12870189911E+00  0.20223640740E-01 0.  0.
         14    1    1    2    0    0 -0.10507169182E-01  0.21132500191E-01 -0.27165166225E-02  0.23756317709E-01  0.00000000000E+00 0. -1.
     999901    1    3    3    0    0  0.26273254215E-01 -0.11002768831E+00 -0.86750009408E-01  0.89147178318E+00  0.88000000000E+00 0.  1.
        -11    1    4    4    0    0 -0.10775512153E-01  0.57493248563E-01  0.43905163570E-01  0.73140343188E-01  0.51100000000E-03 0.  1.
         11    1    4    4    0    0 -0.49905728806E-02  0.31401939560E-01  0.45561362460E-01  0.55561555918E-01  0.51100000000E-03 0. -1.
</event>
<event>
 8    1  0.1128298E+005  0.1043930E+01  0.7957747E-01            NaN
         13   -1    0    0    0    0  0.00000000000E+00  0.00000000000E+00  0.74505805969E-08  0.10566000000E+00  0.10566000000E+00 0. -1.
     999900   -1    0    0    0    0 -0.00000000000E+00 -0.00000000000E+00 -0.74505805969E-08  0.93827000000E+00  0.93827000000E+00 0. -1.
     999902    2    1    2    0    0  0.23923955951E-01  0.18850522940E-02  0.38121478870E-02  0.10196309967E+01  0.10193414187E+01 0.  0.
     999903    2    3    3    0    0 -0.50493822177E-01 -0.11648501740E+00  0.66062269567E-02  0.12858818852E+00  0.19310479934E-01 0.  0.
         14    1    1    2    0    0 -0.23923955951E-01 -0.18850522940E-02 -0.38121478870E-02  0.24299003314E-01  0.00000000000E+00 0.  1.
     999901    1    3    3    0    0  0.74417778129E-01  0.11837006970E+00 -0.27940790697E-02  0.89104280816E+00  0.88000000000E+00 0. -1.
        -11    1    4    4    0    0 -0.46693895571E-01 -0.11474198714E+00  0.80355089861E-02  0.12414054141E+00  0.51100000000E-03 0. -1.
         11    1    4    4    0    0 -0.37999266061E-02 -0.17430302667E-02 -0.14292820294E-02  0.44476471130E-02  0.51100000000E-03 0.  1.
</event>
<event>
 8    1  0.1128298E+005  0.1043930E+01  0.7957747E-01            NaN
         13   -1    0    0    0    0  0.00000000000E+00  0.00000000000E+00  0.74505805969E-08  0.10566000000E+00  0.10566000000E+00 0. -1.
     999900   -1    0    0    0    0 -0.00000000000E+00 -0.00000000000E+00 -0.74505805969E-08  0.93827000000E+00  0.93827000000E+00 0. -1.
     999902    2    1    2    0    0  0.12868063888E-02 -0.34543925951E-02 -0.23631637212E-01  0.10200125801E+01  0.10197321317E+01 0.  0.
     999903    2    3    3    0    0 -0.11006512540E+00 -0.67016429135E-01 -0.73980219953E-02  0.13057291631E+00  0.19723644221E-01 0.  0.
         14    1    1    2    0    0 -0.12868063888E-02  0.34543925951E-02  0.23631637212E-01  0.23917419932E-01  0.00000000000E+00 0. -1.
     999901    1    3    3    0    0  0.11135193179E+00  0.63562036539E-01 -0.16233615217E-01  0.88943966376E+00  0.88000000000E+00 0. -1.
        -11    1    4    4    0    0 -0.97494021007E-01 -0.65997056358E-01 -0.62563952740E-02  0.11789868185E+00  0.51100000000E-03 0. -1.
         11    1    4    4    0    0 -0.12571104392E-01 -0.10193727764E-02 -0.11416267212E-02  0.12674234457E-01  0.51100000000E-03 0.  1.
</event>
<event>
 8    1  0.1128298E+005  0.1043930E+01  0.7957747E-01            NaN
         13   -1    0    0    0    0  0.00000000000E+00  0.00000000000E+00  0.74505805969E-08  0.10566000000E+00  0.10566000000E+00 0. -1.
     999900   -1    0    0    0    0 -0.00000000000E+00 -0.00000000000E+00 -0.74505805969E-08  0.93827000000E+00  0.93827000000E+00 0.  1.
     999902    2    1    2    0    0 -0.21817418930E-01  0.69871717536E-02  0.59966336876E-02  0.10202492071E+01  0.10199743451E+01 0.  0.
     999903    2    3    3    0    0 -0.78781713470E-01  0.95200033482E-01  0.45335870353E-01  0.13313364788E+00  0.19990555397E-01 0.  0.
         14    1    1    2    0    0  0.21817418930E-01 -0.69871717536E-02 -0.59966336876E-02  0.23680792923E-01  0.00000000000E+00 0. -1.
     999901    1    3    3    0    0  0.56964294540E-01 -0.88212861728E-01 -0.39339236665E-01  0.88711555920E+00  0.88000000000E+00 0. -1.
        -11    1    4    4    0    0 -0.78801725440E-01  0.90410653830E-01  0.45599877670E-01  0.12830981343E+00  0.51100000000E-03 0.  1.
         11    1    4    4    0    0  0.20011970005E-04  0.47893796517E-02 -0.26400731714E-03  0.48238344489E-02  0.51100000000E-03 0. -1.
</event>
<event>
 8    1  0.1128298E+005  0.1043930E+01  0.7957747E-01            NaN
         13   -1    0    0    0    0  0.00000000000E+00  0.00000000000E+00  0.74505805969E-08  0.10566000000E+00  0.10566000000E+00 0.  1.
     999900   -1    0    0    0    0 -0.00000000000E+00 -0.00000000000E+00 -0.74505805969E-08  0.93827000000E+00  0.93827000000E+00 0.  1.
     999902    2    1    2    0    0 -0.16429943088E-01  0.86816874367E-02 -0.15579489329E-01  0.10196805626E+01  0.10193921790E+01 0.  0.
     999903    2    3    3    0    0 -0.32977959819E-01  0.16587013093E-01 -0.12576277395E+00  0.13261986161E+00  0.20225665494E-01 0.  0.
         14    1    1    2    0    0  0.16429943088E-01 -0.86816874367E-02  0.15579489329E-01  0.24249437403E-01  0.00000000000E+00 0. -1.
     999901    1    3    3    0    0  0.16548016731E-01 -0.79053256568E-02  0.11018328462E+00  0.88706070099E+00  0.88000000000E+00 0. -1.
        -11    1    4    4    0    0 -0.91595173275E-02 -0.38081048665E-02 -0.42536741669E-01  0.43681047757E-01  0.51100000000E-03 0. -1.
         11    1    4    4    0    0 -0.23818442492E-01  0.20395117960E-01 -0.83226032278E-01  0.88938813850E-01  0.51100000000E-03 0.  1.
</event>
<event>
 8    1  0.1128298E+005  0.1043930E+01  0.7957747E-01            NaN
         13   -1    0    0    0    0  0.00000000000E+00  0.00000000000E+00  0.74505805969E-08  0.10566000000E+00  0.10566000000E+00 0. -1.
     999900   -1    0    0    0    0 -0.00000000000E+00 -0.00000000000E+00 -0.74505805969E-08  0.93827000000E+00  0.93827000000E+00 0. -1.
     999902    2    1    2    0    0  0.34169981361E-02 -0.21803960736E-01 -0.70517806555E-02  0.10207607059E+01  0.10204977229E+01 0.  0.
     999903    2    3    3    0    0  0.11167685822E+00  0.12472021677E-01 -0.65317426729E-01  0.13155323526E+00  0.20312938883E-01 0.  0.
         14    1    1    2    0    0 -0.34169981361E-02  0.21803960736E-01  0.70517806555E-02  0.23169294129E-01  0.00000000000E+00 0. -1.
     999901    1    3    3    0    0 -0.10825986009E+00 -0.34275982413E-01  0.58265646074E-01  0.88920747061E+00  0.88000000000E+00 0. -1.
        -11    1    4    4    0    0  0.83143890104E-01  0.16376258149E-01 -0.42475297623E-01  0.94791878986E-01  0.51100000000E-03 0.  1.
         11    1    4    4    0    0  0.28532968118E-01 -0.39042364716E-02 -0.22842129107E-01  0.36761356275E-01  0.51100000000E-03 0. -1.
</event>
<event>
 8    1  0.1128298E+005  0.1043930E+01  0.7957747E-01            NaN
         13   -1    0    0    0    0  0.00000000000E+00  0.00000000000E+00  0.74505805969E-08  0.10566000000E+00  0.10566000000E+00 0.  1.
     999900   -1    0    0    0    0 -0.00000000000E+00 -0.00000000000E+00 -0.74505805969E-08  0.93827000000E+00  0.93827000000E+00 0. -1.
     999902    2    1    2    0    0  0.21632992508E-01 -0.90441841758E-02  0.35948472128E-02  0.10202085633E+01  0.10199327459E+01 0.  0.
     999903    2    3    3    0    0 -0.13669280049E-01 -0.41763962782E-01 -0.12102703976E+00  0.13012573061E+00  0.18817109451E-01 0.  0.
         14    1    1    2    0    0 -0.21632992508E-01  0.90441841758E-02 -0.35948472128E-02  0.23721436692E-01  0.00000000000E+00 0. -1.
     999901    1    3    3    0    0  0.35302272557E-01  0.32719778606E-01  0.12462188697E+00  0.89008283270E+00  0.88000000000E+00 0.  1.
        -11    1    4    4    0    0 -0.16092287351E-01 -0.33161194317E-01 -0.10945117014E+00  0.11549219145E+00  0.51100000000E-03 0.  1.
         11    1    4    4    0    0  0.24230073012E-02 -0.86027684647E-02 -0.11575869620E-01  0.14633539151E-01  0.51100000000E-03 0. -1.
</event>
<event>
 8    1  0.1128298E+005  0.1043930E+01  0.7957747E-01            NaN
         13   -1    0    0    0    0  0.00000000000E+00  0.00000000000E+00  0.74505805969E-08  0.10566000000E+00  0.10566000000E+00 0.  1.
     999900   -1    0    0    0    0 -0.00000000000E+00 -0.00000000000E+00 -0.74505805969E-08  0.93827000000E+00  0.93827000000E+00 0.  1.
     999902    2    1    2    0    0  0.19457124993E-01  0.11646847941E-01  0.69013319310E-02  0.10202264736E+01  0.10199510774E+01 0.  0.
     999903    2    3    3    0    0  0.62857168581E-01 -0.64420862438E-01 -0.92105811562E-01  0.13035441833E+00  0.20192144383E-01 0.  0.
         14    1    1    2    0    0 -0.19457124993E-01 -0.11646847941E-01 -0.69013319310E-02  0.23703526370E-01  0.00000000000E+00 0.  1.
     999901    1    3    3    0    0 -0.43400043588E-01  0.76067710379E-01  0.99007143493E-01  0.88987205530E+00  0.88000000000E+00 0. -1.
        -11    1    4    4    0    0  0.11083366040E-01 -0.26440268955E-02 -0.85351852827E-02  0.14245784984E-01  0.51100000000E-03 0. -1.
         11    1    4    4    0    0  0.51773802540E-01 -0.61776835543E-01 -0.83570626279E-01  0.11610863334E+00  0.51100000000E-03 0.  1.
</event>
<event>
 8    1  0.1128298E+005  0.1043930E+01  0.7957747E-01            NaN
         13   -1    0    0    0    0  0.00000000000E+00  0.00000000000E+00  0.74505805969E-08  0.10566000000E+00  0.10566000000E+00 0.  1.
     999900   -1    0    0    0    0 -0.00000000000E+00 -0.00000000000E+00 -0.74505805969E-08  0.93827000000E+00  0.93827000000E+00 0. -1.
     999902    2    1    2    0    0  0.17556098619E-01 -0.66487338755E-02 -0.15115452402E-01  0.10198281502E+01  0.10195433080E+01 0.  0.
     999903    2    3    3    0    0  0.13372182698E-01 -0.37403512992E-01 -0.12495287908E+00  0.13245696415E+00  0.18809234629E-01 0.  0.
         14    1    1    2    0    0 -0.17556098619E-01  0.66487338755E-02  0.15115452402E-01  0.24101849767E-01  0.00000000000E+00 0.  1.
     999901    1    3    3    0    0  0.41839159213E-02  0.30754779117E-01  0.10983742668E+00  0.88737118608E+00  0.88000000000E+00 0.  1.
        -11    1    4    4    0    0  0.10758478560E-01 -0.66828592608E-02 -0.28416222720E-01  0.31115081608E-01  0.51100000000E-03 0. -1.
         11    1    4    4    0    0  0.26137041375E-02 -0.30720653731E-01 -0.96536656360E-01  0.10134188254E+00  0.51100000000E-03 0.  1.
</event>
<event>
 8    1  0.1128298E+005  0.1043930E+01  0.7957747E-01            NaN
         13   -1    0    0    0    0  0.00000000000E+00  0.00000000000E+00  0.74505805969E-08  0.10566000000E+00  0.10566000000E+00 0.  1.
     999900   -1    0    0    0    0 -0.00000000000E+00 -0.00000000000E+00 -0.74505805969E-08  0.93827000000E+00  0.93827000000E+00 0. -1.
     999902    2    1    2    0    0  0.14450772721E-02  0.17565915476E-01  0.14267855952E-01  0.10212535508E+01  0.10210017599E+01 0.  0.
     999903    2    3    3    0    0 -0.87131860814E-01  0.83124709717E-01  0.52323803523E-01  0.13356436837E+00  0.24494520778E-01 0.  0.
         14    1    1    2    0    0 -0.14450772721E-02 -0.17565915476E-01 -0.14267855952E-01  0.22676449199E-01  0.00000000000E+00 0.  1.
     999901    1    3    3    0    0  0.88576938086E-01 -0.65558794241E-01 -0.38055947571E-01  0.88768918243E+00  0.88000000000E+00 0. -1.
        -11    1    4    4    0    0 -0.20628450946E-04  0.36658442358E-02  0.56497874974E-02  0.67542623032E-02  0.51100000000E-03 0.  1.
         11    1    4    4    0    0 -0.87111232363E-01  0.79458865481E-01  0.46674016025E-01  0.12681010606E+00  0.51100000000E-03 0. -1.
</event>
<event>
 8    1  0.1128298E+005  0.1043930E+01  0.7957747E-01            NaN
         13   -1    0    0    0    0  0.00000000000E+00  0.00000000000E+00  0.74505805969E-08  0.10566000000E+00  0.10566000000E+00 0. -1.
     999900   -1    0    0    0    0 -0.00000000000E+00 -0.00000000000E+00 -0.74505805969E-08  0.93827000000E+00  0.93827000000E+00 0. -1.
     999902    2    1    2    0    0  0.18078533445E-01 -0.10757959618E-01 -0.10662412773E-01  0.10203449600E+01  0.10200723422E+01 0.  0.
     999903    2    3    3    0    0  0.86666257210E-01 -0.88405539695E-01  0.44316908062E-01  0.13256337183E+00  0.16807130099E-01 0.  0.
         14    1    1    2    0    0 -0.18078533445E-01  0.10757959618E-01  0.10662412773E-01  0.23585040022E-01  0.00000000000E+00 0.  1.
     999901    1    3    3    0    0 -0.68587723764E-01  0.77647580077E-01 -0.54979320835E-01  0.88778158815E+00  0.88000000000E+00 0. -1.
        -11    1    4    4    0    0  0.27591237902E-01 -0.39277738216E-01  0.14494306340E-01  0.50143425946E-01  0.51100000000E-03 0.  1.
         11    1    4    4    0    0  0.59075019308E-01 -0.49127801479E-01  0.29822601722E-01  0.82419945880E-01  0.51100000000E-03 0. -1.
</event>
<event>
 8    1  0.1128298E+005  0.1043930E+01  0.7957747E-01            NaN
         13   -1    0    0    0    0  0.00000000000E+00  0.00000000000E+00  0.74505805969E-08  0.10566000000E+00  0.10566000000E+00 0.  1.
     999900   -1    0    0    0    0 -0.00000000000E+00 -0.00000000000E+00 -0.74505805969E-08  0.93827000000E+00  0.93827000000E+00 0. -1.
     999902    2    1    2    0    0  0.78661204695E-02  0.22840023692E-01  0.28897458359E-02  0.10196011454E+01  0.10193108469E+01 0.  0.
     999903    2    3    3    0    0 -0.47863308366E-01  0.10622866322E+00  0.58946850231E-01  0.13213180321E+00  0.20215268692E-01 0.  0.
         14    1    1    2    0    0 -0.78661204695E-02 -0.22840023692E-01 -0.28897458359E-02  0.24328854566E-01  0.00000000000E+00 0. -1.
     999901    1    3    3    0    0  0.55729428835E-01 -0.83388639532E-01 -0.56057104395E-01  0.88746934223E+00  0.88000000000E+00 0. -1.
        -11    1    4    4    0    0 -0.26883764162E-01  0.73069190453E-01  0.30307539688E-01  0.83550292949E-01  0.51100000000E-03 0. -1.
         11    1    4    4    0    0 -0.20979544204E-01  0.33159472771E-01  0.28639310543E-01  0.48581510257E-01  0.51100000000E-03 0.  1.
</event>
<event>
 8    1  0.1128298E+005  0.1043930E+01  0.7957747E-01            NaN
         13   -1    0    0    0    0  0.00000000000E+00  0.00000000000E+00  0.74505805969E-08  0.10566000000E+00  0.10566000000E+00 0.  1.
     999900   -1    0    0    0    0 -0.00000000000E+00 -0.00000000000E+00 -0.74505805969E-08  0.93827000000E+00  0.93827000000E+00 0.  1.
     999902    2    1    2    0    0  0.21811247707E-01  0.14236058485E-02  0.85282124951E-02  0.10204675281E+01  0.10201977692E+01 0.  0.
     999903    2    3    3    0    0  0.10205571438E+00  0.55588354385E-01  0.62834669565E-01  0.13349391760E+00  0.19157148912E-01 0.  0.
         14    1    1    2    0    0 -0.21811247707E-01 -0.14236058485E-02 -0.85282124951E-02  0.23462471918E-01  0.00000000000E+00 0. -1.
     999901    1    3    3    0    0 -0.80244466677E-01 -0.54164748537E-01 -0.54306457070E-01  0.88697361048E+00  0.88000000000E+00 0. -1.
        -11    1    4    4    0    0  0.74665483253E-01  0.30957681603E-01  0.45829944147E-01  0.92919090294E-01  0.51100000000E-03 0. -1.
         11    1    4    4    0    0  0.27390231132E-01  0.24630672782E-01  0.17004725418E-01  0.40574827303E-01  0.51100000000E-03 0.  1.
</event>
<event>
 8    1  0.1128298E+005  0.1043930E+01  0.7957747E-01            NaN
         13   -1    0    0    0    0  0.00000000000E+00  0.00000000000E+00  0.74505805969E-08  0.10566000000E+00  0.10566000000E+00 0. -1.
     999900   -1    0    0    0    0 -0.00000000000E+00 -0.00000000000E+00 -0.74505805969E-08  0.93827000000E+00  0.93827000000E+00 0.  1.
     999902    2    1    2    0    0 -0.12014597390E-01  0.19609015984E-01  0.74366618686E-02  0.10197604324E+01  0.10194739680E+01 0.  0.
     999903    2    3    3    0    0  0.13920374539E-01 -0.27285072362E-01 -0.12315670209E+00  0.12851057686E+00  0.20227285883E-01 0.  0.
         14    1    1    2    0    0  0.12014597390E-01 -0.19609015984E-01 -0.74366618686E-02  0.24169567602E-01  0.00000000000E+00 0. -1.
     999901    1    3    3    0    0 -0.25934971929E-01  0.46894088346E-01  0.13059336396E+00  0.89124985554E+00  0.88000000000E+00 0. -1.
        -11    1    4    4    0    0  0.86221360858E-02 -0.29636431252E-01 -0.10209318155E+00  0.10665804296E+00  0.51100000000E-03 0. -1.
         11    1    4    4    0    0  0.52982384528E-02  0.23513588900E-02 -0.21063520541E-01  0.21852533901E-01  0.51100000000E-03 0.  1.
</event>
<event>
 8    1  0.1128298E+005  0.1043930E+01  0.7957747E-01            NaN
         13   -1    0    0    0    0  0.00000000000E+00  0.00000000000E+00  0.74505805969E-08  0.10566000000E+00  0.10566000000E+00 0.  1.
     999900   -1    0    0    0    0 -0.00000000000E+00 -0.00000000000E+00 -0.74505805969E-08  0.93827000000E+00  0.93827000000E+00 0.  1.
     999902    2    1    2    0    0 -0.49766867361E-02 -0.78405811753E-02 -0.20726169133E-01  0.10212184124E+01  0.10209658318E+01 0.  0.
     999903    2    3    3    0    0 -0.17035316357E-01 -0.10119377427E+00 -0.83769643053E-01  0.13395593218E+00  0.19911220868E-01 0.  0.
         14    1    1    2    0    0  0.49766867361E-02  0.78405811753E-02  0.20726169133E-01  0.22711587592E-01  0.00000000000E+00 0.  1.
     999901    1    3    3    0    0  0.12058629621E-01  0.93353193091E-01  0.63043473920E-01  0.88726248022E+00  0.88000000000E+00 0.  1.
        -11    1    4    4    0    0 -0.96048601478E-02 -0.49762922602E-01 -0.54025243602E-01  0.74078268552E-01  0.51100000000E-03 0.  1.
         11    1    4    4    0    0 -0.74304562090E-02 -0.51430851664E-01 -0.29744399451E-01  0.59877663632E-01  0.51100000000E-03 0. -1.
</event>
<event>
 8    1  0.1128298E+005  0.1043930E+01  0.7957747E-01            NaN
         13   -1    0    0    0    0  0.00000000000E+00  0.00000000000E+00  0.74505805969E-08  0.10566000000E+00  0.10566000000E+00 0. -1.
     999900   -1    0    0    0    0 -0.00000000000E+00 -0.00000000000E+00 -0.74505805969E-08  0.93827000000E+00  0.93827000000E+00 0.  1.
     999902    2    1    2    0    0  0.25897026913E-02 -0.14500716036E-01  0.19188256453E-01  0.10197397848E+01  0.10194528249E+01 0.  0.
     999903    2    3    3    0    0  0.97942256781E-01 -0.25143447073E-01  0.83026973441E-01  0.13222597698E+00  0.19114185164E-01 0.  0.
         14    1    1    2    0    0 -0.25897026913E-02  0.14500716036E-01 -0.19188256453E-01  0.24190215197E-01  0.00000000000E+00 0.  1.
     999901    1    3    3    0    0 -0.95352554090E-01  0.10642731038E-01 -0.63838716988E-01  0.88751380783E+00  0.88000000000E+00 0.  1.
        -11    1    4    4    0    0  0.84758339245E-01 -0.14840941711E-01  0.67083405277E-01  0.10910854232E+00  0.51100000000E-03 0.  1.
         11    1    4    4    0    0  0.13183917536E-01 -0.10302505362E-01  0.15943568164E-01  0.23117434657E-01  0.51100000000E-03 0. -1.
</event>
<event>
 8    1  0.1128298E+005  0.1043930E+01  0.7957747E-01            NaN
         13   -1    0    0    0    0  0.00000000000E+00  0.00000000000E+00  0.74505805969E-08  0.10566000000E+00  0.10566000000E+00 0. -1.
     999900   -1    0    0    0    0 -0.00000000000E+00 -0.00000000000E+00 -0.74505805969E-08  0.93827000000E+00  0.93827000000E+00 0.  1.
     999902    2    1    2    0    0  0.75776678276E-02 -0.21005333674E-01  0.33412189502E-02  0.10213510532E+01  0.10211014470E+01 0.  0.
     999903    2    3    3    0    0 -0.12843683520E+00  0.82810557411E-02 -0.53822766352E-02  0.13037757608E+00  0.20118323044E-01 0.  0.
         14    1    1    2    0    0 -0.75776678276E-02  0.21005333674E-01 -0.33412189502E-02  0.22578946754E-01  0.00000000000E+00 0.  1.
     999901    1    3    3    0    0  0.13601450303E+00 -0.29286389415E-01  0.87234955854E-02  0.89097347717E+00  0.88000000000E+00 0. -1.
        -11    1    4    4    0    0 -0.12640170601E-01  0.56778057611E-02 -0.43958005424E-02  0.14546325120E-01  0.51100000000E-03 0.  1.
         11    1    4    4    0    0 -0.11579666460E+00  0.26032499800E-02 -0.98647609280E-03  0.11583125096E+00  0.51100000000E-03 0. -1.
</event>
<event>
 8    1  0.1128298E+005  0.1043930E+01  0.7957747E-01            NaN
         13   -1    0    0    0    0  0.00000000000E+00  0.00000000000E+00  0.74505805969E-08  0.10566000000E+00  0.10566000000E+00 0.  1.
     999900   -1    0    0    0    0 -0.00000000000E+00 -0.00000000000E+00 -0.74505805969E-08  0.93827000000E+00  0.93827000000E+00 0. -1.
     999902    2    1    2    0    0 -0.14109782641E-02 -0.14529600686E-01  0.18396989921E-01  0.10204449112E+01  0.10201746260E+01 0.  0.
     999903    2    3    3    0    0 -0.66037298515E-01 -0.11049901682E+00 -0.20749325648E-01  0.13200857468E+00  0.20609991766E-01 0.  0.
         14    1    1    2    0    0  0.14109782641E-02  0.14529600686E-01 -0.18396989921E-01  0.23485088757E-01  0.00000000000E+00 0. -1.
     999901    1    3    3    0    0  0.64626320250E-01  0.95969416135E-01  0.39146315569E-01  0.88843633656E+00  0.88000000000E+00 0.  1.
        -11    1    4    4    0    0 -0.49411862705E-01 -0.93901729496E-01 -0.11404875614E-01  0.10672112859E+00  0.51100000000E-03 0.  1.
         11    1    4    4    0    0 -0.16625435809E-01 -0.16597287326E-01 -0.93444500346E-02  0.25287446092E-01  0.51100000000E-03 0. -1.
</event>
<event>
 8    1  0.1128298E+005  0.1043930E+01  0.7957747E-01            NaN
         13   -1    0    0    0    0  0.00000000000E+00  0.00000000000E+00  0.74505805969E-08  0.10566000000E+00  0.10566000000E+00 0. -1.
     999900   -1    0    0    0    0 -0.00000000000E+00 -0.00000000000E+00 -0.74505805969E-08  0.93827000000E+00  0.93827000000E+00 0.  1.
     999902    2    1    2    0    0 -0.61061986720E-03  0.14342284369E-01  0.18907147923E-01  0.10201907030E+01  0.10199144652E+01 0.  0.
     999903    2    3    3    0    0 -0.11476470833E+00 -0.31209657336E-01 -0.46494935783E-01  0.12924538044E+00  0.19940118425E-01 0.  0.
         14    1    1    2    0    0  0.61061986720E-03 -0.14342284369E-01 -0.18907147923E-01  0.23739296960E-01  0.00000000000E+00 0.  1.
     999901    1    3    3    0    0  0.11415408846E+00  0.45551941705E-01  0.65402083706E-01  0.89094532260E+00  0.88000000000E+00 0. -1.
        -11    1    4    4    0    0 -0.10416435303E+00 -0.22464806615E-01 -0.38283283720E-01  0.11322875479E+00  0.51100000000E-03 0.  1.
         11    1    4    4    0    0 -0.10600355306E-01 -0.87448507212E-02 -0.82116520628E-02  0.16016625654E-01  0.51100000000E-03 0. -1.
</event>
<event>
 8    1  0.1128298E+005  0.1043930E+01  0.7957747E-01            NaN
         13   -1    0    0    0    0  0.00000000000E+00  0.00000000000E+00  0.74505805969E-08  0.10566000000E+00  0.10566000000E+00 0. -1.
     999900   -1    0    0    0    0 -0.00000000000E+00 -0.00000000000E+00 -0.74505805969E-08  0.93827000000E+00  0.93827000000E+00 0. -1.
     999902    2    1    2    0    0  0.19738362551E-01 -0.40567093376E-02  0.11875410874E-01  0.10205401469E+01  0.10202720746E+01 0.  0.
     999903    2    3    3    0    0  0.86886299489E-01  0.24866769664E-01  0.96154116708E-01  0.13349543923E+00  0.20194872164E-01 0.  0.
         14    1    1    2    0    0 -0.19738362551E-01  0.40567093376E-02 -0.11875410874E-01  0.23389853148E-01  0.00000000000E+00 0.  1.
     999901    1    3    3    0    0 -0.67147936938E-01 -0.28923479002E-01 -0.84278705834E-01  0.88704470763E+00  0.88000000000E+00 0. -1.
        -11    1    4    4    0    0  0.24992848133E-01  0.13613495290E-01  0.20371338517E-01  0.35003175082E-01  0.51100000000E-03 0.  1.
         11    1    4    4    0    0  0.61893451356E-01  0.11253274374E-01  0.75782778190E-01  0.98492264144E-01  0.51100000000E-03 0. -1.
</event>
<event>
 8    1  0.1128298E+005  0.1043930E+01  0.7957747E-01            NaN
         13   -1    0    0    0    0  0.00000000000E+00  0.00000000000E+00  0.74505805969E-08  0.10566000000E+00  0.10566000000E+00 0.  1.
     999900   -1    0    0    0    0 -0.00000000000E+00 -0.00000000000E+00 -0.74505805969E-08  0.93827000000E+00  0.93827000000E+00 0.  1.
     999902    2    1    2    0    0  0.13112019006E-01  0.19382111213E-01 -0.27758023840E-02  0.10203652730E+01  0.10200931301E+01 0.  0.
     999903    2    3    3    0    0  0.10914607541E+00  0.47879712806E-01  0.54216991739E-01  0.13285029747E+00  0.22458554481E-01 0.  0.
         14    1    1    2    0    0 -0.13112019006E-01 -0.19382111213E-01  0.27758023840E-02  0.23564726953E-01  0.00000000000E+00 0.  1.
     999901    1    3    3    0    0 -0.96034056405E-01 -0.28497601592E-01 -0.56992794123E-01  0.88751497557E+00  0.88000000000E+00 0.  1.
        -11    1    4    4    0    0  0.76606803527E-01  0.26655514074E-01  0.45604229559E-01  0.93054423064E-01  0.51100000000E-03 0.  1.
         11    1    4    4    0    0  0.32539271884E-01  0.21224198732E-01  0.86127621799E-02  0.39795874409E-01  0.51100000000E-03 0. -1.
</event>
<event>
 8    1  0.1128298E+005  0.1043930E+01  0.7957747E-01            NaN
         13   -1    0    0    0    0  0.00000000000E+00  0.00000000000E+00  0.74505805969E-08  0.10566000000E+00  0.10566000000E+00 0.  1.
     999900   -1    0    0    0    0 -0.00000000000E+00 -0.00000000000E+00 -0.74505805969E-08  0.93827000000E+00  0.93827000000E+00 0. -1.
     999902    2    1    2    0    0 -0.21206546214E-01  0.36830566493E-02  0.10184679781E-01  0.10201180238E+01  0.10198400719E+01 0.  0.
     999903    2    3    3    0    0 -0.41815039071E-01  0.12274780934E+00  0.12080203040E-01  0.13185864821E+00  0.20621581217E-01 0.  0.
         14    1    1    2    0    0  0.21206546214E-01 -0.36830566493E-02 -0.10184679781E-01  0.23811976206E-01  0.00000000000E+00 0. -1.
     999901    1    3    3    0    0  0.20608492857E-01 -0.11906475269E+00 -0.18955232587E-02  0.88825937559E+00  0.88000000000E+00 0. -1.
        -11    1    4    4    0    0 -0.28602832484E-02  0.31987865842E-01 -0.15377224751E-02  0.32156344519E-01  0.51100000000E-03 0.  1.
         11    1    4    4    0    0 -0.38954755822E-01  0.90759943495E-01  0.13617925515E-01  0.99702303688E-01  0.51100000000E-03 0. -1.
</event>
<event>
 8    1  0.1128298E+005  0.1043930E+01  0.7957747E-01            NaN
         13   -1    0    0    0    0  0.00000000000E+00  0.00000000000E+00  0.74505805969E-08  0.10566000000E+00  0.10566000000E+00 0. -1.
     999900   -1    0    0    0    0 -0.00000000000E+00 -0.00000000000E+00 -0.74505805969E-08  0.93827000000E+00  0.93827000000E+00 0. -1.
     999902    2    1    2    0    0 -0.79305328784E-02  0.22092120412E-01 -0.55201519405E-02  0.10198171981E+01  0.10195320939E+01 0.  0.
     999903    2    3    3    0    0  0.54990839157E-01  0.11379183143E+00  0.33310730810E-01  0.13196823941E+00  0.18260288455E-01 0.  0.
         14    1    1    2    0    0  0.79305328784E-02 -0.22092120412E-01  0.55201519405E-02  0.24112801858E-01  0.00000000000E+00 0.  1.
     999901    1    3    3    0    0 -0.62921372035E-01 -0.91699711022E-01 -0.38830882750E-01  0.88784895873E+00  0.88000000000E+00 0. -1.
        -11    1    4    4    0    0  0.46834054043E-01  0.81420497251E-01  0.28990619757E-01  0.98302813518E-01  0.51100000000E-03 0. -1.
         11    1    4    4    0    0  0.81567851135E-02  0.32371334183E-01  0.43201110529E-02  0.33665425895E-01  0.51100000000E-03 0.  1.
</event>
<event>
 8    1  0.1128298E+005  0.1043930E+01  0.7957747E-01            NaN
         13   -1    0    0    0    0  0.00000000000E+00  0.00000000000E+00  0.74505805969E-08  0.10566000000E+00  0.10566000000E+00 0.  1.
     999900   -1    0    0    0    0 -0.00000000000E+00 -0.00000000000E+00 -0.74505805969E-08  0.93827000000E+00  0.93827000000E+00 0. -1.
     999902    2    1    2    0    0  0.49809764358E-02 -0.21313165189E-01 -0.94555078181E-02  0.10200874380E+01  0.10198087631E+01 0.  0.
     999903    2    3    3    0    0 -0.11877488227E+00 -0.16632545495E-01  0.45327033095E-01  0.12972877565E+00  0.19771218332E-01 0.  0.
         14    1    1    2    0    0 -0.49809764358E-02  0.21313165189E-01  0.94555078181E-02  0.23842562042E-01  0.00000000000E+00 0. -1.
     999901    1    3    3    0    0  0.12375585870E+00 -0.46806196931E-02 -0.54782540913E-01  0.89035866231E+00  0.88000000000E+00 0. -1.
        -11    1    4    4    0    0 -0.96630140244E-01 -0.61175477874E-02  0.33073750857E-01  0.10231785040E+00  0.51100000000E-03 0.  1.
         11    1    4    4    0    0 -0.22144742024E-01 -0.10514997708E-01  0.12253282237E-01  0.27410925243E-01  0.51100000000E-03 0. -1.
</event>
<event>
 8    1  0.1128298E+005  0.1043930E+01  0.7957747E-01            NaN
         13   -1    0    0    0    0  0.00000000000E+00  0.00000000000E+00  0.74505805969E-08  0.10566000000E+00  0.10566000000E+00 0.  1.
     999900   -1    0    0    0    0 -0.00000000000E+00 -0.00000000000E+00 -0.74505805969E-08  0.93827000000E+00  0.93827000000E+00 0.  1.
     999902    2    1    2    0    0  0.13366466752E-01  0.18359191334E-01 -0.14788709282E-01  0.10168296631E+01  0.10164684626E+01 0.  0.
     999903    2    3    3    0    0  0.87007818575E-01  0.34095986574E-01 -0.88937892905E-01  0.13050647322E+00  0.19725464865E-01 0.  0.
         14    1    1    2    0    0 -0.13366466752E-01 -0.18359191334E-01  0.14788709282E-01  0.27100336937E-01  0.00000000000E+00 0.  1.
     999901    1    3    3    0    0 -0.73641351823E-01 -0.15736795240E-01  0.74149183623E-01  0.88632318984E+00  0.88000000000E+00 0. -1.
        -11    1    4    4    0    0  0.67417175101E-01  0.31357923155E-01 -0.60484994227E-01  0.95849311374E-01  0.51100000000E-03 0.  1.
         11    1    4    4    0    0  0.19590643474E-01  0.27380634194E-02 -0.28452898678E-01  0.34657161846E-01  0.51100000000E-03 0. -1.
</event>
<event>
 8    1  0.1128298E+005  0.1043930E+01  0.7957747E-01            NaN
         13   -1    0    0    0    0  0.00000000000E+00  0.00000000000E+00  0.74505805969E-08  0.10566000000E+00  0.10566000000E+00 0. -1.
     999900   -1    0    0    0    0 -0.00000000000E+00 -0.00000000000E+00 -0.74505805969E-08  0.93827000000E+00  0.93827000000E+00 0.  1.
     999902    2    1    2    0    0 -0.21946439043E-01 -0.73174413110E-02  0.47477076260E-02  0.10203136527E+01  0.10200403021E+01 0.  0.
     999903    2    3    3    0    0 -0.10480995214E+00  0.78054555288E-01  0.29522615687E-02  0.13230579051E+00  0.20456458279E-01 0.  0.
         14    1    1    2    0    0  0.21946439043E-01  0.73174413110E-02 -0.47477076260E-02  0.23616347341E-01  0.00000000000E+00 0. -1.
     999901    1    3    3    0    0  0.82863513101E-01 -0.85371996599E-01  0.17954460572E-02  0.88800786215E+00  0.88000000000E+00 0. -1.
        -11    1    4    4    0    0 -0.67401168338E-01  0.61006399195E-01 -0.17168937280E-02  0.90928032427E-01  0.51100000000E-03 0. -1.
         11    1    4    4    0    0 -0.37408783806E-01  0.17048156093E-01  0.46691552967E-02  0.41377758086E-01  0.51100000000E-03 0.  1.
</event>
<event>
 8    1  0.1128298E+005  0.1043930E+01  0.7957747E-01            NaN
         13   -1    0    0    0    0  0.00000000000E+00  0.00000000000E+00  0.74505805969E-08  0.10566000000E+00  0.10566000000E+00 0.  1.
     999900   -1    0    0    0    0 -0.00000000000E+00 -0.00000000000E+00 -0.74505805969E-08  0.93827000000E+00  0.93827000000E+00 0. -1.
     999902    2    1    2    0    0 -0.18203155694E-01 -0.31936066537E-02  0.15209255197E-01  0.10199951834E+01  0.10197143221E+01 0.  0.
     999903    2    3    3    0    0 -0.10626243241E+00  0.62276884591E-01 -0.41764008998E-01  0.13135196240E+00  0.18411699623E-01 0.  0.
         14    1    1    2    0    0  0.18203155694E-01  0.31936066537E-02 -0.15209255197E-01  0.23934816572E-01  0.00000000000E+00 0.  1.
     999901    1    3    3    0    0  0.88059276719E-01 -0.65470491245E-01  0.56973264195E-01  0.88864322102E+00  0.88000000000E+00 0.  1.
        -11    1    4    4    0    0 -0.18201318094E-01  0.96391864034E-02 -0.54548086703E-04  0.20602572445E-01  0.51100000000E-03 0.  1.
         11    1    4    4    0    0 -0.88061114319E-01  0.52637698188E-01 -0.41709460911E-01  0.11074938996E+00  0.51100000000E-03 0. -1.
</event>
<event>
 8    1  0.1128298E+005  0.1043930E+01  0.7957747E-01            NaN
         13   -1    0    0    0    0  0.00000000000E+00  0.00000000000E+00  0.74505805969E-08  0.10566000000E+00  0.10566000000E+00 0. -1.
     999900   -1    0    0    0    0 -0.00000000000E+00 -0.00000000000E+00 -0.74505805969E-08  0.93827000000E+00  0.93827000000E+00 0. -1.
     999902    2    1    2    0    0 -0.22860663672E-02  0.12741859886E-01  0.19414579169E-01  0.10205953267E+01  0.10203285324E+01 0.  0.
     999903    2    3    3    0    0 -0.10000933745E+00 -0.73351648292E-01 -0.31675850408E-01  0.12954417114E+00  0.19899771182E-01 0.  0.
         14    1    1    2    0    0  0.22860663672E-02 -0.12741859886E-01 -0.19414579169E-01  0.23334673281E-01  0.00000000000E+00 0.  1.
     999901    1    3    3    0    0  0.97723271085E-01  0.86093508177E-01  0.51090429578E-01  0.89105115558E+00  0.88000000000E+00 0.  1.
        -11    1    4    4    0    0 -0.43308525433E-01 -0.43633438468E-01 -0.12769847068E-01  0.62792001424E-01  0.51100000000E-03 0. -1.
         11    1    4    4    0    0 -0.56700812019E-01 -0.29718209824E-01 -0.18906003340E-01  0.66752169718E-01  0.51100000000E-03 0.  1.
</event>
<event>
 8    1  0.1128298E+005  0.1043930E+01  0.7957747E-01            NaN
         13   -1    0    0    0    0  0.00000000000E+00  0.00000000000E+00  0.74505805969E-08  0.10566000000E+00  0.10566000000E+00 0.  1.
     999900   -1    0    0    0    0 -0.00000000000E+00 -0.00000000000E+00 -0.74505805969E-08  0.93827000000E+00  0.93827000000E+00 0.  1.
     999902    2    1    2    0    0 -0.16583514569E-01  0.12542457379E-01  0.11476178292E-01  0.10201807082E+01  0.10199042350E+01 0.  0.
     999903    2    3    3    0    0 -0.28933699751E-01  0.11887957650E+00  0.47935444184E-01  0.13294376801E+00  0.20167447894E-01 0.  0.
         14    1    1    2    0    0  0.16583514569E-01 -0.12542457379E-01 -0.11476178292E-01  0.23749291795E-01  0.00000000000E+00 0. -1.
     999901    1    3    3    0    0  0.12350185182E-01 -0.10633711912E+00 -0.36459265893E-01  0.88723694019E+00  0.88000000000E+00 0.  1.
        -11    1    4    4    0    0 -0.85376299381E-03  0.30854623652E-01  0.18414682483E-01  0.35945769764E-01  0.51100000000E-03 0. -1.
         11    1    4    4    0    0 -0.28079936757E-01  0.88024952843E-01  0.29520761701E-01  0.96997998246E-01  0.51100000000E-03 0.  1.
</event>
<event>
 8    1  0.1128298E+005  0.1043930E+01  0.7957747E-01            NaN
         13   -1    0    0    0    0  0.00000000000E+00  0.00000000000E+00  0.74505805969E-08  0.10566000000E+00  0.10566000000E+00 0.  1.
     999900   -1    0    0    0    0 -0.00000000000E+00 -0.00000000000E+00 -0.74505805969E-08  0.93827000000E+00  0.93827000000E+00 0.  1.
     999902    2    1    2    0    0  0.87204470160E-02 -0.20729580048E-01 -0.76192496016E-02  0.10201852185E+01  0.10199088515E+01 0.  0.
     999903    2    3    3    0    0  0.17334823862E-01  0.69690097201E-01 -0.10661214013E+00  0.12998888176E+00  0.19332749226E-01 0.  0.
         14    1    1    2    0    0 -0.87204470160E-02  0.20729580048E-01  0.76192496016E-02  0.23744781524E-01  0.00000000000E+00 0.  1.
     999901    1    3    3    0    0 -0.86143768456E-02 -0.90419677248E-01  0.98992890529E-01  0.89019633671E+00  0.88000000000E+00 0. -1.
        -11    1    4    4    0    0  0.41584487941E-02  0.24682500082E-01 -0.53915396978E-01  0.59444509073E-01  0.51100000000E-03 0.  1.
         11    1    4    4    0    0  0.13176375068E-01  0.45007597118E-01 -0.52696743153E-01  0.70544372690E-01  0.51100000000E-03 0. -1.
</event>
<event>
 8    1  0.1128298E+005  0.1043930E+01  0.7957747E-01            NaN
         13   -1    0    0    0    0  0.00000000000E+00  0.00000000000E+00  0.74505805969E-08  0.10566000000E+00  0.10566000000E+00 0. -1.
     999900   -1    0    0    0    0 -0.00000000000E+00 -0.00000000000E+00 -0.74505805969E-08  0.93827000000E+00  0.93827000000E+00 0.  1.
     999902    2    1    2    0    0 -0.28442613652E-01 -0.48434914299E-02  0.36794639667E-03  0.10150755885E+01  0.10146653996E+01 0.  0.
     999903    2    3    3    0    0 -0.11791202200E+00  0.41894024000E-01 -0.24321263040E-01  0.12896118984E+00  0.19522050866E-01 0.  0.
         14    1    1    2    0    0  0.28442613652E-01  0.48434914299E-02 -0.36794639667E-03  0.28854411537E-01  0.00000000000E+00 0.  1.
     999901    1    3    3    0    0  0.89469408351E-01 -0.46737515430E-01  0.24689209437E-01  0.88611439862E+00  0.88000000000E+00 0. -1.
        -11    1    4    4    0    0 -0.50294045411E-01  0.88230658343E-02 -0.54261491349E-02  0.51352134424E-01  0.51100000000E-03 0.  1.
         11    1    4    4    0    0 -0.67617976592E-01  0.33070958166E-01 -0.18895113905E-01  0.77609055419E-01  0.51100000000E-03 0. -1.
</event>
<event>
 8    1  0.1128298E+005  0.1043930E+01  0.7957747E-01            NaN
         13   -1    0    0    0    0  0.00000000000E+00  0.00000000000E+00  0.74505805969E-08  0.10566000000E+00  0.10566000000E+00 0. -1.
     999900   -1    0    0    0    0 -0.00000000000E+00 -0.00000000000E+00 -0.74505805969E-08  0.93827000000E+00  0.93827000000E+00 0.  1.
     999902    2    1    2    0    0  0.11644550375E-01 -0.39669214931E-02  0.20639375706E-01  0.10199026021E+01  0.10196195378E+01 0.  0.
     999903    2    3    3    0    0  0.57538710255E-01  0.80388020568E-01 -0.80520709030E-01  0.12891697209E+00  0.19054240538E-01 0.  0.
         14    1    1    2    0    0 -0.11644550375E-01  0.39669214931E-02 -0.20639375706E-01  0.24027397885E-01  0.00000000000E+00 0.  1.
     999901    1    3    3    0    0 -0.45894159880E-01 -0.84354942061E-01  0.10116008474E+00  0.89098563002E+00  0.88000000000E+00 0. -1.
        -11    1    4    4    0    0  0.15653121853E-01  0.31099436654E-01 -0.19086683754E-01  0.39708409710E-01  0.51100000000E-03 0. -1.
         11    1    4    4    0    0  0.41885588402E-01  0.49288583914E-01 -0.61434025276E-01  0.89208562384E-01  0.51100000000E-03 0.  1.
</event>
<event>
 8    1  0.1128298E+005  0.1043930E+01  0.7957747E-01            NaN
         13   -1    0    0    0    0  0.00000000000E+00  0.00000000000E+00  0.74505805969E-08  0.10566000000E+00  0.10566000000E+00 0. -1.
     999900   -1    0    0    0    0 -0.00000000000E+00 -0.00000000000E+00 -0.74505805969E-08  0.93827000000E+00  0.93827000000E+00 0.  1.
     999902    2    1    2    0    0  0.21849866074E-01 -0.73236003468E-02  0.17284515234E-02  0.10208207094E+01  0.10205591023E+01 0.  0.
     999903    2    3    3    0    0  0.70410367225E-02  0.95745159820E-01 -0.85762583613E-01  0.13037298378E+00  0.20619949683E-01 0.  0.
         14    1    1    2    0    0 -0.21849866074E-01  0.73236003468E-02 -0.17284515234E-02  0.23109290646E-01  0.00000000000E+00 0. -1.
     999901    1    3    3    0    0  0.14808829352E-01 -0.10306876017E+00  0.87491035136E-01  0.89044772557E+00  0.88000000000E+00 0. -1.
        -11    1    4    4    0    0  0.10736271403E-01  0.83645210632E-01 -0.66858517946E-01  0.10762021803E+00  0.51100000000E-03 0.  1.
         11    1    4    4    0    0 -0.36952346810E-02  0.12099949188E-01 -0.18904065667E-01  0.22752765754E-01  0.51100000000E-03 0. -1.
</event>
<event>
 8    1  0.1128298E+005  0.1043930E+01  0.7957747E-01            NaN
         13   -1    0    0    0    0  0.00000000000E+00  0.00000000000E+00  0.74505805969E-08  0.10566000000E+00  0.10566000000E+00 0.  1.
     999900   -1    0    0    0    0 -0.00000000000E+00 -0.00000000000E+00 -0.74505805969E-08  0.93827000000E+00  0.93827000000E+00 0.  1.
     999902    2    1    2    0    0 -0.10198868625E-01  0.19875864312E-01 -0.82342382720E-02  0.10201209769E+01  0.10198430947E+01 0.  0.
     999903    2    3    3    0    0 -0.39702782159E-01 -0.11989748820E+00 -0.10991802524E-01  0.12859718292E+00  0.21556835211E-01 0.  0.
         14    1    1    2    0    0  0.10198868625E-01 -0.19875864312E-01  0.82342382720E-02  0.23809023149E-01  0.00000000000E+00 0.  1.
     999901    1    3    3    0    0  0.29503913533E-01  0.13977335251E+00  0.27575642520E-02  0.89152379393E+00  0.88000000000E+00 0. -1.
        -11    1    4    4    0    0 -0.26080150112E-01 -0.60318067836E-01 -0.14788542814E-01  0.67360267642E-01  0.51100000000E-03 0. -1.
         11    1    4    4    0    0 -0.13622632047E-01 -0.59579420364E-01  0.37967402902E-02  0.61236915277E-01  0.51100000000E-03 0.  1.
</event>
<event>
 8    1  0.1128298E+005  0.1043930E+01  0.7957747E-01            NaN
         13   -1    0    0    0    0  0.00000000000E+00  0.00000000000E+00  0.74505805969E-08  0.10566000000E+00  0.10566000000E+00 0.  1.
     999900   -1    0    0    0    0 -0.00000000000E+00 -0.00000000000E+00 -0.74505805969E-08  0.93827000000E+00  0.93827000000E+00 0.  1.
     999902    2    1    2    0    0 -0.50876104058E-02  0.21505559584E-01 -0.95811940692E-02  0.10198432370E+01  0.10195587555E+01 0.  0.
     999903    2    3    3    0    0  0.17041109200E-01 -0.98934313657E-01 -0.77740648572E-01  0.12875336804E+00  0.21340654164E-01 0.  0.
         14    1    1    2    0    0  0.50876104058E-02 -0.21505559584E-01  0.95811940692E-02  0.24086763013E-01  0.00000000000E+00 0.  1.
     999901    1    3    3    0    0 -0.22128719606E-01  0.12043987324E+00  0.68159454503E-01  0.89108986894E+00  0.88000000000E+00 0. -1.
        -11    1    4    4    0    0  0.19925606361E-01 -0.53386389696E-01 -0.42449783438E-01  0.71059001038E-01  0.51100000000E-03 0.  1.
         11    1    4    4    0    0 -0.28844971605E-02 -0.45547923961E-01 -0.35290865134E-01  0.57694367004E-01  0.51100000000E-03 0. -1.
</event>
<event>
 8    1  0.1128298E+005  0.1043930E+01  0.7957747E-01            NaN
         13   -1    0    0    0    0  0.00000000000E+00  0.00000000000E+00  0.74505805969E-08  0.10566000000E+00  0.10566000000E+00 0.  1.
     999900   -1    0    0    0    0 -0.00000000000E+00 -0.00000000000E+00 -0.74505805969E-08  0.93827000000E+00  0.93827000000E+00 0.  1.
     999902    2    1    2    0    0  0.12658638746E-01  0.10204179521E-01 -0.16120120221E-01  0.10210340464E+01  0.10207773015E+01 0.  0.
     999903    2    3    3    0    0  0.12420363986E+00  0.42246058846E-02 -0.44318962566E-01  0.13352448743E+00  0.20499435422E-01 0.  0.
         14    1    1    2    0    0 -0.12658638746E-01 -0.10204179521E-01  0.16120120221E-01  0.22895953585E-01  0.00000000000E+00 0.  1.
     999901    1    3    3    0    0 -0.11154500111E+00  0.59795736367E-02  0.28198842345E-01  0.88750955898E+00  0.88000000000E+00 0. -1.
        -11    1    4    4    0    0  0.64889227049E-01  0.12423719355E-01 -0.22690787219E-01  0.69857666260E-01  0.51100000000E-03 0.  1.
         11    1    4    4    0    0  0.59314412809E-01 -0.81991134700E-02 -0.21628175347E-01  0.63666821174E-01  0.51100000000E-03 0. -1.
</event>
<event>
 8    1  0.1128298E+005  0.1043930E+01  0.7957747E-01            NaN
         13   -1    0    0    0    0  0.00000000000E+00  0.00000000000E+00  0.74505805969E-08  0.10566000000E+00  0.10566000000E+00 0.  1.
     999900   -1    0    0    0    0 -0.00000000000E+00 -0.00000000000E+00 -0.74505805969E-08  0.93827000000E+00  0.93827000000E+00 0.  1.
     999902    2    1    2    0    0 -0.22495263558E-01 -0.50679278231E-02 -0.59806145014E-02  0.10201079824E+01  0.10198297932E+01 0.  0.
     999903    2    3    3    0    0  0.10858401963E+00  0.57006948426E-01  0.28591844631E-01  0.12756648546E+00  0.20382177153E-01 0.  0.
         14    1    1    2    0    0  0.22495263558E-01  0.50679278231E-02  0.59806145014E-02  0.23822017647E-01  0.00000000000E+00 0.  1.
     999901    1    3    3    0    0 -0.13107928319E+00 -0.62074876249E-01 -0.34572459133E-01  0.89254149689E+00  0.88000000000E+00 0. -1.
        -11    1    4    4    0    0  0.10090846952E+00  0.46207381497E-01  0.26903321368E-01  0.11420022393E+00  0.51100000000E-03 0.  1.
         11    1    4    4    0    0  0.76755501152E-02  0.10799566929E-01  0.16885232628E-02  0.13366261528E-01  0.51100000000E-03 0. -1.
</event>
<event>
 8    1  0.1128298E+005  0.1043930E+01  0.7957747E-01            NaN
         13   -1    0    0    0    0  0.00000000000E+00  0.00000000000E+00  0.74505805969E-08  0.10566000000E+00  0.10566000000E+00 0.  1.
     999900   -1    0    0    0    0 -0.00000000000E+00 -0.00000000000E+00 -0.74505805969E-08  0.93827000000E+00  0.93827000000E+00 0. -1.
     999902    2    1    2    0    0 -0.20471115469E-01  0.59866776341E-02  0.87468405551E-02  0.10208775794E+01  0.10206172730E+01 0.  0.
     999903    2    3    3    0    0 -0.92497495745E-01  0.20300938334E-01 -0.90363582940E-01  0.13227442071E+00  0.19053357618E-01 0.  0.
         14    1    1    2    0    0  0.20471115469E-01 -0.59866776341E-02 -0.87468405551E-02  0.23052420639E-01  0.00000000000E+00 0. -1.
     999901    1    3    3    0    0  0.72026380276E-01 -0.14314260700E-01  0.99110423495E-01  0.88860315865E+00  0.88000000000E+00 0.  1.
        -11    1    4    4    0    0 -0.66309032699E-01  0.11329315327E-01 -0.52321274397E-01  0.85223342335E-01  0.51100000000E-03 0. -1.
         11    1    4    4    0    0 -0.26188463046E-01  0.89716230070E-02 -0.38042308544E-01  0.47051078377E-01  0.51100000000E-03 0.  1.
</event>
<event>
 7    1  0.1128298E+005  0.1043930E+01  0.7957747E-01            NaN
         13   -1    0    0    0    0  0.00000000000E+00  0.00000000000E+00  0.74505805969E-08  0.10566000000E+00  0.10566000000E+00 0. -1.
     999900   -1    0    0    0    0 -0.00000000000E+00 -0.00000000000E+00 -0.74505805969E-08  0.93827000000E+00  0.93827000000E+00 0. -1.
     999903    2    1    2    0    0  0.46742920434E-02  0.32712906282E-01 -0.99392491213E-01  0.10665705452E+00  0.20121548807E-01 0.  0.
         14    1    1    2    0    0 -0.33181168264E-01 -0.22382978789E-01  0.37059533669E-01  0.54547197019E-01  0.00000000000E+00 0. -1.
     999901    1    1    2    0    0  0.28506876221E-01 -0.10329927493E-01  0.62332957544E-01  0.88272574846E+00  0.88000000000E+00 0.  1.
        -11    1    3    3    0    0  0.47845191452E-02  0.27385081847E-01 -0.52033441274E-01  0.58996393644E-01  0.51100000000E-03 0.  1.
         11    1    3    3    0    0 -0.11022710178E-03  0.53278244346E-02 -0.47359049940E-01  0.47660660879E-01  0.51100000000E-03 0. -1.
</event>
<event>
 8    1  0.1128298E+005  0.1043930E+01  0.7957747E-01            NaN
         13   -1    0    0    0    0  0.00000000000E+00  0.00000000000E+00  0.74505805969E-08  0.10566000000E+00  0.10566000000E+00 0. -1.
     999900   -1    0    0    0    0 -0.00000000000E+00 -0.00000000000E+00 -0.74505805969E-08  0.93827000000E+00  0.93827000000E+00 0.  1.
     999902    2    1    2    0    0 -0.25851338066E-01 -0.73126591020E-03 -0.76141945219E-02  0.10169707272E+01  0.10166133275E+01 0.  0.
     999903    2    3    3    0    0  0.98011640677E-01  0.55487352952E-01  0.49551315892E-01  0.12468687880E+00  0.20158293365E-01 0.  0.
         14    1    1    2    0    0  0.25851338066E-01  0.73126591020E-03  0.76141945219E-02  0.26959272762E-01  0.00000000000E+00 0. -1.
     999901    1    3    3    0    0 -0.12386297874E+00 -0.56218618862E-01 -0.57165510414E-01  0.89228384844E+00  0.88000000000E+00 0. -1.
        -11    1    4    4    0    0  0.83228494640E-01  0.42994923958E-01  0.48007387444E-01  0.10526403078E+00  0.51100000000E-03 0. -1.
         11    1    4    4    0    0  0.14783146037E-01  0.12492428994E-01  0.15439284473E-02  0.19422848014E-01  0.51100000000E-03 0.  1.
</event>
<event>
 8    1  0.1128298E+005  0.1043930E+01  0.7957747E-01            NaN
         13   -1    0    0    0    0  0.00000000000E+00  0.00000000000E+00  0.74505805969E-08  0.10566000000E+00  0.10566000000E+00 0. -1.
     999900   -1    0    0    0    0 -0.00000000000E+00 -0.00000000000E+00 -0.74505805969E-08  0.93827000000E+00  0.93827000000E+00 0.  1.
     999902    2    1    2    0    0 -0.46944025420E-02 -0.10036927490E-01  0.21024657338E-01  0.10201641938E+01  0.10198873314E+01 0.  0.
     999903    2    3    3    0    0 -0.51540705884E-01  0.56485990210E-01 -0.10087301312E+00  0.12804373288E+00  0.19305991283E-01 0.  0.
         14    1    1    2    0    0  0.46944025420E-02  0.10036927490E-01 -0.21024657338E-01  0.23765806211E-01  0.00000000000E+00 0.  1.
     999901    1    3    3    0    0  0.46846303342E-01 -0.66522917700E-01  0.12189767046E+00  0.89212046091E+00  0.88000000000E+00 0. -1.
        -11    1    4    4    0    0 -0.66788244124E-02  0.12168002395E-03 -0.10744783252E-01  0.12662266373E-01  0.51100000000E-03 0.  1.
         11    1    4    4    0    0 -0.44861881472E-01  0.56364310186E-01 -0.90128229871E-01  0.11538146650E+00  0.51100000000E-03 0. -1.
</event>
<event>
 8    1  0.1128298E+005  0.1043930E+01  0.7957747E-01            NaN
         13   -1    0    0    0    0  0.00000000000E+00  0.00000000000E+00  0.74505805969E-08  0.10566000000E+00  0.10566000000E+00 0. -1.
     999900   -1    0    0    0    0 -0.00000000000E+00 -0.00000000000E+00 -0.74505805969E-08  0.93827000000E+00  0.93827000000E+00 0. -1.
     999902    2    1    2    0    0  0.20888456740E-01  0.72845915926E-02 -0.51583206795E-02  0.10212143408E+01  0.10209616686E+01 0.  0.
     999903    2    3    3    0    0  0.18739984247E-01  0.99617869330E-01  0.82164173160E-01  0.13208259128E+00  0.20492746741E-01 0.  0.
         14    1    1    2    0    0 -0.20888456740E-01 -0.72845915926E-02  0.51583206795E-02  0.22715659178E-01  0.00000000000E+00 0. -1.
     999901    1    3    3    0    0  0.21484724937E-02 -0.92333277737E-01 -0.87322493840E-01  0.88913174954E+00  0.88000000000E+00 0.  1.
        -11    1    4    4    0    0  0.22300656076E-01  0.76579884157E-01  0.58972994574E-01  0.99196134647E-01  0.51100000000E-03 0.  1.
         11    1    4    4    0    0 -0.35606718294E-02  0.23037985172E-01  0.23191178586E-01  0.32886456633E-01  0.51100000000E-03 0. -1.
</event>
<event>
 8    1  0.1128298E+005  0.1043930E+01  0.7957747E-01            NaN
         13   -1    0    0    0    0  0.00000000000E+00  0.00000000000E+00  0.74505805969E-08  0.10566000000E+00  0.10566000000E+00 0. -1.
     999900   -1    0    0    0    0 -0.00000000000E+00 -0.00000000000E+00 -0.74505805969E-08  0.93827000000E+00  0.93827000000E+00 0. -1.
     999902    2    1    2    0    0  0.10239805670E-01 -0.19193198346E-01 -0.76606833824E-02  0.10208666405E+01  0.10206060842E+01 0.  0.
     999903    2    3    3    0    0  0.78787422262E-01 -0.46411622518E-01 -0.94900143833E-01  0.13348265266E+00  0.21215198592E-01 0.  0.
         14    1    1    2    0    0 -0.10239805670E-01  0.19193198346E-01  0.76606833824E-02  0.23063359530E-01  0.00000000000E+00 0. -1.
     999901    1    3    3    0    0 -0.68547616592E-01  0.27218424172E-01  0.87239460450E-01  0.88738398781E+00  0.88000000000E+00 0.  1.
        -11    1    4    4    0    0  0.32037566819E-01 -0.30202980499E-01 -0.38919700461E-01  0.58767592461E-01  0.51100000000E-03 0. -1.
         11    1    4    4    0    0  0.46749855443E-01 -0.16208642020E-01 -0.55980443372E-01  0.74715060203E-01  0.51100000000E-03 0.  1.
</event>
<event>
 8    1  0.1128298E+005  0.1043930E+01  0.7957747E-01            NaN
         13   -1    0    0    0    0  0.00000000000E+00  0.00000000000E+00  0.74505805969E-08  0.10566000000E+00  0.10566000000E+00 0. -1.
     999900   -1    0    0    0    0 -0.00000000000E+00 -0.00000000000E+00 -0.74505805969E-08  0.93827000000E+00  0.93827000000E+00 0.  1.
     999902    2    1    2    0    0 -0.21421053453E-01  0.10428512710E-01  0.41461183904E-02  0.10197472436E+01  0.10194604628E+01 0.  0.
     999903    2    3    3    0    0  0.15236993734E-01  0.12824115496E+00  0.10454024788E-01  0.13111716266E+00  0.20111288059E-01 0.  0.
         14    1    1    2    0    0  0.21421053453E-01 -0.10428512710E-01 -0.41461183904E-02  0.24182756379E-01  0.00000000000E+00 0. -1.
     999901    1    3    3    0    0 -0.36658047187E-01 -0.11781264225E+00 -0.63079063972E-02  0.88863008096E+00  0.88000000000E+00 0. -1.
        -11    1    4    4    0    0  0.18363105861E-01  0.81725132677E-01  0.23705745684E-02  0.83797862220E-01  0.51100000000E-03 0.  1.
         11    1    4    4    0    0 -0.31261121270E-02  0.46516022283E-01  0.80834502192E-02  0.47319300444E-01  0.51100000000E-03 0. -1.
</event>
<event>
 8    1  0.1128298E+005  0.1043930E+01  0.7957747E-01            NaN
         13   -1    0    0    0    0  0.00000000000E+00  0.00000000000E+00  0.74505805969E-08  0.10566000000E+00  0.10566000000E+00 0. -1.
     999900   -1    0    0    0    0 -0.00000000000E+00 -0.00000000000E+00 -0.74505805969E-08  0.93827000000E+00  0.93827000000E+00 0.  1.
     999902    2    1    2    0    0 -0.77936623181E-02  0.15393256374E-01  0.15571091710E-01  0.10206888208E+01  0.10204241846E+01 0.  0.
     999903    2    3    3    0    0 -0.62746097475E-01  0.11430694155E+00 -0.44616965510E-02  0.13321769458E+00  0.26905348501E-01 0.  0.
         14    1    1    2    0    0  0.77936623181E-02 -0.15393256374E-01 -0.15571091710E-01  0.23241179212E-01  0.00000000000E+00 0. -1.
     999901    1    3    3    0    0  0.54952435157E-01 -0.98913685179E-01  0.20032788261E-01  0.88747112621E+00  0.88000000000E+00 0. -1.
        -11    1    4    4    0    0 -0.21367040716E-01  0.33275690512E-01  0.10714467650E-01  0.40974174134E-01  0.51100000000E-03 0.  1.
         11    1    4    4    0    0 -0.41379056759E-01  0.81031251041E-01 -0.15176164201E-01  0.92243520447E-01  0.51100000000E-03 0. -1.
</event>
<event>
 8    1  0.1128298E+005  0.1043930E+01  0.7957747E-01            NaN
         13   -1    0    0    0    0  0.00000000000E+00  0.00000000000E+00  0.74505805969E-08  0.10566000000E+00  0.10566000000E+00 0. -1.
     999900   -1    0    0    0    0 -0.00000000000E+00 -0.00000000000E+00 -0.74505805969E-08  0.93827000000E+00  0.93827000000E+00 0.  1.
     999902    2    1    2    0    0  0.53986608358E-02  0.19855425851E-01 -0.98603261881E-02  0.10211131311E+01  0.10208581767E+01 0.  0.
     999903    2    3    3    0    0 -0.16160375984E-01  0.47930268029E-01  0.11879712298E+00  0.13105373528E+00  0.22446753841E-01 0.  0.
         14    1    1    2    0    0 -0.53986608358E-02 -0.19855425851E-01  0.98603261881E-02  0.22816868915E-01  0.00000000000E+00 0. -1.
     999901    1    3    3    0    0  0.21559036820E-01 -0.28074842177E-01 -0.12865744917E+00  0.89005939580E+00  0.88000000000E+00 0.  1.
        -11    1    4    4    0    0 -0.33524386042E-02  0.10347704444E-01  0.53768519547E-01  0.54860082456E-01  0.51100000000E-03 0. -1.
         11    1    4    4    0    0 -0.12807937380E-01  0.37582563585E-01  0.65028603431E-01  0.76193652825E-01  0.51100000000E-03 0.  1.
</event>
<event>
 8    1  0.1128298E+005  0.1043930E+01  0.7957747E-01            NaN
         13   -1    0    0    0    0  0.00000000000E+00  0.00000000000E+00  0.74505805969E-08  0.10566000000E+00  0.10566000000E+00 0.  1.
     999900   -1    0    0    0    0 -0.00000000000E+00 -0.00000000000E+00 -0.74505805969E-08  0.93827000000E+00  0.93827000000E+00 0. -1.
     999902    2    1    2    0    0 -0.23025515579E-01 -0.67003771254E-02  0.10555344428E-01  0.10177291466E+01  0.10173918278E+01 0.  0.
     999903    2    3    3    0    0 -0.34653584790E-01 -0.71858327213E-01  0.10129899028E+00  0.13059038651E+00  0.20685103011E-01 0.  0.
         14    1    1    2    0    0  0.23025515579E-01  0.67003771254E-02 -0.10555344428E-01  0.26200853369E-01  0.00000000000E+00 0. -1.
     999901    1    3    3    0    0  0.11628069211E-01  0.65157950087E-01 -0.90743645856E-01  0.88713876013E+00  0.88000000000E+00 0. -1.
        -11    1    4    4    0    0 -0.20672366496E-01 -0.29842389919E-01  0.32254530896E-01  0.48564707936E-01  0.51100000000E-03 0.  1.
         11    1    4    4    0    0 -0.13981218295E-01 -0.42015937294E-01  0.69044459387E-01  0.82025678569E-01  0.51100000000E-03 0. -1.
</event>
<event>
 8    1  0.1128298E+005  0.1043930E+01  0.7957747E-01            NaN
         13   -1    0    0    0    0  0.00000000000E+00  0.00000000000E+00  0.74505805969E-08  0.10566000000E+00  0.10566000000E+00 0.  1.
     999900   -1    0    0    0    0 -0.00000000000E+00 -0.00000000000E+00 -0.74505805969E-08  0.93827000000E+00  0.93827000000E+00 0.  1.
     999902    2    1    2    0    0 -0.10973780882E-01 -0.38532398790E-02 -0.20962697683E-01  0.10199569731E+01  0.10196752037E+01 0.  0.
     999903    2    3    3    0    0  0.10335305260E+00  0.68903886368E-01  0.24364657158E-01  0.12843086952E+00  0.21708355307E-01 0.  0.
         14    1    1    2    0    0  0.10973780882E-01  0.38532398790E-02  0.20962697683E-01  0.23973026896E-01  0.00000000000E+00 0.  1.
     999901    1    3    3    0    0 -0.11432683348E+00 -0.72757126247E-01 -0.45327354841E-01  0.89152610358E+00  0.88000000000E+00 0.  1.
        -11    1    4    4    0    0  0.55830612472E-01  0.49873455207E-01  0.16065133615E-01  0.76568717256E-01  0.51100000000E-03 0. -1.
         11    1    4    4    0    0  0.47522440124E-01  0.19030431161E-01  0.82995235430E-02  0.51862152265E-01  0.51100000000E-03 0.  1.
</event>
<event>
 8    1  0.1128298E+005  0.1043930E+01  0.7957747E-01            NaN
         13   -1    0    0    0    0  0.00000000000E+00  0.00000000000E+00  0.74505805969E-08  0.10566000000E+00  0.10566000000E+00 0. -1.
     999900   -1    0    0    0    0 -0.00000000000E+00 -0.00000000000E+00 -0.74505805969E-08  0.93827000000E+00  0.93827000000E+00 0.  1.
     999902    2    1    2    0    0  0.67764334073E-02 -0.15233862118E-01 -0.18597813420E-01  0.10189526249E+01  0.10186464462E+01 0.  0.
     999903    2    3    3    0    0 -0.31576758268E-01 -0.59707531136E-01  0.10687263659E+00  0.12811498063E+00  0.20726960090E-01 0.  0.
         14    1    1    2    0    0 -0.67764334073E-02  0.15233862118E-01  0.18597813420E-01  0.24977375138E-01  0.00000000000E+00 0.  1.
     999901    1    3    3    0    0  0.38353191675E-01  0.44473669018E-01 -0.12547045001E+00  0.89083764423E+00  0.88000000000E+00 0.  1.
        -11    1    4    4    0    0 -0.10911677585E-01 -0.47123654662E-02  0.17533897550E-01  0.21188907011E-01  0.51100000000E-03 0.  1.
         11    1    4    4    0    0 -0.20665080683E-01 -0.54995165670E-01  0.89338739038E-01  0.10692607362E+00  0.51100000000E-03 0. -1.
</event>
<event>
 8    1  0.1128298E+005  0.1043930E+01  0.7957747E-01            NaN
         13   -1    0    0    0    0  0.00000000000E+00  0.00000000000E+00  0.74505805969E-08  0.10566000000E+00  0.10566000000E+00 0.  1.
     999900   -1    0    0    0    0 -0.00000000000E+00 -0.00000000000E+00 -0.74505805969E-08  0.93827000000E+00  0.93827000000E+00 0.  1.
     999902    2    1    2    0    0 -0.12871957876E-01 -0.21757648788E-01  0.74210789651E-03  0.10186390272E+01  0.10183250142E+01 0.  0.
     999903    2    3    3    0    0  0.88985245145E-01  0.49810825469E-01  0.72900008138E-01  0.12695315266E+00  0.20079830575E-01 0.  0.
         14    1    1    2    0    0  0.12871957876E-01  0.21757648788E-01 -0.74210789651E-03  0.25290972786E-01  0.00000000000E+00 0.  1.
     999901    1    3    3    0    0 -0.10185720302E+00 -0.71568474257E-01 -0.72157900242E-01  0.89168587456E+00  0.88000000000E+00 0.  1.
        -11    1    4    4    0    0  0.31191199365E-01  0.21427521875E-01  0.38350390509E-01  0.53879895924E-01  0.51100000000E-03 0. -1.
         11    1    4    4    0    0  0.57794045780E-01  0.28383303593E-01  0.34549617629E-01  0.73073256734E-01  0.51100000000E-03 0.  1.
</event>
<event>
 8    1  0.1128298E+005  0.1043930E+01  0.7957747E-01            NaN
         13   -1    0    0    0    0  0.00000000000E+00  0.00000000000E+00  0.74505805969E-08  0.10566000000E+00  0.10566000000E+00 0. -1.
     999900   -1    0    0    0    0 -0.00000000000E+00 -0.00000000000E+00 -0.74505805969E-08  0.93827000000E+00  0.93827000000E+00 0.  1.
     999902    2    1    2    0    0 -0.93482130895E-02  0.59608710063E-02  0.20262282241E-01  0.10208327891E+01  0.10205714586E+01 0.  0.
     999903    2    3    3    0    0  0.54214546314E-01  0.16863303275E-01 -0.11340482577E+00  0.12840577067E+00  0.20094760618E-01 0.  0.
         14    1    1    2    0    0  0.93482130895E-02 -0.59608710063E-02 -0.20262282241E-01  0.23097210930E-01  0.00000000000E+00 0.  1.
     999901    1    3    3    0    0 -0.63562759403E-01 -0.10902432269E-01  0.13366710801E+00  0.89242701840E+00  0.88000000000E+00 0. -1.
        -11    1    4    4    0    0  0.91728764866E-02  0.90314702849E-02 -0.14205081848E-01  0.19176928582E-01  0.51100000000E-03 0. -1.
         11    1    4    4    0    0  0.45041669827E-01  0.78318329900E-02 -0.99199743918E-01  0.10922884208E+00  0.51100000000E-03 0.  1.
</event>
<event>
 8    1  0.1128298E+005  0.1043930E+01  0.7957747E-01            NaN
         13   -1    0    0    0    0  0.00000000000E+00  0.00000000000E+00  0.74505805969E-08  0.10566000000E+00  0.10566000000E+00 0.  1.
     999900   -1    0    0    0    0 -0.00000000000E+00 -0.00000000000E+00 -0.74505805969E-08  0.93827000000E+00  0.93827000000E+00 0. -1.
     999902    2    1    2    0    0  0.90103332324E-02  0.12256426972E-01 -0.17897035171E-01  0.10204414927E+01  0.10201711278E+01 0.  0.
     999903    2    3    3    0    0  0.92124657634E-01 -0.50861125033E-01  0.72783917373E-01  0.12964698697E+00  0.20905406442E-01 0.  0.
         14    1    1    2    0    0 -0.90103332324E-02 -0.12256426972E-01  0.17897035171E-01  0.23488507296E-01  0.00000000000E+00 0.  1.
     999901    1    3    3    0    0 -0.83114324401E-01  0.63117552004E-01 -0.90680952544E-01  0.89079450573E+00  0.88000000000E+00 0. -1.
        -11    1    4    4    0    0  0.29954476504E-01 -0.28046656323E-01  0.26512933430E-01  0.48857776798E-01  0.51100000000E-03 0. -1.
         11    1    4    4    0    0  0.62170181130E-01 -0.22814468709E-01  0.46270983943E-01  0.80789210172E-01  0.51100000000E-03 0.  1.
</event>
<event>
 8    1  0.1128298E+005  0.1043930E+01  0.7957747E-01            NaN
         13   -1    0    0    0    0  0.00000000000E+00  0.00000000000E+00  0.74505805969E-08  0.10566000000E+00  0.10566000000E+00 0. -1.
     999900   -1    0    0    0    0 -0.00000000000E+00 -0.00000000000E+00 -0.74505805969E-08  0.93827000000E+00  0.93827000000E+00 0.  1.
     999902    2    1    2    0    0 -0.12437484556E-01 -0.12296530078E-01  0.16548252786E-01  0.10198522023E+01  0.10195679350E+01 0.  0.
     999903    2    3    3    0    0 -0.16769710653E-01 -0.10784057864E+00  0.73185062818E-01  0.13286000294E+00  0.19619209070E-01 0.  0.
         14    1    1    2    0    0  0.12437484556E-01  0.12296530078E-01 -0.16548252786E-01  0.24077797746E-01  0.00000000000E+00 0.  1.
     999901    1    3    3    0    0  0.43322260975E-02  0.95544048560E-01 -0.56636810032E-01  0.88699219932E+00  0.88000000000E+00 0.  1.
        -11    1    4    4    0    0  0.44088440561E-02 -0.23842866219E-01  0.16564689987E-01  0.29369546316E-01  0.51100000000E-03 0. -1.
         11    1    4    4    0    0 -0.21178554709E-01 -0.83997712419E-01  0.56620372831E-01  0.10349045662E+00  0.51100000000E-03 0.  1.
</event>
<event>
 8    1  0.1128298E+005  0.1043930E+01  0.7957747E-01            NaN
         13   -1    0    0    0    0  0.00000000000E+00  0.00000000000E+00  0.74505805969E-08  0.10566000000E+00  0.10566000000E+00 0. -1.
     999900   -1    0    0    0    0 -0.00000000000E+00 -0.00000000000E+00 -0.74505805969E-08  0.93827000000E+00  0.93827000000E+00 0. -1.
     999902    2    1    2    0    0 -0.22951403623E-02 -0.15605209155E-01 -0.17684779909E-01  0.10202331297E+01  0.10199578899E+01 0.  0.
     999903    2    3    3    0    0 -0.90811167469E-01  0.49452011793E-01  0.73704296114E-01  0.12870663414E+00  0.20997733172E-01 0.  0.
         14    1    1    2    0    0  0.22951403623E-02  0.15605209155E-01  0.17684779909E-01  0.23696870310E-01  0.00000000000E+00 0. -1.
     999901    1    3    3    0    0  0.88516027106E-01 -0.65057220949E-01 -0.91389076023E-01  0.89152649555E+00  0.88000000000E+00 0. -1.
        -11    1    4    4    0    0 -0.56134877700E-01  0.25857983153E-01  0.55175524969E-01  0.82851430064E-01  0.51100000000E-03 0.  1.
         11    1    4    4    0    0 -0.34676289769E-01  0.23594028640E-01  0.18528771146E-01  0.45855204075E-01  0.51100000000E-03 0. -1.
</event>
<event>
 8    1  0.1128298E+005  0.1043930E+01  0.7957747E-01            NaN
         13   -1    0    0    0    0  0.00000000000E+00  0.00000000000E+00  0.74505805969E-08  0.10566000000E+00  0.10566000000E+00 0. -1.
     999900   -1    0    0    0    0 -0.00000000000E+00 -0.00000000000E+00 -0.74505805969E-08  0.93827000000E+00  0.93827000000E+00 0. -1.
     999902    2    1    2    0    0 -0.66986323645E-02 -0.10532399550E-01 -0.11484533768E-01  0.10269683482E+01  0.10268282673E+01 0.  0.
     999903    2    3    3    0    0  0.32087554415E-02  0.93071053990E-01 -0.98218020372E-01  0.13660071087E+00  0.18451489934E-01 0.  0.
         14    1    1    2    0    0  0.66986323645E-02  0.10532399550E-01  0.11484533768E-01  0.16961651798E-01  0.00000000000E+00 0.  1.
     999901    1    3    3    0    0 -0.99073878060E-02 -0.10360345354E+00  0.86733486604E-01  0.89036763734E+00  0.88000000000E+00 0.  1.
        -11    1    4    4    0    0  0.76053398202E-02  0.58859893962E-01 -0.71774146335E-01  0.93134942498E-01  0.51100000000E-03 0.  1.
         11    1    4    4    0    0 -0.43965843787E-02  0.34211160028E-01 -0.26443874037E-01  0.43465768367E-01  0.51100000000E-03 0. -1.
</event>
<event>
 8    1  0.1128298E+005  0.1043930E+01  0.7957747E-01            NaN
         13   -1    0    0    0    0  0.00000000000E+00  0.00000000000E+00  0.74505805969E-08  0.10566000000E+00  0.10566000000E+00 0.  1.
     999900   -1    0    0    0    0 -0.00000000000E+00 -0.00000000000E+00 -0.74505805969E-08  0.93827000000E+00  0.93827000000E+00 0.  1.
     999902    2    1    2    0    0  0.12210016734E-01  0.12610734422E-01  0.15544203570E-01  0.10204835206E+01  0.10202141336E+01 0.  0.
     999903    2    3    3    0    0 -0.10629677161E+00 -0.23715742247E-01 -0.65881321148E-01  0.12807465251E+00  0.14189011705E-01 0.  0.
         14    1    1    2    0    0 -0.12210016734E-01 -0.12610734422E-01 -0.15544203570E-01  0.23446479393E-01  0.00000000000E+00 0.  1.
     999901    1    3    3    0    0  0.11850678834E+00  0.36326476669E-01  0.81425524718E-01  0.89240886810E+00  0.88000000000E+00 0. -1.
        -11    1    4    4    0    0 -0.52209430670E-02 -0.20523639962E-02 -0.74200537681E-02  0.93160487012E-02  0.51100000000E-03 0.  1.
         11    1    4    4    0    0 -0.10107582854E+00 -0.21663378251E-01 -0.58461267380E-01  0.11875860380E+00  0.51100000000E-03 0. -1.
</event>
<event>
 8    1  0.1128298E+005  0.1043930E+01  0.7957747E-01            NaN
         13   -1    0    0    0    0  0.00000000000E+00  0.00000000000E+00  0.74505805969E-08  0.10566000000E+00  0.10566000000E+00 0. -1.
     999900   -1    0    0    0    0 -0.00000000000E+00 -0.00000000000E+00 -0.74505805969E-08  0.93827000000E+00  0.93827000000E+00 0.  1.
     999902    2    1    2    0    0  0.31026777509E-02 -0.20357741739E-01 -0.93250402478E-02  0.10213242345E+01  0.10210740283E+01 0.  0.
     999903    2    3    3    0    0 -0.28534990775E-02 -0.97105703942E-01 -0.90393164509E-01  0.13425165207E+00  0.20369626837E-01 0.  0.
         14    1    1    2    0    0 -0.31026777509E-02  0.20357741739E-01  0.93250402478E-02  0.22605765494E-01  0.00000000000E+00 0. -1.
     999901    1    3    3    0    0  0.59561768284E-02  0.76747962203E-01  0.81068124262E-01  0.88707258244E+00  0.88000000000E+00 0.  1.
        -11    1    4    4    0    0 -0.10662602313E-01 -0.33182667190E-01 -0.32193624118E-01  0.47449668542E-01  0.51100000000E-03 0. -1.
         11    1    4    4    0    0  0.78091032355E-02 -0.63923036752E-01 -0.58199540392E-01  0.86801983524E-01  0.51100000000E-03 0.  1.
</event>
<event>
 8    1  0.1128298E+005  0.1043930E+01  0.7957747E-01            NaN
         13   -1    0    0    0    0  0.00000000000E+00  0.00000000000E+00  0.74505805969E-08  0.10566000000E+00  0.10566000000E+00 0.  1.
     999900   -1    0    0    0    0 -0.00000000000E+00 -0.00000000000E+00 -0.74505805969E-08  0.93827000000E+00  0.93827000000E+00 0. -1.
     999902    2    1    2    0    0  0.12996734699E-01 -0.32404696878E-02 -0.18533648593E-01  0.10210627333E+01  0.10208066386E+01 0.  0.
     999903    2    3    3    0    0 -0.11533795962E-01  0.83248648403E-01  0.94875440931E-01  0.12924227150E+00  0.25275473092E-01 0.  0.
         14    1    1    2    0    0 -0.12996734699E-01  0.32404696878E-02  0.18533648593E-01  0.22867266710E-01  0.00000000000E+00 0.  1.
     999901    1    3    3    0    0  0.24530530661E-01 -0.86489118091E-01 -0.11340908952E+00  0.89182046179E+00  0.88000000000E+00 0. -1.
        -11    1    4    4    0    0 -0.12297626027E-01  0.16028778161E-01  0.26823413427E-01  0.33584370831E-01  0.51100000000E-03 0. -1.
         11    1    4    4    0    0  0.76383006521E-03  0.67219870242E-01  0.68052027504E-01  0.95657900668E-01  0.51100000000E-03 0.  1.
</event>
<event>
 8    1  0.1128298E+005  0.1043930E+01  0.7957747E-01            NaN
         13   -1    0    0    0    0  0.00000000000E+00  0.00000000000E+00  0.74505805969E-08  0.10566000000E+00  0.10566000000E+00 0. -1.
     999900   -1    0    0    0    0 -0.00000000000E+00 -0.00000000000E+00 -0.74505805969E-08  0.93827000000E+00  0.93827000000E+00 0.  1.
     999902    2    1    2    0    0 -0.85978761087E-02  0.13911629801E-01  0.17246029978E-01  0.10201627438E+01  0.10198858472E+01 0.  0.
     999903    2    3    3    0    0  0.66421698171E-01  0.24609572559E-01 -0.10533754913E+00  0.12844018808E+00  0.19580848013E-01 0.  0.
         14    1    1    2    0    0  0.85978761087E-02 -0.13911629801E-01 -0.17246029978E-01  0.23767256200E-01  0.00000000000E+00 0.  1.
     999901    1    3    3    0    0 -0.75019574280E-01 -0.10697942757E-01  0.12258357911E+00  0.89172255572E+00  0.88000000000E+00 0. -1.
        -11    1    4    4    0    0  0.12483243537E-01  0.10665449899E-01 -0.35383677235E-01  0.39010882153E-01  0.51100000000E-03 0.  1.
         11    1    4    4    0    0  0.53938454635E-01  0.13944122660E-01 -0.69953871895E-01  0.89429305931E-01  0.51100000000E-03 0. -1.
</event>
<event>
 8    1  0.1128298E+005  0.1043930E+01  0.7957747E-01            NaN
         13   -1    0    0    0    0  0.00000000000E+00  0.00000000000E+00  0.74505805969E-08  0.10566000000E+00  0.10566000000E+00 0.  1.
     999900   -1    0    0    0    0 -0.00000000000E+00 -0.00000000000E+00 -0.74505805969E-08  0.93827000000E+00  0.93827000000E+00 0. -1.
     999902    2    1    2    0    0  0.47515255357E-02  0.19576137388E-01  0.15424573691E-01  0.10185583697E+01  0.10182423252E+01 0.  0.
     999903    2    3    3    0    0  0.43630038565E-01 -0.11425465718E+00 -0.25226302721E-01  0.12666447798E+00  0.21208882104E-01 0.  0.
         14    1    1    2    0    0 -0.47515255357E-02 -0.19576137388E-01 -0.15424573691E-01  0.25371630288E-01  0.00000000000E+00 0.  1.
     999901    1    3    3    0    0 -0.38878513029E-01  0.13383079457E+00  0.40650876412E-01  0.89189389173E+00  0.88000000000E+00 0.  1.
        -11    1    4    4    0    0  0.27088474680E-01 -0.52748510777E-01 -0.20705239066E-01  0.62810499883E-01  0.51100000000E-03 0.  1.
         11    1    4    4    0    0  0.16541563885E-01 -0.61506146407E-01 -0.45210636549E-02  0.63853978100E-01  0.51100000000E-03 0. -1.
</event>
<event>
 8    1  0.1128298E+005  0.1043930E+01  0.7957747E-01            NaN
         13   -1    0    0    0    0  0.00000000000E+00  0.00000000000E+00  0.74505805969E-08  0.10566000000E+00  0.10566000000E+00 0. -1.
     999900   -1    0    0    0    0 -0.00000000000E+00 -0.00000000000E+00 -0.74505805969E-08  0.93827000000E+00  0.93827000000E+00 0. -1.
     999902    2    1    2    0    0  0.18736615758E-01  0.63372724917E-02  0.11183800135E-01  0.10212077823E+01  0.10209549625E+01 0.  0.
     999903    2    3    3    0    0 -0.22798558329E-01  0.49028187045E-01 -0.11654647290E+00  0.12999360627E+00  0.19791916017E-01 0.  0.
         14    1    1    2    0    0 -0.18736615758E-01 -0.63372724917E-02 -0.11183800135E-01  0.22722217721E-01  0.00000000000E+00 0.  1.
     999901    1    3    3    0    0  0.41535174086E-01 -0.42690914554E-01  0.12773027303E+00  0.89121417601E+00  0.88000000000E+00 0.  1.
        -11    1    4    4    0    0 -0.18053140238E-01  0.22976696543E-01 -0.44552962163E-01  0.53282943002E-01  0.51100000000E-03 0.  1.
         11    1    4    4    0    0 -0.47454180911E-02  0.26051490503E-01 -0.71993510733E-01  0.76710663268E-01  0.51100000000E-03 0. -1.
</event>
<event>
 8    1  0.1128298E+005  0.1043930E+01  0.7957747E-01            NaN
         13   -1    0    0    0    0  0.00000000000E+00  0.00000000000E+00  0.74505805969E-08  0.10566000000E+00  0.10566000000E+00 0. -1.
     999900   -1    0    0    0    0 -0.00000000000E+00 -0.00000000000E+00 -0.74505805969E-08  0.93827000000E+00  0.93827000000E+00 0. -1.
     999902    2    1    2    0    0  0.18268568743E-01  0.12786892821E-01 -0.12935314010E-01  0.10181507917E+01  0.10178243793E+01 0.  0.
     999903    2    3    3    0    0  0.68720483964E-01 -0.10288215193E+00 -0.30730368148E-01  0.12897061445E+00  0.19540260042E-01 0.  0.
         14    1    1    2    0    0 -0.18268568743E-01 -0.12786892821E-01  0.12935314010E-01  0.25779208298E-01  0.00000000000E+00 0.  1.
     999901    1    3    3    0    0 -0.50451915221E-01  0.11566904475E+00  0.17795054138E-01  0.88918017725E+00  0.88000000000E+00 0.  1.
        -11    1    4    4    0    0  0.21190569474E-01 -0.43483334469E-01 -0.19108630093E-01  0.52011935902E-01  0.51100000000E-03 0. -1.
         11    1    4    4    0    0  0.47529914490E-01 -0.59398817465E-01 -0.11621738055E-01  0.76958678549E-01  0.51100000000E-03 0.  1.
</event>
<event>
 8    1  0.1128298E+005  0.1043930E+01  0.7957747E-01            NaN
         13   -1    0    0    0    0  0.00000000000E+00  0.00000000000E+00  0.74505805969E-08  0.10566000000E+00  0.10566000000E+00 0. -1.
     999900   -1    0    0    0    0 -0.00000000000E+00 -0.00000000000E+00 -0.74505805969E-08  0.93827000000E+00  0.93827000000E+00 0. -1.
     999902    2    1    2    0    0 -0.16337586538E-02 -0.20625476527E-01  0.10328837313E-01  0.10208050280E+01  0.10205430617E+01 0.  0.
     999903    2    3    3    0    0 -0.97784633479E-01  0.16135260148E-02 -0.83772377847E-01  0.13030258407E+00  0.19912662178E-01 0.  0.
         14    1    1    2    0    0  0.16337586538E-02  0.20625476527E-01 -0.10328837313E-01  0.23124971990E-01  0.00000000000E+00 0.  1.
     999901    1    3    3    0    0  0.96150874825E-01 -0.22239002542E-01  0.94101215160E-01  0.89050244394E+00  0.88000000000E+00 0.  1.
        -11    1    4    4    0    0 -0.48608591420E-01 -0.34744414911E-02 -0.29875163098E-01  0.57163392085E-01  0.51100000000E-03 0.  1.
         11    1    4    4    0    0 -0.49176042059E-01  0.50879675059E-02 -0.53897214749E-01  0.73139191988E-01  0.51100000000E-03 0. -1.
</event>
<event>
 8    1  0.1128298E+005  0.1043930E+01  0.7957747E-01            NaN
         13   -1    0    0    0    0  0.00000000000E+00  0.00000000000E+00  0.74505805969E-08  0.10566000000E+00  0.10566000000E+00 0.  1.
     999900   -1    0    0    0    0 -0.00000000000E+00 -0.00000000000E+00 -0.74505805969E-08  0.93827000000E+00  0.93827000000E+00 0.  1.
     999902    2    1    2    0    0 -0.22007361421E-01  0.63544212659E-02 -0.92495978598E-02  0.10192266058E+01  0.10189271889E+01 0.  0.
     999903    2    3    3    0    0 -0.95923739808E-01  0.67071423573E-01  0.56479482819E-01  0.13160591120E+00  0.20742327856E-01 0.  0.
         14    1    1    2    0    0  0.22007361421E-01 -0.63544212659E-02  0.92495978598E-02  0.24703394239E-01  0.00000000000E+00 0.  1.
     999901    1    3    3    0    0  0.73916378387E-01 -0.60717002307E-01 -0.65729080679E-01  0.88762069456E+00  0.88000000000E+00 0.  1.
        -11    1    4    4    0    0 -0.73011727707E-01  0.55800631210E-01  0.52274625352E-01  0.10572284712E+00  0.51100000000E-03 0.  1.
         11    1    4    4    0    0 -0.22912012102E-01  0.11270792363E-01  0.42048574672E-02  0.25883064084E-01  0.51100000000E-03 0. -1.
</event>
<event>
 8    1  0.1128298E+005  0.1043930E+01  0.7957747E-01            NaN
         13   -1    0    0    0    0  0.00000000000E+00  0.00000000000E+00  0.74505805969E-08  0.10566000000E+00  0.10566000000E+00 0. -1.
     999900   -1    0    0    0    0 -0.00000000000E+00 -0.00000000000E+00 -0.74505805969E-08  0.93827000000E+00  0.93827000000E+00 0. -1.
     999902    2    1    2    0    0 -0.30159813900E-02 -0.21794044606E-01 -0.75405344327E-02  0.10206719652E+01  0.10204069406E+01 0.  0.
     999903    2    3    3    0    0  0.11042896830E+00  0.59580861440E-01 -0.21441198382E-01  0.12955757275E+00  0.24104015839E-01 0.  0.
         14    1    1    2    0    0  0.30159813900E-02  0.21794044606E-01  0.75405344327E-02  0.23258034817E-01  0.00000000000E+00 0.  1.
     999901    1    3    3    0    0 -0.11344494969E+00 -0.81374906046E-01  0.13900663950E-01  0.89111439243E+00  0.88000000000E+00 0.  1.
        -11    1    4    4    0    0  0.72330847060E-01  0.31558964934E-01 -0.35729095059E-02  0.78998395600E-01  0.51100000000E-03 0. -1.
         11    1    4    4    0    0  0.38098121237E-01  0.28021896506E-01 -0.17868288877E-01  0.50559177149E-01  0.51100000000E-03 0.  1.
</event>
<event>
 8    1  0.1128298E+005  0.1043930E+01  0.7957747E-01            NaN
         13   -1    0    0    0    0  0.00000000000E+00  0.00000000000E+00  0.74505805969E-08  0.10566000000E+00  0.10566000000E+00 0.  1.
     999900   -1    0    0    0    0 -0.00000000000E+00 -0.00000000000E+00 -0.74505805969E-08  0.93827000000E+00  0.93827000000E+00 0.  1.
     999902    2    1    2    0    0 -0.10434631457E-01 -0.48508888055E-04 -0.21137982577E-01  0.10203567483E+01  0.10200844062E+01 0.  0.
     999903    2    3    3    0    0 -0.10741367711E+00 -0.41225492248E-01  0.58059906805E-01  0.13054059601E+00  0.20800365034E-01 0.  0.
         14    1    1    2    0    0  0.10434631457E-01  0.48508888055E-04  0.21137982577E-01  0.23573251668E-01  0.00000000000E+00 0.  1.
     999901    1    3    3    0    0  0.96979045656E-01  0.41176983360E-01 -0.79197889383E-01  0.88981615232E+00  0.88000000000E+00 0.  1.
        -11    1    4    4    0    0 -0.35796563566E-01 -0.78921544710E-02  0.97151191039E-02  0.37925251819E-01  0.51100000000E-03 0. -1.
         11    1    4    4    0    0 -0.71617113548E-01 -0.33333337777E-01  0.48344787701E-01  0.92615344189E-01  0.51100000000E-03 0.  1.
</event>
<event>
 8    1  0.1128298E+005  0.1043930E+01  0.7957747E-01            NaN
         13   -1    0    0    0    0  0.00000000000E+00  0.00000000000E+00  0.74505805969E-08  0.10566000000E+00  0.10566000000E+00 0.  1.
     999900   -1    0    0    0    0 -0.00000000000E+00 -0.00000000000E+00 -0.74505805969E-08  0.93827000000E+00  0.93827000000E+00 0. -1.
     999902    2    1    2    0    0  0.16371322955E-01  0.83591219215E-02 -0.13918496784E-01  0.10208731206E+01  0.10206127124E+01 0.  0.
     999903    2    3    3    0    0 -0.10725174741E+00 -0.30003523998E-01 -0.63978687730E-01  0.12999693457E+00  0.20069422998E-01 0.  0.
         14    1    1    2    0    0 -0.16371322955E-01 -0.83591219215E-02  0.13918496784E-01  0.23056879392E-01  0.00000000000E+00 0. -1.
     999901    1    3    3    0    0  0.12362307036E+00  0.38362645919E-01  0.50060190946E-01  0.89087618604E+00  0.88000000000E+00 0.  1.
        -11    1    4    4    0    0 -0.87303685605E-01 -0.32119287308E-01 -0.50843621939E-01  0.10601375925E+00  0.51100000000E-03 0.  1.
         11    1    4    4    0    0 -0.19948061805E-01  0.21157633105E-02 -0.13135065791E-01  0.23983175321E-01  0.51100000000E-03 0. -1.
</event>
<event>
 8    1  0.1128298E+005  0.1043930E+01  0.7957747E-01            NaN
         13   -1    0    0    0    0  0.00000000000E+00  0.00000000000E+00  0.74505805969E-08  0.10566000000E+00  0.10566000000E+00 0.  1.
     999900   -1    0    0    0    0 -0.00000000000E+00 -0.00000000000E+00 -0.74505805969E-08  0.93827000000E+00  0.93827000000E+00 0.  1.
     999902    2    1    2    0    0  0.85756760758E-02  0.20695919692E-01 -0.46447939245E-02  0.10210512452E+01  0.10207948902E+01 0.  0.
     999903    2    3    3    0    0 -0.11766148078E+00 -0.52831632635E-02  0.49753341031E-01  0.13000136463E+00  0.23512209370E-01 0.  0.
         14    1    1    2    0    0 -0.85756760758E-02 -0.20695919692E-01  0.46447939245E-02  0.22878754832E-01  0.00000000000E+00 0.  1.
     999901    1    3    3    0    0  0.12623715685E+00  0.25979082956E-01 -0.54398134956E-01  0.89104988054E+00  0.88000000000E+00 0.  1.
        -11    1    4    4    0    0 -0.66753866956E-01  0.86005381851E-02  0.26518125411E-01  0.72343072280E-01  0.51100000000E-03 0.  1.
         11    1    4    4    0    0 -0.50907613819E-01 -0.13883701449E-01  0.23235215621E-01  0.57658292349E-01  0.51100000000E-03 0. -1.
</event>
<event>
 8    1  0.1128298E+005  0.1043930E+01  0.7957747E-01            NaN
         13   -1    0    0    0    0  0.00000000000E+00  0.00000000000E+00  0.74505805969E-08  0.10566000000E+00  0.10566000000E+00 0.  1.
     999900   -1    0    0    0    0 -0.00000000000E+00 -0.00000000000E+00 -0.74505805969E-08  0.93827000000E+00  0.93827000000E+00 0.  1.
     999902    2    1    2    0    0 -0.23241134371E-01  0.58936862556E-03  0.68782418269E-02  0.10196852502E+01  0.10193969794E+01 0.  0.
     999903    2    3    3    0    0  0.10510964267E-01 -0.90563052500E-01 -0.89214126043E-01  0.12913389783E+00  0.20106129311E-01 0.  0.
         14    1    1    2    0    0  0.23241134371E-01 -0.58936862556E-03 -0.68782418269E-02  0.24244749800E-01  0.00000000000E+00 0. -1.
     999901    1    3    3    0    0 -0.33752098638E-01  0.91152421126E-01  0.96092367870E-01  0.89055135237E+00  0.88000000000E+00 0. -1.
        -11    1    4    4    0    0  0.23778620174E-02 -0.23062216057E-01 -0.35873331716E-01  0.42716239145E-01  0.51100000000E-03 0.  1.
         11    1    4    4    0    0  0.81331022494E-02 -0.67500836443E-01 -0.53340794327E-01  0.86417658688E-01  0.51100000000E-03 0. -1.
</event>
<event>
 8    1  0.1128298E+005  0.1043930E+01  0.7957747E-01            NaN
         13   -1    0    0    0    0  0.00000000000E+00  0.00000000000E+00  0.74505805969E-08  0.10566000000E+00  0.10566000000E+00 0.  1.
     999900   -1    0    0    0    0 -0.00000000000E+00 -0.00000000000E+00 -0.74505805969E-08  0.93827000000E+00  0.93827000000E+00 0.  1.
     999902    2    1    2    0    0  0.33104125010E-01 -0.64352770742E-02 -0.13124996915E-01  0.10077421370E+01  0.10070921772E+01 0.  0.
     999903    2    3    3    0    0  0.25491402133E-01 -0.48605810270E-01 -0.10674846874E+00  0.12173894182E+00  0.20317430972E-01 0.  0.
         14    1    1    2    0    0 -0.33104125010E-01  0.64352770742E-02  0.13124996915E-01  0.36187862989E-01  0.00000000000E+00 0.  1.
     999901    1    3    3    0    0  0.76127228769E-02  0.42170533195E-01  0.93623471826E-01  0.88600319520E+00  0.88000000000E+00 0. -1.
        -11    1    4    4    0    0  0.19624869606E-01 -0.48222007578E-01 -0.10022991383E+00  0.11294597943E+00  0.51100000000E-03 0. -1.
         11    1    4    4    0    0  0.58665325268E-02 -0.38380269119E-03 -0.65185549071E-02  0.87929623831E-02  0.51100000000E-03 0.  1.
</event>
<event>
 8    1  0.1128298E+005  0.1043930E+01  0.7957747E-01            NaN
         13   -1    0    0    0    0  0.00000000000E+00  0.00000000000E+00  0.74505805969E-08  0.10566000000E+00  0.10566000000E+00 0. -1.
     999900   -1    0    0    0    0 -0.00000000000E+00 -0.00000000000E+00 -0.74505805969E-08  0.93827000000E+00  0.93827000000E+00 0.  1.
     999902    2    1    2    0    0  0.84111137270E-02  0.10382523937E-01  0.19988569822E-01  0.10198865693E+01  0.10196031226E+01 0.  0.
     999903    2    3    3    0    0  0.71404234579E-01  0.52385644117E-01 -0.92266884082E-01  0.12953063915E+00  0.20547217699E-01 0.  0.
         14    1    1    2    0    0 -0.84111137270E-02 -0.10382523937E-01 -0.19988569822E-01  0.24043430724E-01  0.00000000000E+00 0. -1.
     999901    1    3    3    0    0 -0.62993120852E-01 -0.42003120179E-01  0.11225545390E+00  0.89035593013E+00  0.88000000000E+00 0. -1.
        -11    1    4    4    0    0  0.62558323951E-02  0.40618581547E-02 -0.11932622285E-02  0.75709395963E-02  0.51100000000E-03 0.  1.
         11    1    4    4    0    0  0.65148402184E-01  0.48323785962E-01 -0.91073621853E-01  0.12195969955E+00  0.51100000000E-03 0. -1.
</event>
<event>
 8    1  0.1128298E+005  0.1043930E+01  0.7957747E-01            NaN
         13   -1    0    0    0    0  0.00000000000E+00  0.00000000000E+00  0.74505805969E-08  0.10566000000E+00  0.10566000000E+00 0. -1.
     999900   -1    0    0    0    0 -0.00000000000E+00 -0.00000000000E+00 -0.74505805969E-08  0.93827000000E+00  0.93827000000E+00 0.  1.
     999902    2    1    2    0    0  0.22575992467E-01  0.78552072743E-02 -0.54524793314E-02  0.10194124706E+01  0.10191175967E+01 0.  0.
     999903    2    3    3    0    0  0.57448261209E-01  0.10585933200E+00 -0.50611678311E-01  0.13213560465E+00  0.19793310664E-01 0.  0.
         14    1    1    2    0    0 -0.22575992467E-01 -0.78552072743E-02  0.54524793314E-02  0.24517529404E-01  0.00000000000E+00 0.  1.
     999901    1    3    3    0    0 -0.34872268741E-01 -0.98004124727E-01  0.45159198980E-01  0.88727686595E+00  0.88000000000E+00 0. -1.
        -11    1    4    4    0    0  0.10031913341E-01  0.37245663062E-01 -0.13835141733E-01  0.40982325093E-01  0.51100000000E-03 0.  1.
         11    1    4    4    0    0  0.47416347867E-01  0.68613668939E-01 -0.36776536578E-01  0.91153279557E-01  0.51100000000E-03 0. -1.
</event>
<event>
 8    1  0.1128298E+005  0.1043930E+01  0.7957747E-01            NaN
         13   -1    0    0    0    0  0.00000000000E+00  0.00000000000E+00  0.74505805969E-08  0.10566000000E+00  0.10566000000E+00 0.  1.
     999900   -1    0    0    0    0 -0.00000000000E+00 -0.00000000000E+00 -0.74505805969E-08  0.93827000000E+00  0.93827000000E+00 0. -1.
     999902    2    1    2    0    0  0.17628801051E-01  0.93234854555E-02 -0.37514908061E-02  0.10236377431E+01  0.10234365898E+01 0.  0.
     999903    2    3    3    0    0  0.53623257818E-02  0.26804567492E-01 -0.12970366345E+00  0.13441335945E+00  0.22286128242E-01 0.  0.
         14    1    1    2    0    0 -0.17628801051E-01 -0.93234854555E-02  0.37514908061E-02  0.20292256918E-01  0.00000000000E+00 0.  1.
     999901    1    3    3    0    0  0.12266475269E-01 -0.17481082037E-01  0.12595217264E+00  0.88922438363E+00  0.88000000000E+00 0.  1.
        -11    1    4    4    0    0 -0.66031495243E-03  0.11420093621E-01 -0.16954323550E-01  0.20458855349E-01  0.51100000000E-03 0.  1.
         11    1    4    4    0    0  0.60226407342E-02  0.15384473871E-01 -0.11274933990E+00  0.11395450411E+00  0.51100000000E-03 0. -1.
</event>
<event>
 7    1  0.1128298E+005  0.1043930E+01  0.7957747E-01            NaN
         13   -1    0    0    0    0  0.00000000000E+00  0.00000000000E+00  0.74505805969E-08  0.10566000000E+00  0.10566000000E+00 0.  1.
     999900   -1    0    0    0    0 -0.00000000000E+00 -0.00000000000E+00 -0.74505805969E-08  0.93827000000E+00  0.93827000000E+00 0.  1.
     999902    2    1    2    0    0  0.59855020847E-02 -0.13202102976E-01  0.18296261068E-01  0.10205874439E+01  0.10203204671E+01 0.  0.
         14    1    1    2    0    0 -0.59855020847E-02  0.13202102976E-01 -0.18296261068E-01  0.23342556142E-01  0.00000000000E+00 0. -1.
     999901    1    3    3    0    0 -0.19527623106E-01  0.96940755570E-01 -0.31707071438E-01  0.88610618807E+00  0.88000000000E+00 0.  1.
        -11    1    3    3    0    0 -0.84363632809E-02 -0.42973403621E-01 -0.57770854595E-03  0.43800462467E-01  0.51100000000E-03 0.  1.
         11    1    3    3    0    0  0.33949488472E-01 -0.67169454925E-01  0.50581041052E-01  0.90680793321E-01  0.51100000000E-03 0. -1.
</event>
<event>
 8    1  0.1128298E+005  0.1043930E+01  0.7957747E-01            NaN
         13   -1    0    0    0    0  0.00000000000E+00  0.00000000000E+00  0.74505805969E-08  0.10566000000E+00  0.10566000000E+00 0.  1.
     999900   -1    0    0    0    0 -0.00000000000E+00 -0.00000000000E+00 -0.74505805969E-08  0.93827000000E+00  0.93827000000E+00 0.  1.
     999902    2    1    2    0    0 -0.16959557000E-01 -0.18321395102E-01  0.47838696562E-02  0.10185098210E+01  0.10181925505E+01 0.  0.
     999903    2    3    3    0    0  0.71267607063E-01  0.60420256560E-01  0.83815866022E-01  0.12708941701E+00  0.19923385721E-01 0.  0.
         14    1    1    2    0    0  0.16959557000E-01  0.18321395102E-01 -0.47838696562E-02  0.25420179013E-01  0.00000000000E+00 0. -1.
     999901    1    3    3    0    0 -0.88227164063E-01 -0.78741651663E-01 -0.79031996366E-01  0.89142040398E+00  0.88000000000E+00 0. -1.
        -11    1    4    4    0    0  0.24288686895E-01  0.30258505894E-01  0.43066226755E-01  0.57969634275E-01  0.51100000000E-03 0.  1.
         11    1    4    4    0    0  0.46978920168E-01  0.30161750666E-01  0.40749639267E-01  0.69119782731E-01  0.51100000000E-03 0. -1.
</event>
<event>
 8    1  0.1128298E+005  0.1043930E+01  0.7957747E-01            NaN
         13   -1    0    0    0    0  0.00000000000E+00  0.00000000000E+00  0.74505805969E-08  0.10566000000E+00  0.10566000000E+00 0. -1.
     999900   -1    0    0    0    0 -0.00000000000E+00 -0.00000000000E+00 -0.74505805969E-08  0.93827000000E+00  0.93827000000E+00 0.  1.
     999902    2    1    2    0    0  0.18982842044E-02  0.43398529653E-02  0.22384578944E-01  0.10210497207E+01  0.10207933312E+01 0.  0.
     999903    2    3    3    0    0 -0.11518433640E+00  0.58842941653E-01  0.13750393089E-01  0.13158163476E+00  0.19867817274E-01 0.  0.
         14    1    1    2    0    0 -0.18982842044E-02 -0.43398529653E-02 -0.22384578944E-01  0.22880279307E-01  0.00000000000E+00 0.  1.
     999901    1    3    3    0    0  0.11708262060E+00 -0.54503088687E-01  0.86341858553E-02  0.88946808593E+00  0.88000000000E+00 0. -1.
        -11    1    4    4    0    0 -0.47431502528E-01  0.34795750996E-01  0.31898140568E-02  0.58914580149E-01  0.51100000000E-03 0.  1.
         11    1    4    4    0    0 -0.67752833869E-01  0.24047190657E-01  0.10560579032E-01  0.72667054613E-01  0.51100000000E-03 0. -1.
</event>
<event>
 8    1  0.1128298E+005  0.1043930E+01  0.7957747E-01            NaN
         13   -1    0    0    0    0  0.00000000000E+00  0.00000000000E+00  0.74505805969E-08  0.10566000000E+00  0.10566000000E+00 0.  1.
     999900   -1    0    0    0    0 -0.00000000000E+00 -0.00000000000E+00 -0.74505805969E-08  0.93827000000E+00  0.93827000000E+00 0.  1.
     999902    2    1    2    0    0  0.60954208988E-02 -0.11909612114E-01  0.18888536701E-01  0.10207832975E+01  0.10205208330E+01 0.  0.
     999903    2    3    3    0    0 -0.23388737335E-01  0.22411485666E-01 -0.12256526536E+00  0.12833922003E+00  0.19985079490E-01 0.  0.
         14    1    1    2    0    0 -0.60954208988E-02  0.11909612114E-01 -0.18888536701E-01  0.23146702472E-01  0.00000000000E+00 0. -1.
     999901    1    3    3    0    0  0.29484158234E-01 -0.34321097780E-01  0.14145380206E+00  0.89244407750E+00  0.88000000000E+00 0. -1.
        -11    1    4    4    0    0 -0.68932942911E-02  0.11058054893E-01 -0.20280105041E-01  0.24111032032E-01  0.51100000000E-03 0. -1.
         11    1    4    4    0    0 -0.16495443044E-01  0.11353430773E-01 -0.10228516032E+00  0.10422818800E+00  0.51100000000E-03 0.  1.
</event>
<event>
 8    1  0.1128298E+005  0.1043930E+01  0.7957747E-01            NaN
         13   -1    0    0    0    0  0.00000000000E+00  0.00000000000E+00  0.74505805969E-08  0.10566000000E+00  0.10566000000E+00 0.  1.
     999900   -1    0    0    0    0 -0.00000000000E+00 -0.00000000000E+00 -0.74505805969E-08  0.93827000000E+00  0.93827000000E+00 0. -1.
     999902    2    1    2    0    0  0.85224007611E-02 -0.23925120881E-01 -0.34547308100E-02  0.10182984201E+01  0.10179757828E+01 0.  0.
     999903    2    3    3    0    0  0.12571224176E+00  0.22329499335E-02  0.23480119155E-01  0.12973599142E+00  0.21715378897E-01 0.  0.
         14    1    1    2    0    0 -0.85224007611E-02  0.23925120881E-01  0.34547308100E-02  0.25631579913E-01  0.00000000000E+00 0. -1.
     999901    1    3    3    0    0 -0.11718984099E+00 -0.26158070814E-01 -0.26934849965E-01  0.88856242867E+00  0.88000000000E+00 0. -1.
        -11    1    4    4    0    0  0.71304073158E-01 -0.69280235268E-02  0.20327089743E-01  0.74469591494E-01  0.51100000000E-03 0. -1.
         11    1    4    4    0    0  0.54408168598E-01  0.91609734603E-02  0.31530294128E-02  0.55266399923E-01  0.51100000000E-03 0.  1.
</event>
<event>
 8    1  0.1128298E+005  0.1043930E+01  0.7957747E-01            NaN
         13   -1    0    0    0    0  0.00000000000E+00  0.00000000000E+00  0.74505805969E-08  0.10566000000E+00  0.10566000000E+00 0. -1.
     999900   -1    0    0    0    0 -0.00000000000E+00 -0.00000000000E+00 -0.74505805969E-08  0.93827000000E+00  0.93827000000E+00 0. -1.
     999902    2    1    2    0    0 -0.15637013317E-01 -0.16114705682E-01  0.92205805617E-02  0.10196561657E+01  0.10193671945E+01 0.  0.
     999903    2    3    3    0    0 -0.61794791618E-01 -0.93287772830E-01  0.68934380596E-01  0.13306045137E+00  0.20782927131E-01 0.  0.
         14    1    1    2    0    0  0.15637013317E-01  0.16114705682E-01 -0.92205805617E-02  0.24273834278E-01  0.00000000000E+00 0.  1.
     999901    1    3    3    0    0  0.46157778301E-01  0.77173067148E-01 -0.59713800034E-01  0.88659571435E+00  0.88000000000E+00 0. -1.
        -11    1    4    4    0    0 -0.81666445147E-02 -0.21176682223E-01  0.64375162712E-02  0.23597641605E-01  0.51100000000E-03 0.  1.
         11    1    4    4    0    0 -0.53628147104E-01 -0.72111090607E-01  0.62496864325E-01  0.10946280977E+00  0.51100000000E-03 0. -1.
</event>
<event>
 8    1  0.1128298E+005  0.1043930E+01  0.7957747E-01            NaN
         13   -1    0    0    0    0  0.00000000000E+00  0.00000000000E+00  0.74505805969E-08  0.10566000000E+00  0.10566000000E+00 0. -1.
     999900   -1    0    0    0    0 -0.00000000000E+00 -0.00000000000E+00 -0.74505805969E-08  0.93827000000E+00  0.93827000000E+00 0.  1.
     999902    2    1    2    0    0 -0.16699341672E-01  0.10563421775E-01  0.13227844214E-01  0.10201512331E+01  0.10198740651E+01 0.  0.
     999903    2    3    3    0    0  0.93044124317E-01 -0.80960908740E-01 -0.26541905207E-01  0.12773767183E+00  0.20014051521E-01 0.  0.
         14    1    1    2    0    0  0.16699341672E-01 -0.10563421775E-01 -0.13227844214E-01  0.23778766882E-01  0.00000000000E+00 0.  1.
     999901    1    3    3    0    0 -0.10974346599E+00  0.91524330515E-01  0.39769749421E-01  0.89241356129E+00  0.88000000000E+00 0.  1.
        -11    1    4    4    0    0  0.76342734389E-01 -0.72918054270E-01 -0.17168634375E-01  0.10695923924E+00  0.51100000000E-03 0.  1.
         11    1    4    4    0    0  0.16701389928E-01 -0.80428544701E-02 -0.93732708324E-02  0.20778432584E-01  0.51100000000E-03 0. -1.
</event>
<event>
 8    1  0.1128298E+005  0.1043930E+01  0.7957747E-01            NaN
         13   -1    0    0    0    0  0.00000000000E+00  0.00000000000E+00  0.74505805969E-08  0.10566000000E+00  0.10566000000E+00 0. -1.
     999900   -1    0    0    0    0 -0.00000000000E+00 -0.00000000000E+00 -0.74505805969E-08  0.93827000000E+00  0.93827000000E+00 0.  1.
     999902    2    1    2    0    0 -0.86516384010E-02 -0.23218289619E-01  0.38121900787E-03  0.10191492585E+01  0.10188479406E+01 0.  0.
     999903    2    3    3    0    0  0.31290840377E-01  0.11738681058E+00 -0.29431036266E-01  0.12659451714E+00  0.20030124431E-01 0.  0.
         14    1    1    2    0    0  0.86516384010E-02  0.23218289619E-01 -0.38121900787E-03  0.24780741469E-01  0.00000000000E+00 0.  1.
     999901    1    3    3    0    0 -0.39942478778E-01 -0.14060510020E+00  0.29812255274E-01  0.89255474139E+00  0.88000000000E+00 0. -1.
        -11    1    4    4    0    0  0.33409248779E-01  0.99049849210E-01 -0.27039648164E-01  0.10797432207E+00  0.51100000000E-03 0.  1.
         11    1    4    4    0    0 -0.21184084013E-02  0.18336961371E-01 -0.23913881017E-02  0.18620195072E-01  0.51100000000E-03 0. -1.
</event>
<event>
 8    1  0.1128298E+005  0.1043930E+01  0.7957747E-01            NaN
         13   -1    0    0    0    0  0.00000000000E+00  0.00000000000E+00  0.74505805969E-08  0.10566000000E+00  0.10566000000E+00 0. -1.
     999900   -1    0    0    0    0 -0.00000000000E+00 -0.00000000000E+00 -0.74505805969E-08  0.93827000000E+00  0.93827000000E+00 0. -1.
     999902    2    1    2    0    0 -0.21337301330E-01 -0.66611590414E-02 -0.77037701633E-02  0.10202868288E+01  0.10200128497E+01 0.  0.
     999903    2    3    3    0    0 -0.12342085940E+00  0.45422121166E-01 -0.42500838908E-02  0.13284914153E+00  0.18301736723E-01 0.  0.
         14    1    1    2    0    0  0.21337301330E-01  0.66611590414E-02  0.77037701633E-02  0.23643171161E-01  0.00000000000E+00 0.  1.
     999901    1    3    3    0    0  0.10208355807E+00 -0.52083280207E-01 -0.34536862725E-02  0.88743768731E+00  0.88000000000E+00 0. -1.
        -11    1    4    4    0    0 -0.77214210417E-01  0.37711135833E-01 -0.27024657709E-02  0.85975162102E-01  0.51100000000E-03 0.  1.
         11    1    4    4    0    0 -0.46206648980E-01  0.77109853328E-02 -0.15476181199E-02  0.46873979430E-01  0.51100000000E-03 0. -1.
</event>
<event>
 8    1  0.1128298E+005  0.1043930E+01  0.7957747E-01            NaN
         13   -1    0    0    0    0  0.00000000000E+00  0.00000000000E+00  0.74505805969E-08  0.10566000000E+00  0.10566000000E+00 0.  1.
     999900   -1    0    0    0    0 -0.00000000000E+00 -0.00000000000E+00 -0.74505805969E-08  0.93827000000E+00  0.93827000000E+00 0.  1.
     999902    2    1    2    0    0  0.18016271408E-01  0.74623372197E-02  0.13181271600E-01  0.10203924038E+01  0.10201208945E+01 0.  0.
     999903    2    3    3    0    0 -0.28964214887E-01 -0.11078424318E+00 -0.55123552302E-01  0.12862171087E+00  0.19820802368E-01 0.  0.
         14    1    1    2    0    0 -0.18016271408E-01 -0.74623372197E-02 -0.13181271600E-01  0.23537596165E-01  0.00000000000E+00 0. -1.
     999901    1    3    3    0    0  0.46980486295E-01  0.11824658040E+00  0.68304823902E-01  0.89177069297E+00  0.88000000000E+00 0. -1.
        -11    1    4    4    0    0  0.18968051029E-02 -0.13379193427E-01 -0.10517841903E-01  0.17131456612E-01  0.51100000000E-03 0.  1.
         11    1    4    4    0    0 -0.30861019990E-01 -0.97405049755E-01 -0.44605710399E-01  0.11149025425E+00  0.51100000000E-03 0. -1.
</event>
<event>
 8    1  0.1128298E+005  0.1043930E+01  0.7957747E-01            NaN
         13   -1    0    0    0    0  0.00000000000E+00  0.00000000000E+00  0.74505805969E-08  0.10566000000E+00  0.10566000000E+00 0. -1.
     999900   -1    0    0    0    0 -0.00000000000E+00 -0.00000000000E+00 -0.74505805969E-08  0.93827000000E+00  0.93827000000E+00 0.  1.
     999902    2    1    2    0    0  0.27338717899E-02 -0.15926553884E-01 -0.18205693259E-01  0.10195871070E+01  0.10192964693E+01 0.  0.
     999903    2    3    3    0    0 -0.11067905877E+00 -0.19841732880E-01 -0.64477215304E-01  0.13109463363E+00  0.19619970905E-01 0.  0.
         14    1    1    2    0    0 -0.27338717899E-02  0.15926553884E-01  0.18205693259E-01  0.24342893021E-01  0.00000000000E+00 0. -1.
     999901    1    3    3    0    0  0.11341293056E+00  0.39151789957E-02  0.46271522045E-01  0.88849247335E+00  0.88000000000E+00 0.  1.
        -11    1    4    4    0    0 -0.36258311083E-01 -0.70072258412E-02 -0.32072518849E-01  0.48914966247E-01  0.51100000000E-03 0. -1.
         11    1    4    4    0    0 -0.74420747691E-01 -0.12834507039E-01 -0.32404696455E-01  0.82179667383E-01  0.51100000000E-03 0.  1.
</event>
<event>
 8    1  0.1128298E+005  0.1043930E+01  0.7957747E-01            NaN
         13   -1    0    0    0    0  0.00000000000E+00  0.00000000000E+00  0.74505805969E-08  0.10566000000E+00  0.10566000000E+00 0. -1.
     999900   -1    0    0    0    0 -0.00000000000E+00 -0.00000000000E+00 -0.74505805969E-08  0.93827000000E+00  0.93827000000E+00 0.  1.
     999902    2    1    2    0    0  0.28768496842E-01  0.14611624409E-02  0.15484174733E-01  0.10112264670E+01  0.10106975049E+01 0.  0.
     999903    2    3    3    0    0  0.79903002868E-01 -0.83838951545E-04  0.95592455152E-01  0.12610813514E+00  0.19515311150E-01 0.  0.
         14    1    1    2    0    0 -0.28768496842E-01 -0.14611624409E-02 -0.15484174733E-01  0.32703533041E-01  0.00000000000E+00 0. -1.
     999901    1    3    3    0    0 -0.51134506027E-01  0.15450013924E-02 -0.80108280419E-01  0.88511833182E+00  0.88000000000E+00 0. -1.
        -11    1    4    4    0    0  0.57880294018E-02  0.38103514932E-02  0.15092652860E-01  0.16615334911E-01  0.51100000000E-03 0. -1.
         11    1    4    4    0    0  0.74114973467E-01 -0.38941904447E-02  0.80499802293E-01  0.10949280023E+00  0.51100000000E-03 0.  1.
</event>
<event>
 8    1  0.1128298E+005  0.1043930E+01  0.7957747E-01            NaN
         13   -1    0    0    0    0  0.00000000000E+00  0.00000000000E+00  0.74505805969E-08  0.10566000000E+00  0.10566000000E+00 0.  1.
     999900   -1    0    0    0    0 -0.00000000000E+00 -0.00000000000E+00 -0.74505805969E-08  0.93827000000E+00  0.93827000000E+00 0. -1.
     999902    2    1    2    0    0 -0.55136097380E-02  0.21045723319E-01  0.86314942963E-02  0.10205243371E+01  0.10202558981E+01 0.  0.
     999903    2    3    3    0    0 -0.20382952556E-01 -0.11924098878E+00  0.39641279260E-01  0.12874910436E+00  0.19261949365E-01 0.  0.
         14    1    1    2    0    0  0.55136097380E-02 -0.21045723319E-01 -0.86314942963E-02  0.23405662907E-01  0.00000000000E+00 0. -1.
     999901    1    3    3    0    0  0.14869342818E-01  0.14028671210E+00 -0.31009784964E-01  0.89177523273E+00  0.88000000000E+00 0.  1.
        -11    1    4    4    0    0 -0.23013683271E-01 -0.98802832336E-01  0.36914926646E-01  0.10795648302E+00  0.51100000000E-03 0. -1.
         11    1    4    4    0    0  0.26307307150E-02 -0.20438156442E-01  0.27263526140E-02  0.20792621345E-01  0.51100000000E-03 0.  1.
</event>
<event>
 8    1  0.1128298E+005  0.1043930E+01  0.7957747E-01            NaN
         13   -1    0    0    0    0  0.00000000000E+00  0.00000000000E+00  0.74505805969E-08  0.10566000000E+00  0.10566000000E+00 0.  1.
     999900   -1    0    0    0    0 -0.00000000000E+00 -0.00000000000E+00 -0.74505805969E-08  0.93827000000E+00  0.93827000000E+00 0.  1.
     999902    2    1    2    0    0 -0.10302886539E-01 -0.18772019454E-01 -0.10398575027E-01  0.10201251991E+01  0.10198474166E+01 0.  0.
     999903    2    3    3    0    0 -0.88023298609E-02 -0.10782597676E+00 -0.75142053921E-01  0.13326299046E+00  0.20218162212E-01 0.  0.
         14    1    1    2    0    0  0.10302886539E-01  0.18772019454E-01  0.10398575027E-01  0.23804800945E-01  0.00000000000E+00 0.  1.
     999901    1    3    3    0    0 -0.15005566786E-02  0.89053957304E-01  0.64743478894E-01  0.88686220860E+00  0.88000000000E+00 0. -1.
        -11    1    4    4    0    0 -0.75958438387E-03 -0.93698526934E-01 -0.65902197663E-01  0.11455719836E+00  0.51100000000E-03 0.  1.
         11    1    4    4    0    0 -0.80427454770E-02 -0.14127449823E-01 -0.92398562586E-02  0.18705792097E-01  0.51100000000E-03 0. -1.
</event>
<event>
 8    1  0.1128298E+005  0.1043930E+01  0.7957747E-01            NaN
         13   -1    0    0    0    0  0.00000000000E+00  0.00000000000E+00  0.74505805969E-08  0.10566000000E+00  0.10566000000E+00 0. -1.
     999900   -1    0    0    0    0 -0.00000000000E+00 -0.00000000000E+00 -0.74505805969E-08  0.93827000000E+00  0.93827000000E+00 0.  1.
     999902    2    1    2    0    0 -0.68178444513E-02 -0.17919832517E-01 -0.12623560664E-01  0.10209744411E+01  0.10207163424E+01 0.  0.
     999903    2    3    3    0    0 -0.12112394625E+00 -0.26343732854E-01  0.40986449692E-01  0.13192389124E+00  0.18947860189E-01 0.  0.
         14    1    1    2    0    0  0.68178444513E-02  0.17919832517E-01  0.12623560664E-01  0.22955558896E-01  0.00000000000E+00 0.  1.
     999901    1    3    3    0    0  0.11430610180E+00  0.84239003371E-02 -0.53610010356E-01  0.88905054986E+00  0.88000000000E+00 0.  1.
        -11    1    4    4    0    0 -0.61433676956E-01 -0.10946783927E-01  0.30253581249E-01  0.69350335558E-01  0.51100000000E-03 0. -1.
         11    1    4    4    0    0 -0.59690269293E-01 -0.15396948927E-01  0.10732868443E-01  0.62573555681E-01  0.51100000000E-03 0.  1.
</event>
<event>
 8    1  0.1128298E+005  0.1043930E+01  0.7957747E-01            NaN
         13   -1    0    0    0    0  0.00000000000E+00  0.00000000000E+00  0.74505805969E-08  0.10566000000E+00  0.10566000000E+00 0. -1.
     999900   -1    0    0    0    0 -0.00000000000E+00 -0.00000000000E+00 -0.74505805969E-08  0.93827000000E+00  0.93827000000E+00 0. -1.
     999902    2    1    2    0    0 -0.78495020614E-02  0.12023193046E-01  0.19364844045E-01  0.10198225522E+01  0.10195375760E+01 0.  0.
     999903    2    3    3    0    0  0.41848396992E-01  0.74344768075E-01  0.99201014051E-01  0.13262039153E+00  0.21653964783E-01 0.  0.
         14    1    1    2    0    0  0.78495020614E-02 -0.12023193046E-01 -0.19364844045E-01  0.24107447781E-01  0.00000000000E+00 0.  1.
     999901    1    3    3    0    0 -0.49697899053E-01 -0.62321575029E-01 -0.79836170006E-01  0.88720216069E+00  0.88000000000E+00 0. -1.
        -11    1    4    4    0    0  0.34925739565E-02  0.11297257271E-01  0.47431981892E-02  0.12750887999E-01  0.51100000000E-03 0.  1.
         11    1    4    4    0    0  0.38355823035E-01  0.63047510803E-01  0.94457815862E-01  0.11986950353E+00  0.51100000000E-03 0. -1.
</event>
<event>
 8    1  0.1128298E+005  0.1043930E+01  0.7957747E-01            NaN
         13   -1    0    0    0    0  0.00000000000E+00  0.00000000000E+00  0.74505805969E-08  0.10566000000E+00  0.10566000000E+00 0. -1.
     999900   -1    0    0    0    0 -0.00000000000E+00 -0.00000000000E+00 -0.74505805969E-08  0.93827000000E+00  0.93827000000E+00 0.  1.
     999902    2    1    2    0    0 -0.31997479904E-01 -0.83676255381E-02  0.41921876603E-02  0.10105918790E+01  0.10100418385E+01 0.  0.
     999903    2    3    3    0    0 -0.10072387152E+00  0.13140783357E-01 -0.69524079967E-01  0.12457832563E+00  0.19188096353E-01 0.  0.
         14    1    1    2    0    0  0.31997479904E-01  0.83676255381E-02 -0.41921876603E-02  0.33338121044E-01  0.00000000000E+00 0.  1.
     999901    1    3    3    0    0  0.68726391615E-01 -0.21508408896E-01  0.73716267627E-01  0.88601355332E+00  0.88000000000E+00 0. -1.
        -11    1    4    4    0    0 -0.27130512625E-01  0.11834842676E-01 -0.23155258475E-01  0.37583977072E-01  0.51100000000E-03 0.  1.
         11    1    4    4    0    0 -0.73593358894E-01  0.13059406813E-02 -0.46368821491E-01  0.86994348563E-01  0.51100000000E-03 0. -1.
</event>
<event>
 8    1  0.1128298E+005  0.1043930E+01  0.7957747E-01            NaN
         13   -1    0    0    0    0  0.00000000000E+00  0.00000000000E+00  0.74505805969E-08  0.10566000000E+00  0.10566000000E+00 0.  1.
     999900   -1    0    0    0    0 -0.00000000000E+00 -0.00000000000E+00 -0.74505805969E-08  0.93827000000E+00  0.93827000000E+00 0.  1.
     999902    2    1    2    0    0 -0.14549921045E-01  0.10720710900E-01  0.15487909261E-01  0.10201285467E+01  0.10198508433E+01 0.  0.
     999903    2    3    3    0    0  0.23497289628E-01  0.12730716038E+00 -0.81864372532E-02  0.13130884334E+00  0.20390166271E-01 0.  0.
         14    1    1    2    0    0  0.14549921045E-01 -0.10720710900E-01 -0.15487909261E-01  0.23801453272E-01  0.00000000000E+00 0. -1.
     999901    1    3    3    0    0 -0.38047210672E-01 -0.11658644948E+00  0.23674346514E-01  0.88881970339E+00  0.88000000000E+00 0. -1.
        -11    1    4    4    0    0  0.47796492562E-02  0.11178909057E-01 -0.62157699121E-02  0.13664185717E-01  0.51100000000E-03 0. -1.
         11    1    4    4    0    0  0.18717640372E-01  0.11612825133E+00 -0.19706673410E-02  0.11764465763E+00  0.51100000000E-03 0.  1.
</event>
<event>
 8    1  0.1128298E+005  0.1043930E+01  0.7957747E-01            NaN
         13   -1    0    0    0    0  0.00000000000E+00  0.00000000000E+00  0.74505805969E-08  0.10566000000E+00  0.10566000000E+00 0. -1.
     999900   -1    0    0    0    0 -0.00000000000E+00 -0.00000000000E+00 -0.74505805969E-08  0.93827000000E+00  0.93827000000E+00 0. -1.
     999902    2    1    2    0    0 -0.16546366500E-02 -0.14331406607E-01  0.15548344981E-01  0.10227196707E+01  0.10224997050E+01 0.  0.
     999903    2    3    3    0    0 -0.10506852063E+00 -0.45543080698E-01 -0.63571791180E-01  0.13259125527E+00  0.20627702564E-01 0.  0.
         14    1    1    2    0    0  0.16546366500E-02  0.14331406607E-01 -0.15548344981E-01  0.21210329310E-01  0.00000000000E+00 0.  1.
     999901    1    3    3    0    0  0.10341388398E+00  0.31211674091E-01  0.79120136161E-01  0.89012841542E+00  0.88000000000E+00 0.  1.
        -11    1    4    4    0    0 -0.37291943380E-01 -0.26223994749E-01 -0.29552500426E-01  0.54332295590E-01  0.51100000000E-03 0.  1.
         11    1    4    4    0    0 -0.67776577247E-01 -0.19319085949E-01 -0.34019290753E-01  0.78258959676E-01  0.51100000000E-03 0. -1.
</event>
<event>
 8    1  0.1128298E+005  0.1043930E+01  0.7957747E-01            NaN
         13   -1    0    0    0    0  0.00000000000E+00  0.00000000000E+00  0.74505805969E-08  0.10566000000E+00  0.10566000000E+00 0.  1.
     999900   -1    0    0    0    0 -0.00000000000E+00 -0.00000000000E+00 -0.74505805969E-08  0.93827000000E+00  0.93827000000E+00 0.  1.
     999902    2    1    2    0    0 -0.23130006258E-01 -0.47139153120E-02 -0.46184568103E-02  0.10198769684E+01  0.10195932926E+01 0.  0.
     999903    2    3    3    0    0  0.74587813496E-01  0.50891817527E-01  0.88290426590E-01  0.12787201859E+00  0.20068250999E-01 0.  0.
         14    1    1    2    0    0  0.23130006258E-01  0.47139153120E-02  0.46184568103E-02  0.24053031625E-01  0.00000000000E+00 0. -1.
     999901    1    3    3    0    0 -0.97717819754E-01 -0.55605732839E-01 -0.92908883400E-01  0.89200494978E+00  0.88000000000E+00 0.  1.
        -11    1    4    4    0    0  0.54331421466E-01  0.43680434029E-01  0.57800966570E-01  0.90559905769E-01  0.51100000000E-03 0. -1.
         11    1    4    4    0    0  0.20256392031E-01  0.72113834975E-02  0.30489460020E-01  0.37312112823E-01  0.51100000000E-03 0.  1.
</event>
<event>
 8    1  0.1128298E+005  0.1043930E+01  0.7957747E-01            NaN
         13   -1    0    0    0    0  0.00000000000E+00  0.00000000000E+00  0.74505805969E-08  0.10566000000E+00  0.10566000000E+00 0.  1.
     999900   -1    0    0    0    0 -0.00000000000E+00 -0.00000000000E+00 -0.74505805969E-08  0.93827000000E+00  0.93827000000E+00 0.  1.
     999902    2    1    2    0    0 -0.13163504926E-02 -0.20579396753E-01  0.10455103393E-01  0.10208095862E+01  0.10205477243E+01 0.  0.
     999903    2    3    3    0    0  0.35820937583E-01  0.82520867763E-01 -0.89179394382E-01  0.12843305360E+00  0.21195558242E-01 0.  0.
         14    1    1    2    0    0  0.13163504926E-02  0.20579396753E-01 -0.10455103393E-01  0.23120413844E-01  0.00000000000E+00 0. -1.
     999901    1    3    3    0    0 -0.37137288075E-01 -0.10310026452E+00  0.99634497775E-01  0.89237653256E+00  0.88000000000E+00 0. -1.
        -11    1    4    4    0    0  0.20733989340E-01  0.69354230052E-01 -0.69389860287E-01  0.10027522811E+00  0.51100000000E-03 0.  1.
         11    1    4    4    0    0  0.15086948243E-01  0.13166637711E-01 -0.19789534095E-01  0.28157825495E-01  0.51100000000E-03 0. -1.
</event>
<event>
 8    1  0.1128298E+005  0.1043930E+01  0.7957747E-01            NaN
         13   -1    0    0    0    0  0.00000000000E+00  0.00000000000E+00  0.74505805969E-08  0.10566000000E+00  0.10566000000E+00 0.  1.
     999900   -1    0    0    0    0 -0.00000000000E+00 -0.00000000000E+00 -0.74505805969E-08  0.93827000000E+00  0.93827000000E+00 0.  1.
     999902    2    1    2    0    0  0.60160018768E-02 -0.21148138056E-01 -0.54614438380E-02  0.10212746830E+01  0.10210233664E+01 0.  0.
     999903    2    3    3    0    0  0.11901659652E+00 -0.26354751320E-01 -0.49205342108E-01  0.13295617484E+00  0.19916213782E-01 0.  0.
         14    1    1    2    0    0 -0.60160018768E-02  0.21148138056E-01  0.54614438380E-02  0.22655317050E-01  0.00000000000E+00 0.  1.
     999901    1    3    3    0    0 -0.11300059465E+00  0.52066132642E-02  0.43743898270E-01  0.88831850811E+00  0.88000000000E+00 0. -1.
        -11    1    4    4    0    0  0.25315598511E-01 -0.13637421851E-01 -0.83584578442E-02  0.29949686830E-01  0.51100000000E-03 0.  1.
         11    1    4    4    0    0  0.93700998013E-01 -0.12717329470E-01 -0.40846884264E-01  0.10300648801E+00  0.51100000000E-03 0. -1.
</event>
<event>
 8    1  0.1128298E+005  0.1043930E+01  0.7957747E-01            NaN
         13   -1    0    0    0    0  0.00000000000E+00  0.00000000000E+00  0.74505805969E-08  0.10566000000E+00  0.10566000000E+00 0.  1.
     999900   -1    0    0    0    0 -0.00000000000E+00 -0.00000000000E+00 -0.74505805969E-08  0.93827000000E+00  0.93827000000E+00 0. -1.
     999902    2    1    2    0    0 -0.23169049013E-01  0.62017132004E-02 -0.22592924397E-02  0.10198391204E+01  0.10195545405E+01 0.  0.
     999903    2    3    3    0    0 -0.25105148291E-01 -0.11775850021E+00 -0.45139843982E-01  0.13011521675E+00  0.19875393618E-01 0.  0.
         14    1    1    2    0    0  0.23169049013E-01 -0.62017132004E-02  0.22592924397E-02  0.24090879625E-01  0.00000000000E+00 0.  1.
     999901    1    3    3    0    0  0.19360992782E-02  0.12396021341E+00  0.42880551542E-01  0.88972390363E+00  0.88000000000E+00 0.  1.
        -11    1    4    4    0    0 -0.11420499281E-01 -0.25040548478E-01 -0.16590053026E-01  0.32139506099E-01  0.51100000000E-03 0. -1.
         11    1    4    4    0    0 -0.13684649010E-01 -0.92717951732E-01 -0.28549790956E-01  0.97975710646E-01  0.51100000000E-03 0.  1.
</event>
<event>
 8    1  0.1128298E+005  0.1043930E+01  0.7957747E-01            NaN
         13   -1    0    0    0    0  0.00000000000E+00  0.00000000000E+00  0.74505805969E-08  0.10566000000E+00  0.10566000000E+00 0. -1.
     999900   -1    0    0    0    0 -0.00000000000E+00 -0.00000000000E+00 -0.74505805969E-08  0.93827000000E+00  0.93827000000E+00 0. -1.
     999902    2    1    2    0    0  0.54165262424E-02 -0.59698850777E-02 -0.24158786305E-01  0.10184618780E+01  0.10181433944E+01 0.  0.
     999903    2    3    3    0    0  0.10162354381E+00  0.29421468364E-01 -0.75537722106E-01  0.13102279094E+00  0.16372441149E-01 0.  0.
         14    1    1    2    0    0 -0.54165262424E-02  0.59698850777E-02  0.24158786305E-01  0.25468122037E-01  0.00000000000E+00 0. -1.
     999901    1    3    3    0    0 -0.96207017563E-01 -0.35391353442E-01  0.51378935802E-01  0.88743908702E+00  0.88000000000E+00 0.  1.
        -11    1    4    4    0    0  0.11499085433E-01  0.10536626101E-02 -0.31043982872E-02  0.11968190357E-01  0.51100000000E-03 0. -1.
         11    1    4    4    0    0  0.90124458372E-01  0.28367805754E-01 -0.72433323819E-01  0.11905460059E+00  0.51100000000E-03 0.  1.
</event>
<event>
 8    1  0.1128298E+005  0.1043930E+01  0.7957747E-01            NaN
         13   -1    0    0    0    0  0.00000000000E+00  0.00000000000E+00  0.74505805969E-08  0.10566000000E+00  0.10566000000E+00 0. -1.
     999900   -1    0    0    0    0 -0.00000000000E+00 -0.00000000000E+00 -0.74505805969E-08  0.93827000000E+00  0.93827000000E+00 0. -1.
     999902    2    1    2    0    0 -0.14133062717E-01 -0.67262613947E-02 -0.17176581821E-01  0.10206916477E+01  0.10204270766E+01 0.  0.
     999903    2    3    3    0    0  0.30670281842E-01 -0.12222378834E+00  0.28193653135E-01  0.13085712566E+00  0.21198694163E-01 0.  0.
         14    1    1    2    0    0  0.14133062717E-01  0.67262613947E-02  0.17176581821E-01  0.23238352290E-01  0.00000000000E+00 0.  1.
     999901    1    3    3    0    0 -0.44803344559E-01  0.11549752694E+00 -0.45370234956E-01  0.88983452205E+00  0.88000000000E+00 0.  1.
        -11    1    4    4    0    0  0.22473242340E-01 -0.10973428322E+00  0.29557347716E-01  0.11584712970E+00  0.51100000000E-03 0. -1.
         11    1    4    4    0    0  0.81970395020E-02 -0.12489505121E-01 -0.13636945809E-02  0.15009995959E-01  0.51100000000E-03 0.  1.
</event>
<event>
 8    1  0.1128298E+005  0.1043930E+01  0.7957747E-01            NaN
         13   -1    0    0    0    0  0.00000000000E+00  0.00000000000E+00  0.74505805969E-08  0.10566000000E+00  0.10566000000E+00 0.  1.
     999900   -1    0    0    0    0 -0.00000000000E+00 -0.00000000000E+00 -0.74505805969E-08  0.93827000000E+00  0.93827000000E+00 0.  1.
     999902    2    1    2    0    0 -0.13571430180E-01 -0.18781709025E-01  0.84125115449E-02  0.10192782929E+01  0.10189801430E+01 0.  0.
     999903    2    3    3    0    0  0.81822338937E-01 -0.16386805038E-01 -0.95021958049E-01  0.12809683203E+00  0.20401062129E-01 0.  0.
         14    1    1    2    0    0  0.13571430180E-01  0.18781709025E-01 -0.84125115449E-02  0.24651707071E-01  0.00000000000E+00 0. -1.
     999901    1    3    3    0    0 -0.95393769117E-01 -0.23949039866E-02  0.10343446959E+00  0.89118146090E+00  0.88000000000E+00 0. -1.
        -11    1    4    4    0    0  0.38986478844E-01 -0.70583398530E-02 -0.30110297156E-01  0.49766020637E-01  0.51100000000E-03 0. -1.
         11    1    4    4    0    0  0.42835860093E-01 -0.93284651850E-02 -0.64911660892E-01  0.78330811393E-01  0.51100000000E-03 0.  1.
</event>
<event>
 8    1  0.1128298E+005  0.1043930E+01  0.7957747E-01            NaN
         13   -1    0    0    0    0  0.00000000000E+00  0.00000000000E+00  0.74505805969E-08  0.10566000000E+00  0.10566000000E+00 0. -1.
     999900   -1    0    0    0    0 -0.00000000000E+00 -0.00000000000E+00 -0.74505805969E-08  0.93827000000E+00  0.93827000000E+00 0. -1.
     999902    2    1    2    0    0 -0.13906439857E-01  0.11729450179E-01  0.15361489302E-01  0.10201194052E+01  0.10198414859E+01 0.  0.
     999903    2    3    3    0    0  0.97244135172E-01 -0.74692278106E-01 -0.29660854065E-01  0.12779089123E+00  0.20381054517E-01 0.  0.
         14    1    1    2    0    0  0.13906439857E-01 -0.11729450179E-01 -0.15361489302E-01  0.23810594797E-01  0.00000000000E+00 0.  1.
     999901    1    3    3    0    0 -0.11115057503E+00  0.86421728285E-01  0.45022343367E-01  0.89232851397E+00  0.88000000000E+00 0.  1.
        -11    1    4    4    0    0  0.11514541663E-01 -0.18145882281E-02 -0.12221488021E-02  0.11731673744E-01  0.51100000000E-03 0.  1.
         11    1    4    4    0    0  0.85729593509E-01 -0.72877689878E-01 -0.28438705263E-01  0.11605921748E+00  0.51100000000E-03 0. -1.
</event>
<event>
 8    1  0.1128298E+005  0.1043930E+01  0.7957747E-01            NaN
         13   -1    0    0    0    0  0.00000000000E+00  0.00000000000E+00  0.74505805969E-08  0.10566000000E+00  0.10566000000E+00 0.  1.
     999900   -1    0    0    0    0 -0.00000000000E+00 -0.00000000000E+00 -0.74505805969E-08  0.93827000000E+00  0.93827000000E+00 0.  1.
     999902    2    1    2    0    0  0.95056527208E-03 -0.21537559620E-01 -0.82707083623E-02  0.10208394247E+01  0.10205782461E+01 0.  0.
     999903    2    3    3    0    0 -0.85311644757E-01  0.12360747009E-01 -0.97322323988E-01  0.13150233774E+00  0.19757664035E-01 0.  0.
         14    1    1    2    0    0 -0.95056527208E-03  0.21537559620E-01  0.82707083623E-02  0.23090575254E-01  0.00000000000E+00 0.  1.
     999901    1    3    3    0    0  0.86262210029E-01 -0.33898306629E-01  0.89051615625E-01  0.88933708700E+00  0.88000000000E+00 0. -1.
        -11    1    4    4    0    0 -0.61290383922E-01 -0.22675090668E-03 -0.66151942656E-01  0.90182610382E-01  0.51100000000E-03 0. -1.
         11    1    4    4    0    0 -0.24021260836E-01  0.12587497916E-01 -0.31170381332E-01  0.41319727362E-01  0.51100000000E-03 0.  1.
</event>
<event>
 8    1  0.1128298E+005  0.1043930E+01  0.7957747E-01            NaN
         13   -1    0    0    0    0  0.00000000000E+00  0.00000000000E+00  0.74505805969E-08  0.10566000000E+00  0.10566000000E+00 0.  1.
     999900   -1    0    0    0    0 -0.00000000000E+00 -0.00000000000E+00 -0.74505805969E-08  0.93827000000E+00  0.93827000000E+00 0. -1.
     999902    2    1    2    0    0  0.18408427896E-01  0.14747647452E-01 -0.23172801301E-02  0.10202290905E+01  0.10199537558E+01 0.  0.
     999903    2    3    3    0    0  0.28848096553E-01  0.46298868597E-02  0.12594762685E+00  0.13081172948E+00  0.19881029492E-01 0.  0.
         14    1    1    2    0    0 -0.18408427896E-01 -0.14747647452E-01  0.23172801301E-02  0.23700909480E-01  0.00000000000E+00 0.  1.
     999901    1    3    3    0    0 -0.10439668658E-01  0.10117760593E-01 -0.12826490698E+00  0.88941736104E+00  0.88000000000E+00 0. -1.
        -11    1    4    4    0    0  0.17767182605E-01  0.48107844482E-02  0.38654519591E-01  0.42816462144E-01  0.51100000000E-03 0. -1.
         11    1    4    4    0    0  0.11080913948E-01 -0.18089758848E-03  0.87293107255E-01  0.87995267334E-01  0.51100000000E-03 0.  1.
</event>
<event>
 8    1  0.1128298E+005  0.1043930E+01  0.7957747E-01            NaN
         13   -1    0    0    0    0  0.00000000000E+00  0.00000000000E+00  0.74505805969E-08  0.10566000000E+00  0.10566000000E+00 0.  1.
     999900   -1    0    0    0    0 -0.00000000000E+00 -0.00000000000E+00 -0.74505805969E-08  0.93827000000E+00  0.93827000000E+00 0. -1.
     999902    2    1    2    0    0  0.10090734105E-01  0.81544113868E-02 -0.17703025354E-01  0.10219820059E+01  0.10217463021E+01 0.  0.
     999903    2    3    3    0    0 -0.27399054340E-01  0.91088493437E-01  0.87784524955E-01  0.13102119333E+00  0.20312766061E-01 0.  0.
         14    1    1    2    0    0 -0.10090734105E-01 -0.81544113868E-02  0.17703025354E-01  0.21947994134E-01  0.00000000000E+00 0.  1.
     999901    1    3    3    0    0  0.37489788445E-01 -0.82934082050E-01 -0.10548755031E+00  0.89096081254E+00  0.88000000000E+00 0. -1.
        -11    1    4    4    0    0 -0.93836665475E-02  0.64106650715E-01  0.59899661294E-01  0.88238009995E-01  0.51100000000E-03 0. -1.
         11    1    4    4    0    0 -0.18015387792E-01  0.26981842722E-01  0.27884863661E-01  0.42783183336E-01  0.51100000000E-03 0.  1.
</event>
<event>
 8    1  0.1128298E+005  0.1043930E+01  0.7957747E-01            NaN
         13   -1    0    0    0    0  0.00000000000E+00  0.00000000000E+00  0.74505805969E-08  0.10566000000E+00  0.10566000000E+00 0.  1.
     999900   -1    0    0    0    0 -0.00000000000E+00 -0.00000000000E+00 -0.74505805969E-08  0.93827000000E+00  0.93827000000E+00 0. -1.
     999902    2    1    2    0    0 -0.13758040292E-01  0.11350734937E-01 -0.12843693988E-01  0.10219508432E+01  0.10217144624E+01 0.  0.
     999903    2    3    3    0    0 -0.88238751635E-01 -0.15537162690E-01 -0.98074382242E-01  0.13429403703E+00  0.19718600753E-01 0.  0.
         14    1    1    2    0    0  0.13758040292E-01 -0.11350734937E-01  0.12843693988E-01  0.21979156753E-01  0.00000000000E+00 0.  1.
     999901    1    3    3    0    0  0.74480711342E-01  0.26887897628E-01  0.85230688254E-01  0.88765680622E+00  0.88000000000E+00 0.  1.
        -11    1    4    4    0    0 -0.31871713115E-01 -0.74861439704E-02 -0.50027687772E-01  0.59790292801E-01  0.51100000000E-03 0.  1.
         11    1    4    4    0    0 -0.56367038520E-01 -0.80510187200E-02 -0.48046694470E-01  0.74503744231E-01  0.51100000000E-03 0. -1.
</event>
<event>
 8    1  0.1128298E+005  0.1043930E+01  0.7957747E-01            NaN
         13   -1    0    0    0    0  0.00000000000E+00  0.00000000000E+00  0.74505805969E-08  0.10566000000E+00  0.10566000000E+00 0.  1.
     999900   -1    0    0    0    0 -0.00000000000E+00 -0.00000000000E+00 -0.74505805969E-08  0.93827000000E+00  0.93827000000E+00 0.  1.
     999902    2    1    2    0    0 -0.37236383502E-02  0.22763928282E-01 -0.25107610060E-02  0.10207272882E+01  0.10204635374E+01 0.  0.
     999903    2    3    3    0    0  0.13568338379E-02 -0.11720315335E+00 -0.47979490508E-01  0.12849189298E+00  0.21672907032E-01 0.  0.
         14    1    1    2    0    0  0.37236383502E-02 -0.22763928282E-01  0.25107610060E-02  0.23202711786E-01  0.00000000000E+00 0. -1.
     999901    1    3    3    0    0 -0.50804721881E-02  0.13996708164E+00  0.45468729502E-01  0.89223539523E+00  0.88000000000E+00 0. -1.
        -11    1    4    4    0    0  0.74047494320E-02 -0.35715481256E-01 -0.72567955048E-02  0.37193388088E-01  0.51100000000E-03 0. -1.
         11    1    4    4    0    0 -0.60479155942E-02 -0.81487672097E-01 -0.40722695003E-01  0.91298504896E-01  0.51100000000E-03 0.  1.
</event>
<event>
 8    1  0.1128298E+005  0.1043930E+01  0.7957747E-01            NaN
         13   -1    0    0    0    0  0.00000000000E+00  0.00000000000E+00  0.74505805969E-08  0.10566000000E+00  0.10566000000E+00 0. -1.
     999900   -1    0    0    0    0 -0.00000000000E+00 -0.00000000000E+00 -0.74505805969E-08  0.93827000000E+00  0.93827000000E+00 0. -1.
     999902    2    1    2    0    0 -0.94141264056E-02  0.82405819080E-02 -0.20061367033E-01  0.10202870008E+01  0.10200130256E+01 0.  0.
     999903    2    3    3    0    0 -0.69043675186E-01 -0.80878382150E-01  0.70503911808E-01  0.12916414583E+00  0.20105551573E-01 0.  0.
         14    1    1    2    0    0  0.94141264056E-02 -0.82405819080E-02  0.20061367033E-01  0.23642999247E-01  0.00000000000E+00 0. -1.
     999901    1    3    3    0    0  0.59629548781E-01  0.89118964058E-01 -0.90565278842E-01  0.89112285493E+00  0.88000000000E+00 0. -1.
        -11    1    4    4    0    0 -0.11754912476E-02 -0.91003094248E-02  0.36762840153E-02  0.98981612667E-02  0.51100000000E-03 0. -1.
         11    1    4    4    0    0 -0.67868183939E-01 -0.71778072725E-01  0.66827627793E-01  0.11926598456E+00  0.51100000000E-03 0.  1.
</event>
<event>
 8    1  0.1128298E+005  0.1043930E+01  0.7957747E-01            NaN
         13   -1    0    0    0    0  0.00000000000E+00  0.00000000000E+00  0.74505805969E-08  0.10566000000E+00  0.10566000000E+00 0.  1.
     999900   -1    0    0    0    0 -0.00000000000E+00 -0.00000000000E+00 -0.74505805969E-08  0.93827000000E+00  0.93827000000E+00 0.  1.
     999902    2    1    2    0    0  0.14916420595E-01  0.92406049240E-02 -0.16571958479E-01  0.10197945864E+01  0.10195089407E+01 0.  0.
     999903    2    3    3    0    0  0.95446206040E-01  0.71377278826E-01 -0.55844912582E-01  0.13306555364E+00  0.19572764836E-01 0.  0.
         14    1    1    2    0    0 -0.14916420595E-01 -0.92406049240E-02  0.16571958479E-01  0.24135413619E-01  0.00000000000E+00 0.  1.
     999901    1    3    3    0    0 -0.80529785445E-01 -0.62136673902E-01  0.39272954103E-01  0.88672903274E+00  0.88000000000E+00 0.  1.
        -11    1    4    4    0    0 -0.55451721186E-04  0.22905894485E-02  0.52896403995E-03  0.24064078770E-02  0.51100000000E-03 0.  1.
         11    1    4    4    0    0  0.95501657761E-01  0.69086689378E-01 -0.56373876622E-01  0.13065914576E+00  0.51100000000E-03 0. -1.
</event>
<event>
 8    1  0.1128298E+005  0.1043930E+01  0.7957747E-01            NaN
         13   -1    0    0    0    0  0.00000000000E+00  0.00000000000E+00  0.74505805969E-08  0.10566000000E+00  0.10566000000E+00 0.  1.
     999900   -1    0    0    0    0 -0.00000000000E+00 -0.00000000000E+00 -0.74505805969E-08  0.93827000000E+00  0.93827000000E+00 0.  1.
     999902    2    1    2    0    0  0.71451457943E-02  0.21025752086E-01 -0.54179593707E-02  0.10210719676E+01  0.10208160821E+01 0.  0.
     999903    2    3    3    0    0  0.97245228774E-01 -0.64233619212E-02  0.85731143889E-01  0.13136435397E+00  0.20220543117E-01 0.  0.
         14    1    1    2    0    0 -0.71451457943E-02 -0.21025752086E-01  0.54179593707E-02  0.22858032351E-01  0.00000000000E+00 0.  1.
     999901    1    3    3    0    0 -0.90100082979E-01  0.27449114007E-01 -0.91149103260E-01  0.88970761368E+00  0.88000000000E+00 0.  1.
        -11    1    4    4    0    0  0.68661356058E-01 -0.19182674825E-03  0.48758110551E-01  0.84214209482E-01  0.51100000000E-03 0. -1.
         11    1    4    4    0    0  0.28583872716E-01 -0.62315351729E-02  0.36973033338E-01  0.47150144488E-01  0.51100000000E-03 0.  1.
</event>
<event>
 8    1  0.1128298E+005  0.1043930E+01  0.7957747E-01            NaN
         13   -1    0    0    0    0  0.00000000000E+00  0.00000000000E+00  0.74505805969E-08  0.10566000000E+00  0.10566000000E+00 0. -1.
     999900   -1    0    0    0    0 -0.00000000000E+00 -0.00000000000E+00 -0.74505805969E-08  0.93827000000E+00  0.93827000000E+00 0. -1.
     999902    2    1    2    0    0 -0.83885566918E-02  0.44618773008E-02 -0.20646137139E-01  0.10212025010E+01  0.10209495623E+01 0.  0.
     999903    2    3    3    0    0 -0.43977150080E-01  0.15037934253E-01  0.11904320224E+00  0.12941131888E+00  0.20393044372E-01 0.  0.
         14    1    1    2    0    0  0.83885566918E-02 -0.44618773008E-02  0.20646137139E-01  0.22727499009E-01  0.00000000000E+00 0. -1.
     999901    1    3    3    0    0  0.35588593388E-01 -0.10576056952E-01 -0.13968933938E+00  0.89179118211E+00  0.88000000000E+00 0. -1.
        -11    1    4    4    0    0 -0.39935659962E-01  0.11402334277E-01  0.11588542379E+00  0.12310386969E+00  0.51100000000E-03 0. -1.
         11    1    4    4    0    0 -0.40414901180E-02  0.36355999764E-02  0.31577784445E-02  0.63074491886E-02  0.51100000000E-03 0.  1.
</event>
<event>
 8    1  0.1128298E+005  0.1043930E+01  0.7957747E-01            NaN
         13   -1    0    0    0    0  0.00000000000E+00  0.00000000000E+00  0.74505805969E-08  0.10566000000E+00  0.10566000000E+00 0. -1.
     999900   -1    0    0    0    0 -0.00000000000E+00 -0.00000000000E+00 -0.74505805969E-08  0.93827000000E+00  0.93827000000E+00 0. -1.
     999902    2    1    2    0    0  0.68842201924E-02 -0.69964692137E-02 -0.17371614452E-02  0.10339620113E+01  0.10339139616E+01 0.  0.
     999903    2    3    3    0    0  0.99720534229E-01 -0.17586700471E-01 -0.99547866289E-01  0.14362630596E+00  0.21569911909E-01 0.  0.
         14    1    1    2    0    0 -0.68842201924E-02  0.69964692137E-02  0.17371614452E-02  0.99679887140E-02  0.00000000000E+00 0.  1.
     999901    1    3    3    0    0 -0.92836314037E-01  0.10590231257E-01  0.97810704843E-01  0.89033570533E+00  0.88000000000E+00 0.  1.
        -11    1    4    4    0    0  0.95446730000E-01 -0.21125263810E-01 -0.91969838055E-01  0.13422021931E+00  0.51100000000E-03 0.  1.
         11    1    4    4    0    0  0.42738042295E-02  0.35385633398E-02 -0.75780282333E-02  0.94060866467E-02  0.51100000000E-03 0. -1.
</event>
<event>
 8    1  0.1128298E+005  0.1043930E+01  0.7957747E-01            NaN
         13   -1    0    0    0    0  0.00000000000E+00  0.00000000000E+00  0.74505805969E-08  0.10566000000E+00  0.10566000000E+00 0. -1.
     999900   -1    0    0    0    0 -0.00000000000E+00 -0.00000000000E+00 -0.74505805969E-08  0.93827000000E+00  0.93827000000E+00 0. -1.
     999902    2    1    2    0    0  0.79143433591E-02 -0.19606074127E-01 -0.10124731905E-01  0.10204876202E+01  0.10202183285E+01 0.  0.
     999903    2    3    3    0    0  0.84564734961E-01  0.11130120172E-01 -0.98903167725E-01  0.13217370789E+00  0.20321872404E-01 0.  0.
         14    1    1    2    0    0 -0.79143433591E-02  0.19606074127E-01  0.10124731905E-01  0.23442379778E-01  0.00000000000E+00 0.  1.
     999901    1    3    3    0    0 -0.76650391602E-01 -0.30736194299E-01  0.88778435820E-01  0.88831391233E+00  0.88000000000E+00 0.  1.
        -11    1    4    4    0    0  0.28522537699E-01  0.28072161501E-02 -0.48512565342E-01  0.56348431534E-01  0.51100000000E-03 0. -1.
         11    1    4    4    0    0  0.56042197262E-01  0.83229040219E-02 -0.50390602383E-01  0.75825276359E-01  0.51100000000E-03 0.  1.
</event>
<event>
 8    1  0.1128298E+005  0.1043930E+01  0.7957747E-01            NaN
         13   -1    0    0    0    0  0.00000000000E+00  0.00000000000E+00  0.74505805969E-08  0.10566000000E+00  0.10566000000E+00 0.  1.
     999900   -1    0    0    0    0 -0.00000000000E+00 -0.00000000000E+00 -0.74505805969E-08  0.93827000000E+00  0.93827000000E+00 0.  1.
     999902    2    1    2    0    0  0.18633424656E-01 -0.57342249732E-02  0.12799865624E-01  0.10206078558E+01  0.10203413512E+01 0.  0.
     999903    2    3    3    0    0  0.57113015313E-01  0.98188196466E-01 -0.61036691483E-01  0.13058966174E+00  0.20624344916E-01 0.  0.
         14    1    1    2    0    0 -0.18633424656E-01  0.57342249732E-02 -0.12799865624E-01  0.23322144208E-01  0.00000000000E+00 0.  1.
     999901    1    3    3    0    0 -0.38479590656E-01 -0.10392242144E+00  0.73836557107E-01  0.89001819405E+00  0.88000000000E+00 0. -1.
        -11    1    4    4    0    0  0.30279227905E-01  0.67316155924E-01 -0.46171543338E-01  0.87065314713E-01  0.51100000000E-03 0. -1.
         11    1    4    4    0    0  0.26833787408E-01  0.30872040543E-01 -0.14865148145E-01  0.43524347029E-01  0.51100000000E-03 0.  1.
</event>
<event>
 8    1  0.1128298E+005  0.1043930E+01  0.7957747E-01            NaN
         13   -1    0    0    0    0  0.00000000000E+00  0.00000000000E+00  0.74505805969E-08  0.10566000000E+00  0.10566000000E+00 0. -1.
     999900   -1    0    0    0    0 -0.00000000000E+00 -0.00000000000E+00 -0.74505805969E-08  0.93827000000E+00  0.93827000000E+00 0. -1.
     999902    2    1    2    0    0 -0.48782965412E-02  0.22191372167E-01  0.65552713831E-02  0.10202820327E+01  0.10200079411E+01 0.  0.
     999903    2    3    3    0    0 -0.76285803385E-01  0.13506063194E-02  0.10552378231E+00  0.13161553971E+00  0.19132007894E-01 0.  0.
         14    1    1    2    0    0  0.48782965412E-02 -0.22191372167E-01 -0.65552713831E-02  0.23647967328E-01  0.00000000000E+00 0. -1.
     999901    1    3    3    0    0  0.71407506844E-01  0.20840765848E-01 -0.98968510924E-01  0.88866649296E+00  0.88000000000E+00 0.  1.
        -11    1    4    4    0    0 -0.10033161750E-01  0.67169275157E-02  0.13891063469E-01  0.18412067110E-01  0.51100000000E-03 0. -1.
         11    1    4    4    0    0 -0.66252641636E-01 -0.53663211963E-02  0.91632718837E-01  0.11320347260E+00  0.51100000000E-03 0.  1.
</event>
<event>
 8    1  0.1128298E+005  0.1043930E+01  0.7957747E-01            NaN
         13   -1    0    0    0    0  0.00000000000E+00  0.00000000000E+00  0.74505805969E-08  0.10566000000E+00  0.10566000000E+00 0.  1.
     999900   -1    0    0    0    0 -0.00000000000E+00 -0.00000000000E+00 -0.74505805969E-08  0.93827000000E+00  0.93827000000E+00 0.  1.
     999902    2    1    2    0    0 -0.22488291366E-01  0.35949080022E-02 -0.54492044374E-02  0.10205133298E+01  0.10202446353E+01 0.  0.
     999903    2    3    3    0    0 -0.74968626994E-01  0.69457057358E-01 -0.82370395172E-01  0.13315270534E+00  0.22364773360E-01 0.  0.
         14    1    1    2    0    0  0.22488291366E-01 -0.35949080022E-02  0.54492044374E-02  0.23416670154E-01  0.00000000000E+00 0.  1.
     999901    1    3    3    0    0  0.52480335628E-01 -0.65862149355E-01  0.76921190735E-01  0.88736062451E+00  0.88000000000E+00 0. -1.
        -11    1    4    4    0    0 -0.69692030725E-01  0.54198307242E-01 -0.66737282584E-01  0.11067322017E+00  0.51100000000E-03 0. -1.
         11    1    4    4    0    0 -0.52765962688E-02  0.15258750116E-01 -0.15633112588E-01  0.22479485169E-01  0.51100000000E-03 0.  1.
</event>
<event>
 8    1  0.1128298E+005  0.1043930E+01  0.7957747E-01            NaN
         13   -1    0    0    0    0  0.00000000000E+00  0.00000000000E+00  0.74505805969E-08  0.10566000000E+00  0.10566000000E+00 0.  1.
     999900   -1    0    0    0    0 -0.00000000000E+00 -0.00000000000E+00 -0.74505805969E-08  0.93827000000E+00  0.93827000000E+00 0.  1.
     999902    2    1    2    0    0 -0.15449650434E-02  0.23186364567E-01  0.64130073547E-02  0.10198235469E+01  0.10195385945E+01 0.  0.
     999903    2    3    3    0    0  0.11111832074E+00 -0.29009190382E-02 -0.63530426726E-01  0.12950582477E+00  0.19492229079E-01 0.  0.
         14    1    1    2    0    0  0.15449650434E-02 -0.23186364567E-01 -0.64130073547E-02  0.24106453123E-01  0.00000000000E+00 0.  1.
     999901    1    3    3    0    0 -0.11266328578E+00  0.26087283605E-01  0.69943434080E-01  0.89031772211E+00  0.88000000000E+00 0.  1.
        -11    1    4    4    0    0  0.21938910993E-01 -0.56946406705E-02 -0.19983181892E-01  0.30221406775E-01  0.51100000000E-03 0.  1.
         11    1    4    4    0    0  0.89179409744E-01  0.27937216322E-02 -0.43547244834E-01  0.99284417994E-01  0.51100000000E-03 0. -1.
</event>
<event>
 8    1  0.1128298E+005  0.1043930E+01  0.7957747E-01            NaN
         13   -1    0    0    0    0  0.00000000000E+00  0.00000000000E+00  0.74505805969E-08  0.10566000000E+00  0.10566000000E+00 0.  1.
     999900   -1    0    0    0    0 -0.00000000000E+00 -0.00000000000E+00 -0.74505805969E-08  0.93827000000E+00  0.93827000000E+00 0. -1.
     999902    2    1    2    0    0 -0.18637745107E-01  0.12702056065E-02  0.21236205155E-01  0.10156465176E+01  0.10152526254E+01 0.  0.
     999903    2    3    3    0    0  0.57089651516E-01  0.92955614494E-01 -0.56334078089E-01  0.12426668746E+00  0.19201736464E-01 0.  0.
         14    1    1    2    0    0  0.18637745107E-01 -0.12702056065E-02 -0.21236205155E-01  0.28283482359E-01  0.00000000000E+00 0. -1.
     999901    1    3    3    0    0 -0.75727396623E-01 -0.91685408888E-01  0.77570283244E-01  0.89137983018E+00  0.88000000000E+00 0.  1.
        -11    1    4    4    0    0  0.35244652368E-01  0.44771800307E-01 -0.36984421096E-01  0.67932379232E-01  0.51100000000E-03 0.  1.
         11    1    4    4    0    0  0.21844999147E-01  0.48183814187E-01 -0.19349656993E-01  0.56334308233E-01  0.51100000000E-03 0. -1.
</event>
<event>
 8    1  0.1128298E+005  0.1043930E+01  0.7957747E-01            NaN
         13   -1    0    0    0    0  0.00000000000E+00  0.00000000000E+00  0.74505805969E-08  0.10566000000E+00  0.10566000000E+00 0. -1.
     999900   -1    0    0    0    0 -0.00000000000E+00 -0.00000000000E+00 -0.74505805969E-08  0.93827000000E+00  0.93827000000E+00 0.  1.
     999902    2    1    2    0    0  0.14567902518E-01 -0.71204129835E-02 -0.18723354465E-01  0.10191613087E+01  0.10188602874E+01 0.  0.
     999903    2    3    3    0    0 -0.82808678312E-01 -0.93072630688E-01  0.24702236382E-01  0.12856838030E+00  0.19995903190E-01 0.  0.
         14    1    1    2    0    0 -0.14567902518E-01  0.71204129835E-02  0.18723354465E-01  0.24768691271E-01  0.00000000000E+00 0. -1.
     999901    1    3    3    0    0  0.97376580831E-01  0.85952217705E-01 -0.43425590847E-01  0.89059292843E+00  0.88000000000E+00 0.  1.
        -11    1    4    4    0    0 -0.62715907721E-01 -0.56374508431E-01  0.16720499771E-01  0.85972126388E-01  0.51100000000E-03 0.  1.
         11    1    4    4    0    0 -0.20092770591E-01 -0.36698122257E-01  0.79817366103E-02  0.42596253915E-01  0.51100000000E-03 0. -1.
</event>
<event>
 8    1  0.1128298E+005  0.1043930E+01  0.7957747E-01            NaN
         13   -1    0    0    0    0  0.00000000000E+00  0.00000000000E+00  0.74505805969E-08  0.10566000000E+00  0.10566000000E+00 0. -1.
     999900   -1    0    0    0    0 -0.00000000000E+00 -0.00000000000E+00 -0.74505805969E-08  0.93827000000E+00  0.93827000000E+00 0. -1.
     999902    2    1    2    0    0 -0.11280701322E-01 -0.17764299830E-01 -0.10862470234E-01  0.10202484074E+01  0.10199735266E+01 0.  0.
     999903    2    3    3    0    0 -0.20426495946E-01  0.14627597539E-01 -0.12807243174E+00  0.13183912349E+00  0.18649352928E-01 0.  0.
         14    1    1    2    0    0  0.11280701322E-01  0.17764299830E-01  0.10862470234E-01  0.23681592648E-01  0.00000000000E+00 0.  1.
     999901    1    3    3    0    0  0.91457946236E-02 -0.32391897369E-01  0.11720996151E+00  0.88840928386E+00  0.88000000000E+00 0.  1.
        -11    1    4    4    0    0 -0.62441126931E-02  0.72246973408E-03 -0.82694225324E-02  0.10399777683E-01  0.51100000000E-03 0.  1.
         11    1    4    4    0    0 -0.14182383253E-01  0.13905127805E-01 -0.11980300921E+00  0.12143934581E+00  0.51100000000E-03 0. -1.
</event>
<event>
 8    1  0.1128298E+005  0.1043930E+01  0.7957747E-01            NaN
         13   -1    0    0    0    0  0.00000000000E+00  0.00000000000E+00  0.74505805969E-08  0.10566000000E+00  0.10566000000E+00 0.  1.
     999900   -1    0    0    0    0 -0.00000000000E+00 -0.00000000000E+00 -0.74505805969E-08  0.93827000000E+00  0.93827000000E+00 0.  1.
     999902    2    1    2    0    0  0.13902093422E-01 -0.19179073129E-01 -0.35418851625E-02  0.10199790084E+01  0.10196977629E+01 0.  0.
     999903    2    3    3    0    0  0.88414174101E-01 -0.96245158867E-01 -0.17095058751E-01  0.13337034601E+00  0.20376736064E-01 0.  0.
         14    1    1    2    0    0 -0.13902093422E-01  0.19179073129E-01  0.35418851625E-02  0.23950991589E-01  0.00000000000E+00 0.  1.
     999901    1    3    3    0    0 -0.74512080679E-01  0.77066085739E-01  0.13553173589E-01  0.88660866241E+00  0.88000000000E+00 0. -1.
        -11    1    4    4    0    0  0.29348011741E-01 -0.44068113345E-01 -0.12610517912E-01  0.54429685742E-01  0.51100000000E-03 0. -1.
         11    1    4    4    0    0  0.59066162360E-01 -0.52177045523E-01 -0.44845408387E-02  0.78940660264E-01  0.51100000000E-03 0.  1.
</event>
<event>
 8    1  0.1128298E+005  0.1043930E+01  0.7957747E-01            NaN
         13   -1    0    0    0    0  0.00000000000E+00  0.00000000000E+00  0.74505805969E-08  0.10566000000E+00  0.10566000000E+00 0.  1.
     999900   -1    0    0    0    0 -0.00000000000E+00 -0.00000000000E+00 -0.74505805969E-08  0.93827000000E+00  0.93827000000E+00 0. -1.
     999902    2    1    2    0    0 -0.13979920293E-02 -0.12926084352E-01  0.20703300178E-01  0.10194828186E+01  0.10191896550E+01 0.  0.
     999903    2    3    3    0    0 -0.10552055773E+00  0.66794577178E-01 -0.24427774490E-01  0.12862160247E+00  0.18726900792E-01 0.  0.
         14    1    1    2    0    0  0.13979920293E-02  0.12926084352E-01 -0.20703300178E-01  0.24447181364E-01  0.00000000000E+00 0.  1.
     999901    1    3    3    0    0  0.10412256570E+00 -0.79720661530E-01  0.45131074668E-01  0.89086121616E+00  0.88000000000E+00 0. -1.
        -11    1    4    4    0    0 -0.26233705247E-01  0.20344500884E-01 -0.14376437151E-01  0.36180783205E-01  0.51100000000E-03 0. -1.
         11    1    4    4    0    0 -0.79286852478E-01  0.46450076294E-01 -0.10051337339E-01  0.92440819268E-01  0.51100000000E-03 0.  1.
</event>
<event>
 8    1  0.1128298E+005  0.1043930E+01  0.7957747E-01            NaN
         13   -1    0    0    0    0  0.00000000000E+00  0.00000000000E+00  0.74505805969E-08  0.10566000000E+00  0.10566000000E+00 0.  1.
     999900   -1    0    0    0    0 -0.00000000000E+00 -0.00000000000E+00 -0.74505805969E-08  0.93827000000E+00  0.93827000000E+00 0.  1.
     999902    2    1    2    0    0 -0.34461316756E-02 -0.14138444942E-01 -0.18238584052E-01  0.10205972463E+01  0.10203304963E+01 0.  0.
     999903    2    3    3    0    0  0.11554682212E+00 -0.39582231715E-01 -0.45542737628E-01  0.13180467983E+00  0.19506704073E-01 0.  0.
         14    1    1    2    0    0  0.34461316756E-02  0.14138444942E-01  0.18238584052E-01  0.23332753741E-01  0.00000000000E+00 0. -1.
     999901    1    3    3    0    0 -0.11899295380E+00  0.25443786772E-01  0.27304153576E-01  0.88879256643E+00  0.88000000000E+00 0.  1.
        -11    1    4    4    0    0  0.56139048748E-01 -0.17034058794E-01 -0.11752458528E-01  0.59834215594E-01  0.51100000000E-03 0.  1.
         11    1    4    4    0    0  0.59407773376E-01 -0.22548172921E-01 -0.33790279100E-01  0.71970464235E-01  0.51100000000E-03 0. -1.
</event>
<event>
 8    1  0.1128298E+005  0.1043930E+01  0.7957747E-01            NaN
         13   -1    0    0    0    0  0.00000000000E+00  0.00000000000E+00  0.74505805969E-08  0.10566000000E+00  0.10566000000E+00 0.  1.
     999900   -1    0    0    0    0 -0.00000000000E+00 -0.00000000000E+00 -0.74505805969E-08  0.93827000000E+00  0.93827000000E+00 0.  1.
     999902    2    1    2    0    0 -0.23718022683E-01 -0.80360803783E-03  0.52415709829E-02  0.10196264107E+01  0.10193367221E+01 0.  0.
     999903    2    3    3    0    0  0.95721064858E-01  0.81570866348E-01 -0.78645147659E-02  0.12764938234E+00  0.20400630499E-01 0.  0.
         14    1    1    2    0    0  0.23718022683E-01  0.80360803783E-03 -0.52415709829E-02  0.24303589287E-01  0.00000000000E+00 0.  1.
     999901    1    3    3    0    0 -0.11943908754E+00 -0.82374474385E-01  0.13106085749E-01  0.89197702837E+00  0.88000000000E+00 0. -1.
        -11    1    4    4    0    0  0.81624516682E-02  0.69141398664E-03 -0.62332872435E-03  0.82312411115E-02  0.51100000000E-03 0.  1.
         11    1    4    4    0    0  0.87558613190E-01  0.80879452361E-01 -0.72411860416E-02  0.11941814123E+00  0.51100000000E-03 0. -1.
</event>
<event>
 8    1  0.1128298E+005  0.1043930E+01  0.7957747E-01            NaN
         13   -1    0    0    0    0  0.00000000000E+00  0.00000000000E+00  0.74505805969E-08  0.10566000000E+00  0.10566000000E+00 0.  1.
     999900   -1    0    0    0    0 -0.00000000000E+00 -0.00000000000E+00 -0.74505805969E-08  0.93827000000E+00  0.93827000000E+00 0. -1.
     999902    2    1    2    0    0  0.94366306712E-02  0.16924254597E-01 -0.11028199373E-01  0.10216342252E+01  0.10213909088E+01 0.  0.
     999903    2    3    3    0    0  0.31767866724E-01 -0.32464462418E-01  0.12043348570E+00  0.13021956069E+00  0.19742614631E-01 0.  0.
         14    1    1    2    0    0 -0.94366306712E-02 -0.16924254597E-01  0.11028199373E-01  0.22295774790E-01  0.00000000000E+00 0.  1.
     999901    1    3    3    0    0 -0.22331236053E-01  0.49388717015E-01 -0.13146168508E+00  0.89141466452E+00  0.88000000000E+00 0. -1.
        -11    1    4    4    0    0  0.18455565341E-01 -0.91684659217E-02  0.34459490999E-01  0.40154530259E-01  0.51100000000E-03 0.  1.
         11    1    4    4    0    0  0.13312301382E-01 -0.23295996496E-01  0.85973994703E-01  0.90065030434E-01  0.51100000000E-03 0. -1.
</event>
<event>
 7    1  0.1128298E+005  0.1043930E+01  0.7957747E-01            NaN
         13   -1    0    0    0    0  0.00000000000E+00  0.00000000000E+00  0.74505805969E-08  0.10566000000E+00  0.10566000000E+00 0.  1.
     999900   -1    0    0    0    0 -0.00000000000E+00 -0.00000000000E+00 -0.74505805969E-08  0.93827000000E+00  0.93827000000E+00 0. -1.
     999903    2    1    2    0    0 -0.29496019993E-01 -0.98271129660E-02 -0.46608866258E-02  0.36887222413E-01  0.19296527370E-01 0.  0.
         14    1    1    2    0    0  0.55308127059E-01  0.19928661808E-01 -0.10446321436E+00  0.11986952755E+00  0.00000000000E+00 0. -1.
     999901    1    1    2    0    0 -0.25812107066E-01 -0.10101548841E-01  0.10912410099E+00  0.88717325003E+00  0.88000000000E+00 0.  1.
        -11    1    3    3    0    0 -0.21228244120E-01  0.26660374830E-02 -0.46353089436E-02  0.21897335781E-01  0.51100000000E-03 0.  1.
         11    1    3    3    0    0 -0.82677758722E-02 -0.12493150449E-01 -0.25577682186E-04  0.14989886632E-01  0.51100000000E-03 0. -1.
</event>
<event>
 8    1  0.1128298E+005  0.1043930E+01  0.7957747E-01            NaN
         13   -1    0    0    0    0  0.00000000000E+00  0.00000000000E+00  0.74505805969E-08  0.10566000000E+00  0.10566000000E+00 0.  1.
     999900   -1    0    0    0    0 -0.00000000000E+00 -0.00000000000E+00 -0.74505805969E-08  0.93827000000E+00  0.93827000000E+00 0.  1.
     999902    2    1    2    0    0 -0.41845653663E-02  0.21284865082E-01  0.10857191121E-01  0.10196723276E+01  0.10193837458E+01 0.  0.
     999903    2    3    3    0    0  0.12527196325E+00 -0.10230744070E-01 -0.21649542700E-01  0.12904956005E+00  0.19681294416E-01 0.  0.
         14    1    1    2    0    0  0.41845653663E-02 -0.21284865082E-01 -0.10857191121E-01  0.24257672352E-01  0.00000000000E+00 0.  1.
     999901    1    3    3    0    0 -0.12945652861E+00  0.31515609152E-01  0.32506733821E-01  0.89062276760E+00  0.88000000000E+00 0.  1.
        -11    1    4    4    0    0  0.56078713659E-01 -0.54939451110E-03 -0.63051999989E-03  0.56087276957E-01  0.51100000000E-03 0. -1.
         11    1    4    4    0    0  0.69193249588E-01 -0.96813495591E-02 -0.21019022700E-01  0.72962283093E-01  0.51100000000E-03 0.  1.
</event>
<event>
 8    1  0.1128298E+005  0.1043930E+01  0.7957747E-01            NaN
         13   -1    0    0    0    0  0.00000000000E+00  0.00000000000E+00  0.74505805969E-08  0.10566000000E+00  0.10566000000E+00 0. -1.
     999900   -1    0    0    0    0 -0.00000000000E+00 -0.00000000000E+00 -0.74505805969E-08  0.93827000000E+00  0.93827000000E+00 0. -1.
     999902    2    1    2    0    0 -0.22336946373E-01 -0.23380214750E-02  0.87094941350E-02  0.10198413968E+01  0.10195568713E+01 0.  0.
     999903    2    3    3    0    0 -0.25886234411E-01 -0.61945486809E-01 -0.10953827372E+00  0.12992669188E+00  0.19364177891E-01 0.  0.
         14    1    1    2    0    0  0.22336946373E-01  0.23380214750E-02 -0.87094941350E-02  0.24088603234E-01  0.00000000000E+00 0. -1.
     999901    1    3    3    0    0  0.35492880387E-02  0.59607465334E-01  0.11824776786E+00  0.88991470489E+00  0.88000000000E+00 0.  1.
        -11    1    4    4    0    0 -0.60948002706E-02 -0.39188158221E-01 -0.64572735201E-01  0.75780984339E-01  0.51100000000E-03 0. -1.
         11    1    4    4    0    0 -0.19791434141E-01 -0.22757328588E-01 -0.44965538519E-01  0.54145707541E-01  0.51100000000E-03 0.  1.
</event>
<event>
 7    1  0.1128298E+005  0.1043930E+01  0.7957747E-01            NaN
         13   -1    0    0    0    0  0.00000000000E+00  0.00000000000E+00  0.74505805969E-08  0.10566000000E+00  0.10566000000E+00 0.  1.
     999900   -1    0    0    0    0 -0.00000000000E+00 -0.00000000000E+00 -0.74505805969E-08  0.93827000000E+00  0.93827000000E+00 0. -1.
     999903    2    1    2    0    0 -0.42752834912E-01 -0.12657667917E+00  0.51281892513E-01  0.14448345026E+00  0.19904127628E-01 0.  0.
         14    1    1    2    0    0  0.64260258299E-02  0.30310582185E-02 -0.53407131793E-02  0.88884385104E-02  0.00000000000E+00 0.  1.
     999901    1    1    2    0    0  0.36326809082E-01  0.12354562095E+00 -0.45941179334E-01  0.89055811123E+00  0.88000000000E+00 0. -1.
        -11    1    3    3    0    0 -0.29323266550E-01 -0.94356124948E-01  0.46646189079E-01  0.10926600731E+00  0.51100000000E-03 0. -1.
         11    1    3    3    0    0 -0.13429568362E-01 -0.32220554224E-01  0.46357034337E-02  0.35217442954E-01  0.51100000000E-03 0.  1.
</event>
<event>
 8    1  0.1128298E+005  0.1043930E+01  0.7957747E-01            NaN
         13   -1    0    0    0    0  0.00000000000E+00  0.00000000000E+00  0.74505805969E-08  0.10566000000E+00  0.10566000000E+00 0.  1.
     999900   -1    0    0    0    0 -0.00000000000E+00 -0.00000000000E+00 -0.74505805969E-08  0.93827000000E+00  0.93827000000E+00 0. -1.
     999902    2    1    2    0    0 -0.66769936143E-03  0.18944063151E-01 -0.14179869739E-01  0.10202573986E+01  0.10199827289E+01 0.  0.
     999903    2    3    3    0    0 -0.52447862178E-01 -0.66149799881E-02  0.11582534727E+00  0.12883392662E+00  0.19701100792E-01 0.  0.
         14    1    1    2    0    0  0.66769936143E-03 -0.18944063151E-01  0.14179869739E-01  0.23672601398E-01  0.00000000000E+00 0. -1.
     999901    1    3    3    0    0  0.51780162816E-01  0.25559043139E-01 -0.13000521701E+00  0.89142347198E+00  0.88000000000E+00 0. -1.
        -11    1    4    4    0    0 -0.11440705581E-01 -0.87692952034E-02  0.20774548431E-01  0.25290972027E-01  0.51100000000E-03 0.  1.
         11    1    4    4    0    0 -0.41007156597E-01  0.21543152153E-02  0.95050798836E-01  0.10354295460E+00  0.51100000000E-03 0. -1.
</event>
<event>
 8    1  0.1128298E+005  0.1043930E+01  0.7957747E-01            NaN
         13   -1    0    0    0    0  0.00000000000E+00  0.00000000000E+00  0.74505805969E-08  0.10566000000E+00  0.10566000000E+00 0. -1.
     999900   -1    0    0    0    0 -0.00000000000E+00 -0.00000000000E+00 -0.74505805969E-08  0.93827000000E+00  0.93827000000E+00 0.  1.
     999902    2    1    2    0    0  0.16095263405E-01 -0.15844646020E-01 -0.57103883533E-02  0.10206336731E+01  0.10203677650E+01 0.  0.
     999903    2    3    3    0    0  0.31266428117E-01  0.39281912882E-01  0.11847559342E+00  0.13007695969E+00  0.19049698154E-01 0.  0.
         14    1    1    2    0    0 -0.16095263405E-01  0.15844646020E-01  0.57103883533E-02  0.23296326894E-01  0.00000000000E+00 0.  1.
     999901    1    3    3    0    0 -0.15171164712E-01 -0.55126558903E-01 -0.12418598177E+00  0.89055671341E+00  0.88000000000E+00 0.  1.
        -11    1    4    4    0    0  0.16532826117E-01  0.29386489710E-01  0.93797905816E-01  0.99675515415E-01  0.51100000000E-03 0.  1.
         11    1    4    4    0    0  0.14733602000E-01  0.98954231717E-02  0.24677687605E-01  0.30401444278E-01  0.51100000000E-03 0. -1.
</event>
<event>
 8    1  0.1128298E+005  0.1043930E+01  0.7957747E-01            NaN
         13   -1    0    0    0    0  0.00000000000E+00  0.00000000000E+00  0.74505805969E-08  0.10566000000E+00  0.10566000000E+00 0. -1.
     999900   -1    0    0    0    0 -0.00000000000E+00 -0.00000000000E+00 -0.74505805969E-08  0.93827000000E+00  0.93827000000E+00 0. -1.
     999902    2    1    2    0    0 -0.18461605221E-01 -0.12654556993E-01 -0.60248255885E-02  0.10207509749E+01  0.10204877685E+01 0.  0.
     999903    2    3    3    0    0  0.93408724014E-01 -0.88293076421E-01 -0.10405809234E-01  0.13043903566E+00  0.19626616921E-01 0.  0.
         14    1    1    2    0    0  0.18461605221E-01  0.12654556993E-01  0.60248255885E-02  0.23179025074E-01  0.00000000000E+00 0. -1.
     999901    1    3    3    0    0 -0.11187032924E+00  0.75638519428E-01  0.43809836459E-02  0.89031193927E+00  0.88000000000E+00 0. -1.
        -11    1    4    4    0    0  0.39296766184E-01 -0.25252005864E-01 -0.42262179500E-04  0.46713622636E-01  0.51100000000E-03 0. -1.
         11    1    4    4    0    0  0.54111957830E-01 -0.63041070557E-01 -0.10363547055E-01  0.83725413022E-01  0.51100000000E-03 0.  1.
</event>
<event>
 8    1  0.1128298E+005  0.1043930E+01  0.7957747E-01            NaN
         13   -1    0    0    0    0  0.00000000000E+00  0.00000000000E+00  0.74505805969E-08  0.10566000000E+00  0.10566000000E+00 0. -1.
     999900   -1    0    0    0    0 -0.00000000000E+00 -0.00000000000E+00 -0.74505805969E-08  0.93827000000E+00  0.93827000000E+00 0. -1.
     999902    2    1    2    0    0 -0.49322236775E-02  0.21985035507E-01 -0.82460818986E-02  0.10199369493E+01  0.10196547033E+01 0.  0.
     999903    2    3    3    0    0  0.69183352081E-01  0.13466761877E-01  0.10656912439E+00  0.12934826129E+00  0.20156997448E-01 0.  0.
         14    1    1    2    0    0  0.49322236775E-02 -0.21985035507E-01  0.82460818986E-02  0.23993050730E-01  0.00000000000E+00 0. -1.
     999901    1    3    3    0    0 -0.74115575759E-01  0.85182736300E-02 -0.11481520629E+00  0.89058868798E+00  0.88000000000E+00 0. -1.
        -11    1    4    4    0    0  0.56492281746E-01  0.25442898851E-02  0.82766530051E-01  0.10024176238E+00  0.51100000000E-03 0.  1.
         11    1    4    4    0    0  0.12691070335E-01  0.10922471992E-01  0.23802594338E-01  0.29106498912E-01  0.51100000000E-03 0. -1.
</event>
<event>
 8    1  0.1128298E+005  0.1043930E+01  0.7957747E-01            NaN
         13   -1    0    0    0    0  0.00000000000E+00  0.00000000000E+00  0.74505805969E-08  0.10566000000E+00  0.10566000000E+00 0.  1.
     999900   -1    0    0    0    0 -0.00000000000E+00 -0.00000000000E+00 -0.74505805969E-08  0.93827000000E+00  0.93827000000E+00 0. -1.
     999902    2    1    2    0    0 -0.11541188926E-01 -0.25648470464E-01 -0.49404163505E-02  0.10153739010E+01  0.10149722695E+01 0.  0.
     999903    2    3    3    0    0 -0.66723100134E-01 -0.49131715140E-02  0.10543547356E+00  0.12652192620E+00  0.20372711630E-01 0.  0.
         14    1    1    2    0    0  0.11541188926E-01  0.25648470464E-01  0.49404163505E-02  0.28556099045E-01  0.00000000000E+00 0.  1.
     999901    1    3    3    0    0  0.55181911208E-01 -0.20735298950E-01 -0.11037588991E+00  0.88885197475E+00  0.88000000000E+00 0. -1.
        -11    1    4    4    0    0 -0.33223642766E-01 -0.34084265788E-02  0.34297427467E-01  0.47874862530E-01  0.51100000000E-03 0.  1.
         11    1    4    4    0    0 -0.33499457368E-01 -0.15047449352E-02  0.71138046094E-01  0.78647063673E-01  0.51100000000E-03 0. -1.
</event>
<event>
 8    1  0.1128298E+005  0.1043930E+01  0.7957747E-01            NaN
         13   -1    0    0    0    0  0.00000000000E+00  0.00000000000E+00  0.74505805969E-08  0.10566000000E+00  0.10566000000E+00 0.  1.
     999900   -1    0    0    0    0 -0.00000000000E+00 -0.00000000000E+00 -0.74505805969E-08  0.93827000000E+00  0.93827000000E+00 0. -1.
     999902    2    1    2    0    0 -0.50102584316E-02 -0.17179672034E-01  0.16290380132E-01  0.10197304069E+01  0.10194432218E+01 0.  0.
     999903    2    3    3    0    0  0.22544385684E-01  0.73874739520E-01  0.10326837835E+00  0.13033997721E+00  0.18932121563E-01 0.  0.
         14    1    1    2    0    0  0.50102584316E-02  0.17179672034E-01 -0.16290380132E-01  0.24199593087E-01  0.00000000000E+00 0. -1.
     999901    1    3    3    0    0 -0.27554644116E-01 -0.91054411554E-01 -0.86977998217E-01  0.88939042970E+00  0.88000000000E+00 0. -1.
        -11    1    4    4    0    0  0.17050071504E-01  0.38036568127E-01  0.42200121870E-01  0.59317761758E-01  0.51100000000E-03 0.  1.
         11    1    4    4    0    0  0.54943141802E-02  0.35838171394E-01  0.61068256479E-01  0.71022215451E-01  0.51100000000E-03 0. -1.
</event>
<event>
 8    1  0.1128298E+005  0.1043930E+01  0.7957747E-01            NaN
         13   -1    0    0    0    0  0.00000000000E+00  0.00000000000E+00  0.74505805969E-08  0.10566000000E+00  0.10566000000E+00 0. -1.
     999900   -1    0    0    0    0 -0.00000000000E+00 -0.00000000000E+00 -0.74505805969E-08  0.93827000000E+00  0.93827000000E+00 0. -1.
     999902    2    1    2    0    0  0.19077867854E-02  0.20602719274E-01  0.11513052065E-01  0.10202516964E+01  0.10199768929E+01 0.  0.
     999903    2    3    3    0    0  0.20665037644E-01  0.11931775321E+00  0.52669821534E-01  0.13357792776E+00  0.20129149777E-01 0.  0.
         14    1    1    2    0    0 -0.19077867854E-02 -0.20602719274E-01 -0.11513052065E-01  0.23678303565E-01  0.00000000000E+00 0.  1.
     999901    1    3    3    0    0 -0.18757250859E-01 -0.98715033941E-01 -0.41156769469E-01  0.88667376868E+00  0.88000000000E+00 0. -1.
        -11    1    4    4    0    0  0.84870095646E-02  0.45698764403E-01  0.31007620439E-01  0.55876113373E-01  0.51100000000E-03 0. -1.
         11    1    4    4    0    0  0.12178028080E-01  0.73618988812E-01  0.21662201094E-01  0.77701814386E-01  0.51100000000E-03 0.  1.
</event>
<event>
 8    1  0.1128298E+005  0.1043930E+01  0.7957747E-01            NaN
         13   -1    0    0    0    0  0.00000000000E+00  0.00000000000E+00  0.74505805969E-08  0.10566000000E+00  0.10566000000E+00 0. -1.
     999900   -1    0    0    0    0 -0.00000000000E+00 -0.00000000000E+00 -0.74505805969E-08  0.93827000000E+00  0.93827000000E+00 0. -1.
     999902    2    1    2    0    0  0.39150033217E-02 -0.18069989373E-01 -0.16592678203E-01  0.10190871190E+01  0.10187842693E+01 0.  0.
     999903    2    3    3    0    0  0.12332570493E-01 -0.83109032109E-01  0.96425777614E-01  0.12943881552E+00  0.19931704914E-01 0.  0.
         14    1    1    2    0    0 -0.39150033217E-02  0.18069989373E-01  0.16592678203E-01  0.24842881011E-01  0.00000000000E+00 0. -1.
     999901    1    3    3    0    0 -0.84175671714E-02  0.65039042735E-01 -0.11301845582E+00  0.88964830347E+00  0.88000000000E+00 0. -1.
        -11    1    4    4    0    0 -0.31196396892E-02 -0.44570112891E-01  0.46234742276E-01  0.64297275442E-01  0.51100000000E-03 0.  1.
         11    1    4    4    0    0  0.15452210182E-01 -0.38538919218E-01  0.50191035338E-01  0.65141540075E-01  0.51100000000E-03 0. -1.
</event>
<event>
 8    1  0.1128298E+005  0.1043930E+01  0.7957747E-01            NaN
         13   -1    0    0    0    0  0.00000000000E+00  0.00000000000E+00  0.74505805969E-08  0.10566000000E+00  0.10566000000E+00 0. -1.
     999900   -1    0    0    0    0 -0.00000000000E+00 -0.00000000000E+00 -0.74505805969E-08  0.93827000000E+00  0.93827000000E+00 0.  1.
     999902    2    1    2    0    0  0.67292481278E-02  0.22431648366E-01 -0.42408739863E-02  0.10201298605E+01  0.10198521881E+01 0.  0.
     999903    2    3    3    0    0 -0.39375841744E-01  0.12482579773E+00  0.10729828220E-01  0.13286757510E+00  0.20167464093E-01 0.  0.
         14    1    1    2    0    0 -0.67292481278E-02 -0.22431648366E-01  0.42408739863E-02  0.23800139515E-01  0.00000000000E+00 0. -1.
     999901    1    3    3    0    0  0.46105089872E-01 -0.10239414936E+00 -0.14970702207E-01  0.88726228538E+00  0.88000000000E+00 0.  1.
        -11    1    4    4    0    0 -0.35785587438E-01  0.10940594512E+00  0.15901702633E-01  0.11620410648E+00  0.51100000000E-03 0. -1.
         11    1    4    4    0    0 -0.35902543059E-02  0.15419852613E-01 -0.51718744121E-02  0.16663468622E-01  0.51100000000E-03 0.  1.
</event>
<event>
 8    1  0.1128298E+005  0.1043930E+01  0.7957747E-01            NaN
         13   -1    0    0    0    0  0.00000000000E+00  0.00000000000E+00  0.74505805969E-08  0.10566000000E+00  0.10566000000E+00 0. -1.
     999900   -1    0    0    0    0 -0.00000000000E+00 -0.00000000000E+00 -0.74505805969E-08  0.93827000000E+00  0.93827000000E+00 0.  1.
     999902    2    1    2    0    0  0.20987987467E-01  0.30139952273E-02 -0.10251112727E-01  0.10203786710E+01  0.10201068410E+01 0.  0.
     999903    2    3    3    0    0  0.88677544936E-01 -0.58119638295E-01 -0.77794893211E-01  0.13308990199E+00  0.20476261167E-01 0.  0.
         14    1    1    2    0    0 -0.20987987467E-01 -0.30139952273E-02  0.10251112727E-01  0.23551328992E-01  0.00000000000E+00 0. -1.
     999901    1    3    3    0    0 -0.67689557469E-01  0.61133633522E-01  0.67543780483E-01  0.88728876901E+00  0.88000000000E+00 0. -1.
        -11    1    4    4    0    0  0.99834301020E-02 -0.15010418090E-01 -0.16309159207E-01  0.24315248773E-01  0.51100000000E-03 0.  1.
         11    1    4    4    0    0  0.78694114834E-01 -0.43109220205E-01 -0.61485734004E-01  0.10877465322E+00  0.51100000000E-03 0. -1.
</event>
<event>
 8    1  0.1128298E+005  0.1043930E+01  0.7957747E-01            NaN
         13   -1    0    0    0    0  0.00000000000E+00  0.00000000000E+00  0.74505805969E-08  0.10566000000E+00  0.10566000000E+00 0. -1.
     999900   -1    0    0    0    0 -0.00000000000E+00 -0.00000000000E+00 -0.74505805969E-08  0.93827000000E+00  0.93827000000E+00 0. -1.
     999902    2    1    2    0    0  0.27357040542E-02 -0.23500219928E-01 -0.60518338961E-02  0.10195093303E+01  0.10192168099E+01 0.  0.
     999903    2    3    3    0    0  0.14887182998E-01 -0.11607810027E+00 -0.59523751955E-01  0.13295557089E+00  0.20936886201E-01 0.  0.
         14    1    1    2    0    0 -0.27357040542E-02  0.23500219928E-01  0.60518338961E-02  0.24420669664E-01  0.00000000000E+00 0. -1.
     999901    1    3    3    0    0 -0.12151478944E-01  0.92577880342E-01  0.53471918059E-01  0.88655375945E+00  0.88000000000E+00 0. -1.
        -11    1    4    4    0    0 -0.52831615807E-02 -0.22719546973E-01 -0.13095893210E-01  0.26755432176E-01  0.51100000000E-03 0. -1.
         11    1    4    4    0    0  0.20170344579E-01 -0.93358553296E-01 -0.46427858745E-01  0.10620013871E+00  0.51100000000E-03 0.  1.
</event>
<event>
 8    1  0.1128298E+005  0.1043930E+01  0.7957747E-01            NaN
         13   -1    0    0    0    0  0.00000000000E+00  0.00000000000E+00  0.74505805969E-08  0.10566000000E+00  0.10566000000E+00 0.  1.
     999900   -1    0    0    0    0 -0.00000000000E+00 -0.00000000000E+00 -0.74505805969E-08  0.93827000000E+00  0.93827000000E+00 0.  1.
     999902    2    1    2    0    0  0.82390136491E-02  0.21341471988E-01 -0.92601816939E-02  0.10192502363E+01  0.10189513989E+01 0.  0.
     999903    2    3    3    0    0 -0.49964729467E-01 -0.11079776550E+00 -0.30482103411E-01  0.12723071645E+00  0.22042630259E-01 0.  0.
         14    1    1    2    0    0 -0.82390136491E-02 -0.21341471988E-01  0.92601816939E-02  0.24679763725E-01  0.00000000000E+00 0. -1.
     999901    1    3    3    0    0  0.58203743116E-01  0.13213923749E+00  0.21221921717E-01  0.89201951983E+00  0.88000000000E+00 0.  1.
        -11    1    4    4    0    0 -0.17976640440E-01 -0.22892993711E-01 -0.92452850620E-03  0.29126699719E-01  0.51100000000E-03 0. -1.
         11    1    4    4    0    0 -0.31988089026E-01 -0.87904771788E-01 -0.29557574905E-01  0.98104016726E-01  0.51100000000E-03 0.  1.
</event>
<event>
 8    1  0.1128298E+005  0.1043930E+01  0.7957747E-01            NaN
         13   -1    0    0    0    0  0.00000000000E+00  0.00000000000E+00  0.74505805969E-08  0.10566000000E+00  0.10566000000E+00 0.  1.
     999900   -1    0    0    0    0 -0.00000000000E+00 -0.00000000000E+00 -0.74505805969E-08  0.93827000000E+00  0.93827000000E+00 0. -1.
     999902    2    1    2    0    0 -0.37773024237E-02 -0.21384082705E-01  0.10462740688E-01  0.10198257276E+01  0.10195408274E+01 0.  0.
     999903    2    3    3    0    0  0.37424513281E-01 -0.12225362790E+00 -0.28463129108E-01  0.13225179932E+00  0.18271425142E-01 0.  0.
         14    1    1    2    0    0  0.37773024237E-02  0.21384082705E-01 -0.10462740688E-01  0.24104272431E-01  0.00000000000E+00 0. -1.
     999901    1    3    3    0    0 -0.41201815705E-01  0.10086954519E+00  0.38925869796E-01  0.88757392825E+00  0.88000000000E+00 0.  1.
        -11    1    4    4    0    0  0.19449195248E-02 -0.33602043998E-01 -0.71555299414E-02  0.34414281956E-01  0.51100000000E-03 0.  1.
         11    1    4    4    0    0  0.35479593757E-01 -0.88651583899E-01 -0.21307599167E-01  0.97837517366E-01  0.51100000000E-03 0. -1.
</event>
<event>
 8    1  0.1128298E+005  0.1043930E+01  0.7957747E-01            NaN
         13   -1    0    0    0    0  0.00000000000E+00  0.00000000000E+00  0.74505805969E-08  0.10566000000E+00  0.10566000000E+00 0. -1.
     999900   -1    0    0    0    0 -0.00000000000E+00 -0.00000000000E+00 -0.74505805969E-08  0.93827000000E+00  0.93827000000E+00 0.  1.
     999902    2    1    2    0    0 -0.22928656614E-01  0.86839347705E-03 -0.51249861492E-02  0.10204195154E+01  0.10201486385E+01 0.  0.
     999903    2    3    3    0    0  0.48587999368E-01 -0.81754970417E-01 -0.86425156650E-01  0.12994157070E+00  0.19257082414E-01 0.  0.
         14    1    1    2    0    0  0.22928656614E-01 -0.86839347705E-03  0.51249861492E-02  0.23510484563E-01  0.00000000000E+00 0. -1.
     999901    1    3    3    0    0 -0.71516655981E-01  0.82623363894E-01  0.81300170501E-01  0.89047794474E+00  0.88000000000E+00 0. -1.
        -11    1    4    4    0    0  0.35250949687E-01 -0.41286214283E-01 -0.51747191667E-01  0.75001426053E-01  0.51100000000E-03 0.  1.
         11    1    4    4    0    0  0.13337049681E-01 -0.40468756134E-01 -0.34677964983E-01  0.54940144645E-01  0.51100000000E-03 0. -1.
</event>
<event>
 8    1  0.1128298E+005  0.1043930E+01  0.7957747E-01            NaN
         13   -1    0    0    0    0  0.00000000000E+00  0.00000000000E+00  0.74505805969E-08  0.10566000000E+00  0.10566000000E+00 0.  1.
     999900   -1    0    0    0    0 -0.00000000000E+00 -0.00000000000E+00 -0.74505805969E-08  0.93827000000E+00  0.93827000000E+00 0. -1.
     999902    2    1    2    0    0  0.11708668827E-01 -0.19511197115E-01 -0.31429295174E-02  0.10209591980E+01  0.10207007525E+01 0.  0.
     999903    2    3    3    0    0  0.86170648115E-01 -0.74627325755E-01 -0.67769691018E-01  0.13373938741E+00  0.17287983667E-01 0.  0.
         14    1    1    2    0    0 -0.11708668827E-01  0.19511197115E-01  0.31429295174E-02  0.22970801999E-01  0.00000000000E+00 0.  1.
     999901    1    3    3    0    0 -0.74461979288E-01  0.55116128640E-01  0.64626761500E-01  0.88721981059E+00  0.88000000000E+00 0.  1.
        -11    1    4    4    0    0  0.33671674394E-01 -0.19534789919E-01 -0.18708111851E-01  0.43193104122E-01  0.51100000000E-03 0. -1.
         11    1    4    4    0    0  0.52498973721E-01 -0.55092535836E-01 -0.49061579167E-01  0.90546283292E-01  0.51100000000E-03 0.  1.
</event>
<event>
 8    1  0.1128298E+005  0.1043930E+01  0.7957747E-01            NaN
         13   -1    0    0    0    0  0.00000000000E+00  0.00000000000E+00  0.74505805969E-08  0.10566000000E+00  0.10566000000E+00 0. -1.
     999900   -1    0    0    0    0 -0.00000000000E+00 -0.00000000000E+00 -0.74505805969E-08  0.93827000000E+00  0.93827000000E+00 0. -1.
     999902    2    1    2    0    0  0.22884285634E-02 -0.93001040561E-02 -0.23882694100E-01  0.10181984645E+01  0.10178732737E+01 0.  0.
     999903    2    3    3    0    0  0.93518736459E-01  0.49056239342E-01 -0.73364160220E-01  0.13017996956E+00  0.20304082922E-01 0.  0.
         14    1    1    2    0    0 -0.22884285634E-02  0.93001040561E-02  0.23882694100E-01  0.25731535482E-01  0.00000000000E+00 0. -1.
     999901    1    3    3    0    0 -0.91230307896E-01 -0.58356343398E-01  0.49481466120E-01  0.88801849496E+00  0.88000000000E+00 0.  1.
        -11    1    4    4    0    0  0.12230451448E-01  0.12856600606E-01 -0.66255661699E-02  0.18948228673E-01  0.51100000000E-03 0.  1.
         11    1    4    4    0    0  0.81288285011E-01  0.36199638736E-01 -0.66738594050E-01  0.11123174089E+00  0.51100000000E-03 0. -1.
</event>
<event>
 8    1  0.1128298E+005  0.1043930E+01  0.7957747E-01            NaN
         13   -1    0    0    0    0  0.00000000000E+00  0.00000000000E+00  0.74505805969E-08  0.10566000000E+00  0.10566000000E+00 0. -1.
     999900   -1    0    0    0    0 -0.00000000000E+00 -0.00000000000E+00 -0.74505805969E-08  0.93827000000E+00  0.93827000000E+00 0. -1.
     999902    2    1    2    0    0  0.75619747922E-02  0.21188727387E-01  0.88906627169E-02  0.10197393093E+01  0.10194523380E+01 0.  0.
     999903    2    3    3    0    0 -0.71210586203E-01  0.40457765595E-01 -0.98010731173E-01  0.12956835935E+00  0.21773330796E-01 0.  0.
         14    1    1    2    0    0 -0.75619747922E-02 -0.21188727387E-01 -0.88906627169E-02  0.24190690660E-01  0.00000000000E+00 0.  1.
     999901    1    3    3    0    0  0.78772560995E-01 -0.19269038208E-01  0.10690139389E+00  0.89017094999E+00  0.88000000000E+00 0.  1.
        -11    1    4    4    0    0 -0.23326968947E-01  0.29625626797E-02 -0.33231517550E-01  0.40712641005E-01  0.51100000000E-03 0. -1.
         11    1    4    4    0    0 -0.47883617256E-01  0.37495202916E-01 -0.64779213623E-01  0.88855718340E-01  0.51100000000E-03 0.  1.
</event>
<event>
 8    1  0.1128298E+005  0.1043930E+01  0.7957747E-01            NaN
         13   -1    0    0    0    0  0.00000000000E+00  0.00000000000E+00  0.74505805969E-08  0.10566000000E+00  0.10566000000E+00 0. -1.
     999900   -1    0    0    0    0 -0.00000000000E+00 -0.00000000000E+00 -0.74505805969E-08  0.93827000000E+00  0.93827000000E+00 0. -1.
     999902    2    1    2    0    0 -0.41261954019E-02  0.11920751897E-01  0.20871787368E-01  0.10195422711E+01  0.10192505488E+01 0.  0.
     999903    2    3    3    0    0 -0.79627354083E-01 -0.48591239241E-01  0.91170899629E-01  0.13145213420E+00  0.16306642705E-01 0.  0.
         14    1    1    2    0    0  0.41261954019E-02 -0.11920751897E-01 -0.20871787368E-01  0.24387728927E-01  0.00000000000E+00 0.  1.
     999901    1    3    3    0    0  0.75501158681E-01  0.60511991139E-01 -0.70299112261E-01  0.88809013688E+00  0.88000000000E+00 0. -1.
        -11    1    4    4    0    0 -0.49740361832E-01 -0.20976422405E-01  0.53223446863E-01  0.75809697988E-01  0.51100000000E-03 0. -1.
         11    1    4    4    0    0 -0.29886992251E-01 -0.27614816837E-01  0.37947452766E-01  0.55642436208E-01  0.51100000000E-03 0.  1.
</event>
<event>
 8    1  0.1128298E+005  0.1043930E+01  0.7957747E-01            NaN
         13   -1    0    0    0    0  0.00000000000E+00  0.00000000000E+00  0.74505805969E-08  0.10566000000E+00  0.10566000000E+00 0. -1.
     999900   -1    0    0    0    0 -0.00000000000E+00 -0.00000000000E+00 -0.74505805969E-08  0.93827000000E+00  0.93827000000E+00 0. -1.
     999902    2    1    2    0    0 -0.20730116822E-01  0.97263142861E-02 -0.45546129700E-02  0.10205829781E+01  0.10203158980E+01 0.  0.
     999903    2    3    3    0    0  0.52881485771E-01  0.10058241197E+00 -0.62108688112E-01  0.13098420893E+00  0.19649445639E-01 0.  0.
         14    1    1    2    0    0  0.20730116822E-01 -0.97263142861E-02  0.45546129700E-02  0.23347021916E-01  0.00000000000E+00 0.  1.
     999901    1    3    3    0    0 -0.73611602593E-01 -0.90856097683E-01  0.57554075142E-01  0.88959876916E+00  0.88000000000E+00 0.  1.
        -11    1    4    4    0    0  0.14268102475E-01  0.39000365207E-01 -0.14044385284E-01  0.43841910469E-01  0.51100000000E-03 0.  1.
         11    1    4    4    0    0  0.38613383296E-01  0.61582046762E-01 -0.48064302828E-01  0.87142298457E-01  0.51100000000E-03 0. -1.
</event>
<event>
 8    1  0.1128298E+005  0.1043930E+01  0.7957747E-01            NaN
         13   -1    0    0    0    0  0.00000000000E+00  0.00000000000E+00  0.74505805969E-08  0.10566000000E+00  0.10566000000E+00 0. -1.
     999900   -1    0    0    0    0 -0.00000000000E+00 -0.00000000000E+00 -0.74505805969E-08  0.93827000000E+00  0.93827000000E+00 0. -1.
     999902    2    1    2    0    0 -0.13775196692E-01 -0.12145371428E-01 -0.16330274545E-01  0.10193547287E+01  0.10190584473E+01 0.  0.
     999903    2    3    3    0    0  0.48779839536E-01  0.19817662989E-01  0.11377903626E+00  0.12701891701E+00  0.20394206897E-01 0.  0.
         14    1    1    2    0    0  0.13775196692E-01  0.12145371428E-01  0.16330274545E-01  0.24575271265E-01  0.00000000000E+00 0.  1.
     999901    1    3    3    0    0 -0.62555036228E-01 -0.31963034417E-01 -0.13010931080E+00  0.89233581172E+00  0.88000000000E+00 0. -1.
        -11    1    4    4    0    0  0.11282769023E-01  0.13031944836E-01  0.24641993437E-01  0.30076925118E-01  0.51100000000E-03 0.  1.
         11    1    4    4    0    0  0.37497070513E-01  0.67857181526E-02  0.89137042822E-01  0.96941991892E-01  0.51100000000E-03 0. -1.
</event>
<event>
 8    1  0.1128298E+005  0.1043930E+01  0.7957747E-01            NaN
         13   -1    0    0    0    0  0.00000000000E+00  0.00000000000E+00  0.74505805969E-08  0.10566000000E+00  0.10566000000E+00 0.  1.
     999900   -1    0    0    0    0 -0.00000000000E+00 -0.00000000000E+00 -0.74505805969E-08  0.93827000000E+00  0.93827000000E+00 0. -1.
     999902    2    1    2    0    0 -0.14848944884E-01  0.21864007750E-01  0.16644813089E-02  0.10174479967E+01  0.10171033033E+01 0.  0.
     999903    2    3    3    0    0  0.17432354245E-01  0.40714733176E-01  0.11934118551E+00  0.12882814616E+00  0.19819087064E-01 0.  0.
         14    1    1    2    0    0  0.14848944884E-01 -0.21864007750E-01 -0.16644813089E-02  0.26482003268E-01  0.00000000000E+00 0. -1.
     999901    1    3    3    0    0 -0.32281299129E-01 -0.18850725427E-01 -0.11767670420E+00  0.88861985057E+00  0.88000000000E+00 0. -1.
        -11    1    4    4    0    0  0.13078386895E-01  0.24475383782E-01  0.96813905268E-01  0.10071386195E+00  0.51100000000E-03 0.  1.
         11    1    4    4    0    0  0.43539673495E-02  0.16239349394E-01  0.22527280240E-01  0.28114284206E-01  0.51100000000E-03 0. -1.
</event>
<event>
 8    1  0.1128298E+005  0.1043930E+01  0.7957747E-01            NaN
         13   -1    0    0    0    0  0.00000000000E+00  0.00000000000E+00  0.74505805969E-08  0.10566000000E+00  0.10566000000E+00 0. -1.
     999900   -1    0    0    0    0 -0.00000000000E+00 -0.00000000000E+00 -0.74505805969E-08  0.93827000000E+00  0.93827000000E+00 0. -1.
     999902    2    1    2    0    0  0.10898104753E-02  0.22846664133E-01  0.39269712457E-02  0.10207226983E+01  0.10204588419E+01 0.  0.
     999903    2    3    3    0    0  0.89123382991E-01  0.20984001736E-03 -0.93394374533E-01  0.13070372096E+00  0.20443386428E-01 0.  0.
         14    1    1    2    0    0 -0.10898104753E-02 -0.22846664133E-01 -0.39269712457E-02  0.23207301696E-01  0.00000000000E+00 0.  1.
     999901    1    3    3    0    0 -0.88033572515E-01  0.22636824115E-01  0.97321345779E-01  0.89001897735E+00  0.88000000000E+00 0. -1.
        -11    1    4    4    0    0  0.23421394487E-01  0.76441273683E-02 -0.32719308350E-01  0.40961062765E-01  0.51100000000E-03 0. -1.
         11    1    4    4    0    0  0.65701988504E-01 -0.74342873510E-02 -0.60675066183E-01  0.89742658190E-01  0.51100000000E-03 0.  1.
</event>
<event>
 8    1  0.1128298E+005  0.1043930E+01  0.7957747E-01            NaN
         13   -1    0    0    0    0  0.00000000000E+00  0.00000000000E+00  0.74505805969E-08  0.10566000000E+00  0.10566000000E+00 0.  1.
     999900   -1    0    0    0    0 -0.00000000000E+00 -0.00000000000E+00 -0.74505805969E-08  0.93827000000E+00  0.93827000000E+00 0.  1.
     999902    2    1    2    0    0  0.27310278401E-02 -0.17806493758E-01 -0.13295945586E-01  0.10215400044E+01  0.10212946043E+01 0.  0.
     999903    2    3    3    0    0  0.88902077578E-01 -0.69991259753E-01  0.65568242082E-01  0.13228848786E+00  0.19967318553E-01 0.  0.
         14    1    1    2    0    0 -0.27310278401E-02  0.17806493758E-01  0.13295945586E-01  0.22389995579E-01  0.00000000000E+00 0. -1.
     999901    1    3    3    0    0 -0.86171049738E-01  0.52184765996E-01 -0.78864187668E-01  0.88925151656E+00  0.88000000000E+00 0.  1.
        -11    1    4    4    0    0  0.39599347136E-01 -0.20477890893E-01  0.31213570130E-01  0.54424262883E-01  0.51100000000E-03 0.  1.
         11    1    4    4    0    0  0.49302730442E-01 -0.49513368861E-01  0.34354671952E-01  0.77864224974E-01  0.51100000000E-03 0. -1.
</event>
<event>
 8    1  0.1128298E+005  0.1043930E+01  0.7957747E-01            NaN
         13   -1    0    0    0    0  0.00000000000E+00  0.00000000000E+00  0.74505805969E-08  0.10566000000E+00  0.10566000000E+00 0.  1.
     999900   -1    0    0    0    0 -0.00000000000E+00 -0.00000000000E+00 -0.74505805969E-08  0.93827000000E+00  0.93827000000E+00 0.  1.
     999902    2    1    2    0    0 -0.54886976382E-02  0.13661952701E-01  0.12185436146E-01  0.10248182338E+01  0.10246400113E+01 0.  0.
     999903    2    3    3    0    0  0.24415023815E-01  0.11002534594E+00 -0.71870967452E-01  0.13507354283E+00  0.19435942821E-01 0.  0.
         14    1    1    2    0    0  0.54886976382E-02 -0.13661952701E-01 -0.12185436146E-01  0.19111766204E-01  0.00000000000E+00 0. -1.
     999901    1    3    3    0    0 -0.29903721453E-01 -0.96363393240E-01  0.84056403598E-01  0.88974469096E+00  0.88000000000E+00 0. -1.
        -11    1    4    4    0    0  0.18416020527E-01  0.43779752788E-01 -0.24782098472E-01  0.53574528388E-01  0.51100000000E-03 0. -1.
         11    1    4    4    0    0  0.59990032877E-02  0.66245593152E-01 -0.47088868980E-01  0.81499014444E-01  0.51100000000E-03 0.  1.
</event>
<event>
 8    1  0.1128298E+005  0.1043930E+01  0.7957747E-01            NaN
         13   -1    0    0    0    0  0.00000000000E+00  0.00000000000E+00  0.74505805969E-08  0.10566000000E+00  0.10566000000E+00 0. -1.
     999900   -1    0    0    0    0 -0.00000000000E+00 -0.00000000000E+00 -0.74505805969E-08  0.93827000000E+00  0.93827000000E+00 0. -1.
     999902    2    1    2    0    0  0.14405696932E-01  0.18692706033E-01 -0.72267638864E-03  0.10203193324E+01  0.10200461149E+01 0.  0.
     999903    2    3    3    0    0  0.63722425940E-01  0.11045480028E+00 -0.34370623135E-01  0.13353604094E+00  0.19741429124E-01 0.  0.
         14    1    1    2    0    0 -0.14405696932E-01 -0.18692706033E-01  0.72267638864E-03  0.23610667591E-01  0.00000000000E+00 0. -1.
     999901    1    3    3    0    0 -0.49316729008E-01 -0.91762094246E-01  0.33647946746E-01  0.88678329146E+00  0.88000000000E+00 0. -1.
        -11    1    4    4    0    0  0.34338270976E-01  0.57644789762E-01 -0.28203531914E-01  0.72785568444E-01  0.51100000000E-03 0.  1.
         11    1    4    4    0    0  0.29384154965E-01  0.52810010517E-01 -0.61670912202E-02  0.60750472500E-01  0.51100000000E-03 0. -1.
</event>
<event>
 8    1  0.1128298E+005  0.1043930E+01  0.7957747E-01            NaN
         13   -1    0    0    0    0  0.00000000000E+00  0.00000000000E+00  0.74505805969E-08  0.10566000000E+00  0.10566000000E+00 0.  1.
     999900   -1    0    0    0    0 -0.00000000000E+00 -0.00000000000E+00 -0.74505805969E-08  0.93827000000E+00  0.93827000000E+00 0.  1.
     999902    2    1    2    0    0 -0.17055545304E-01  0.15008405454E-01  0.53539651220E-02  0.10205888603E+01  0.10203219163E+01 0.  0.
     999903    2    3    3    0    0  0.85020861855E-01  0.94233702823E-01  0.25411268255E-01  0.13092682557E+00  0.19686629986E-01 0.  0.
         14    1    1    2    0    0  0.17055545304E-01 -0.15008405454E-01 -0.53539651220E-02  0.23341139698E-01  0.00000000000E+00 0. -1.
     999901    1    3    3    0    0 -0.10207640716E+00 -0.79225297369E-01 -0.20057303132E-01  0.88966203474E+00  0.88000000000E+00 0.  1.
        -11    1    4    4    0    0  0.54765130818E-02  0.14935033456E-01  0.56040224809E-02  0.16873458710E-01  0.51100000000E-03 0. -1.
         11    1    4    4    0    0  0.79544348773E-01  0.79298669367E-01  0.19807245774E-01  0.11405336686E+00  0.51100000000E-03 0.  1.
</event>
<event>
 8    1  0.1128298E+005  0.1043930E+01  0.7957747E-01            NaN
         13   -1    0    0    0    0  0.00000000000E+00  0.00000000000E+00  0.74505805969E-08  0.10566000000E+00  0.10566000000E+00 0. -1.
     999900   -1    0    0    0    0 -0.00000000000E+00 -0.00000000000E+00 -0.74505805969E-08  0.93827000000E+00  0.93827000000E+00 0. -1.
     999902    2    1    2    0    0 -0.98845415290E-02 -0.21729625260E-01 -0.22496330838E-02  0.10199520596E+01  0.10196701733E+01 0.  0.
     999903    2    3    3    0    0 -0.96200543034E-01 -0.32972945071E-01  0.81171571193E-01  0.13173138791E+00  0.20556629194E-01 0.  0.
         14    1    1    2    0    0  0.98845415290E-02  0.21729625260E-01  0.22496330838E-02  0.23977940366E-01  0.00000000000E+00 0. -1.
     999901    1    3    3    0    0  0.86316001505E-01  0.11243319811E-01 -0.83421204277E-01  0.88822067172E+00  0.88000000000E+00 0.  1.
        -11    1    4    4    0    0 -0.24782815148E-01 -0.66228737371E-03  0.25619347691E-01  0.35654433782E-01  0.51100000000E-03 0. -1.
         11    1    4    4    0    0 -0.71417727887E-01 -0.32310657698E-01  0.55552223501E-01  0.96076954127E-01  0.51100000000E-03 0.  1.
</event>
<event>
 8    1  0.1204913E+005  0.1043930E+01  0.7957747E-01            NaN
         13   -1    0    0    0    0  0.00000000000E+00  0.00000000000E+00  0.74505805969E-08  0.10566000000E+00  0.10566000000E+00 0.  1.
     999900   -1    0    0    0    0 -0.00000000000E+00 -0.00000000000E+00 -0.74505805969E-08  0.93827000000E+00  0.93827000000E+00 0. -1.
     999902    2    1    2    0    0  0.16026781014E-01  0.15366525550E-01  0.92180166998E-02  0.10198892086E+01  0.10196058249E+01 0.  0.
     999903    2    3    3    0    0 -0.46078709812E-01  0.93797289875E-01 -0.74719998471E-01  0.13025216626E+00  0.21479514875E-01 0.  0.
         14    1    1    2    0    0 -0.16026781014E-01 -0.15366525550E-01 -0.92180166998E-02  0.24040791356E-01  0.00000000000E+00 0. -1.
     999901    1    3    3    0    0  0.62105490826E-01 -0.78430764325E-01  0.83938015171E-01  0.88963704238E+00  0.88000000000E+00 0.  1.
        -11    1    4    4    0    0 -0.25468695744E-01  0.37747997334E-01 -0.21931022764E-01  0.50544996252E-01  0.51100000000E-03 0.  1.
         11    1    4    4    0    0 -0.20610014068E-01  0.56049292540E-01 -0.52788975707E-01  0.79707170012E-01  0.51100000000E-03 0. -1.
</event>
<event>
 8    1  0.1128298E+005  0.1043930E+01  0.7957747E-01            NaN
         13   -1    0    0    0    0  0.00000000000E+00  0.00000000000E+00  0.74505805969E-08  0.10566000000E+00  0.10566000000E+00 0.  1.
     999900   -1    0    0    0    0 -0.00000000000E+00 -0.00000000000E+00 -0.74505805969E-08  0.93827000000E+00  0.93827000000E+00 0.  1.
     999902    2    1    2    0    0  0.72400261398E-02  0.15508994295E-01 -0.15742180100E-01  0.10206756861E+01  0.10204107472E+01 0.  0.
     999903    2    3    3    0    0  0.29816993586E-01 -0.96164490511E-01 -0.80809497178E-01  0.13094851303E+00  0.21924321881E-01 0.  0.
         14    1    1    2    0    0 -0.72400261398E-02 -0.15508994295E-01  0.15742180100E-01  0.23254313940E-01  0.00000000000E+00 0. -1.
     999901    1    3    3    0    0 -0.22576967446E-01  0.11167348481E+00  0.65067317079E-01  0.88972717303E+00  0.88000000000E+00 0. -1.
        -11    1    4    4    0    0  0.81596021871E-02 -0.42038490734E-01 -0.22030874344E-01  0.48160506189E-01  0.51100000000E-03 0.  1.
         11    1    4    4    0    0  0.21657391399E-01 -0.54125999777E-01 -0.58778622835E-01  0.82788006845E-01  0.51100000000E-03 0. -1.
</event>
<event>
 8    1  0.1128298E+005  0.1043930E+01  0.7957747E-01            NaN
         13   -1    0    0    0    0  0.00000000000E+00  0.00000000000E+00  0.74505805969E-08  0.10566000000E+00  0.10566000000E+00 0.  1.
     999900   -1    0    0    0    0 -0.00000000000E+00 -0.00000000000E+00 -0.74505805969E-08  0.93827000000E+00  0.93827000000E+00 0. -1.
     999902    2    1    2    0    0  0.13644433929E-01 -0.60567681509E-02 -0.18156020896E-01  0.10204247641E+01  0.10201540095E+01 0.  0.
     999903    2    3    3    0    0  0.82637444333E-02  0.94023549590E-01  0.83111157408E-01  0.12896525120E+00  0.28563161284E-01 0.  0.
         14    1    1    2    0    0 -0.13644433929E-01  0.60567681509E-02  0.18156020896E-01  0.23505235852E-01  0.00000000000E+00 0.  1.
     999901    1    3    3    0    0  0.53806894957E-02 -0.10008031774E+00 -0.10126717830E+00  0.89145951295E+00  0.88000000000E+00 0.  1.
        -11    1    4    4    0    0  0.18974645425E-01  0.62123973994E-01  0.54555018449E-01  0.84828865800E-01  0.51100000000E-03 0. -1.
         11    1    4    4    0    0 -0.10710900991E-01  0.31899575596E-01  0.28556138959E-01  0.44136385404E-01  0.51100000000E-03 0.  1.
</event>
<event>
 8    1  0.1128298E+005  0.1043930E+01  0.7957747E-01            NaN
         13   -1    0    0    0    0  0.00000000000E+00  0.00000000000E+00  0.74505805969E-08  0.10566000000E+00  0.10566000000E+00 0.  1.
     999900   -1    0    0    0    0 -0.00000000000E+00 -0.00000000000E+00 -0.74505805969E-08  0.93827000000E+00  0.93827000000E+00 0.  1.
     999902    2    1    2    0    0 -0.64548755283E-02 -0.14630380367E-01 -0.16853881453E-01  0.10206971188E+01  0.10204326737E+01 0.  0.
     999903    2    3    3    0    0  0.38929337191E-02  0.30339326119E-02  0.12709046997E+00  0.12876714320E+00  0.20115415238E-01 0.  0.
         14    1    1    2    0    0  0.64548755283E-02  0.14630380367E-01  0.16853881453E-01  0.23232881177E-01  0.00000000000E+00 0.  1.
     999901    1    3    3    0    0 -0.10347809247E-01 -0.17664312979E-01 -0.14394435142E+00  0.89192997562E+00  0.88000000000E+00 0.  1.
        -11    1    4    4    0    0 -0.16071270497E-02 -0.46021666477E-02  0.99323153424E-01  0.99444018031E-01  0.51100000000E-03 0. -1.
         11    1    4    4    0    0  0.55000607688E-02  0.76360992597E-02  0.27767316548E-01  0.29323125168E-01  0.51100000000E-03 0.  1.
</event>
<event>
 8    1  0.1128298E+005  0.1043930E+01  0.7957747E-01            NaN
         13   -1    0    0    0    0  0.00000000000E+00  0.00000000000E+00  0.74505805969E-08  0.10566000000E+00  0.10566000000E+00 0. -1.
     999900   -1    0    0    0    0 -0.00000000000E+00 -0.00000000000E+00 -0.74505805969E-08  0.93827000000E+00  0.93827000000E+00 0. -1.
     999902    2    1    2    0    0 -0.20403309677E-01  0.12046509608E-01 -0.20791605271E-02  0.10201447872E+01  0.10198674671E+01 0.  0.
     999903    2    3    3    0    0  0.12046378487E+00  0.11462842253E-01 -0.37637747215E-01  0.12823207169E+00  0.19594488442E-01 0.  0.
         14    1    1    2    0    0  0.20403309677E-01 -0.12046509608E-01  0.20791605271E-02  0.23785212802E-01  0.00000000000E+00 0.  1.
     999901    1    3    3    0    0 -0.14086709455E+00  0.58366735521E-03  0.35558586688E-01  0.89191271551E+00  0.88000000000E+00 0.  1.
        -11    1    4    4    0    0  0.35024356353E-01 -0.29726499903E-02 -0.17509250584E-01  0.39273109921E-01  0.51100000000E-03 0.  1.
         11    1    4    4    0    0  0.85439428518E-01  0.14435492244E-01 -0.20128496630E-01  0.88958961771E-01  0.51100000000E-03 0. -1.
</event>
<event>
 8    1  0.1302164E+005  0.1043930E+01  0.7957747E-01            NaN
         13   -1    0    0    0    0  0.00000000000E+00  0.00000000000E+00  0.74505805969E-08  0.10566000000E+00  0.10566000000E+00 0. -1.
     999900   -1    0    0    0    0 -0.00000000000E+00 -0.00000000000E+00 -0.74505805969E-08  0.93827000000E+00  0.93827000000E+00 0. -1.
     999902    2    1    2    0    0 -0.75560545962E-02 -0.24403863358E-01 -0.20409807780E-02  0.10183017322E+01  0.10179791794E+01 0.  0.
     999903    2    3    3    0    0  0.77545018529E-01  0.12514824915E-02 -0.10033438595E+00  0.12837927327E+00  0.19986312632E-01 0.  0.
         14    1    1    2    0    0  0.75560545962E-02  0.24403863358E-01  0.20409807780E-02  0.25628267799E-01  0.00000000000E+00 0. -1.
     999901    1    3    3    0    0 -0.85101073125E-01 -0.25655345849E-01  0.98293405174E-01  0.88992245894E+00  0.88000000000E+00 0. -1.
        -11    1    4    4    0    0  0.18744207494E-01 -0.39832762579E-02 -0.37786654518E-01  0.42371030020E-01  0.51100000000E-03 0.  1.
         11    1    4    4    0    0  0.58800811035E-01  0.52347587494E-02 -0.62547731434E-01  0.86008243245E-01  0.51100000000E-03 0. -1.
</event>
<event>
 8    1  0.1128298E+005  0.1043930E+01  0.7957747E-01            NaN
         13   -1    0    0    0    0  0.00000000000E+00  0.00000000000E+00  0.74505805969E-08  0.10566000000E+00  0.10566000000E+00 0. -1.
     999900   -1    0    0    0    0 -0.00000000000E+00 -0.00000000000E+00 -0.74505805969E-08  0.93827000000E+00  0.93827000000E+00 0.  1.
     999902    2    1    2    0    0 -0.15000106238E-02  0.14877610210E-01 -0.18542576412E-01  0.10201094111E+01  0.10198312557E+01 0.  0.
     999903    2    3    3    0    0  0.41429195449E-01 -0.38064097889E-01  0.11280632834E+00  0.12775394603E+00  0.20749680239E-01 0.  0.
         14    1    1    2    0    0  0.15000106238E-02 -0.14877610210E-01  0.18542576412E-01  0.23820588940E-01  0.00000000000E+00 0. -1.
     999901    1    3    3    0    0 -0.42929206073E-01  0.52941708099E-01 -0.13134890475E+00  0.89235546503E+00  0.88000000000E+00 0.  1.
        -11    1    4    4    0    0  0.11253144980E-02 -0.80187273074E-03  0.19077388302E-01  0.19134189243E-01  0.51100000000E-03 0.  1.
         11    1    4    4    0    0  0.40303880951E-01 -0.37262225158E-01  0.93728940034E-01  0.10861975679E+00  0.51100000000E-03 0. -1.
</event>
<event>
 8    1  0.1128298E+005  0.1043930E+01  0.7957747E-01            NaN
         13   -1    0    0    0    0  0.00000000000E+00  0.00000000000E+00  0.74505805969E-08  0.10566000000E+00  0.10566000000E+00 0.  1.
     999900   -1    0    0    0    0 -0.00000000000E+00 -0.00000000000E+00 -0.74505805969E-08  0.93827000000E+00  0.93827000000E+00 0.  1.
     999902    2    1    2    0    0  0.68897828343E-02  0.13338802804E-02  0.21961438242E-01  0.10208745643E+01  0.10206141891E+01 0.  0.
     999903    2    3    3    0    0 -0.11241808593E+00  0.58555220107E-01 -0.20496657476E-01  0.12996977752E+00  0.20136788606E-01 0.  0.
         14    1    1    2    0    0 -0.68897828343E-02 -0.13338802804E-02 -0.21961438242E-01  0.23055435666E-01  0.00000000000E+00 0. -1.
     999901    1    3    3    0    0  0.11930786876E+00 -0.57221339826E-01  0.42458095718E-01  0.89090478682E+00  0.88000000000E+00 0. -1.
        -11    1    4    4    0    0 -0.39205161062E-01  0.31454328103E-01 -0.87267611486E-02  0.51018005561E-01  0.51100000000E-03 0. -1.
         11    1    4    4    0    0 -0.73212924864E-01  0.27100892004E-01 -0.11769896327E-01  0.78951771956E-01  0.51100000000E-03 0.  1.
</event>
<event>
 8    1  0.1128298E+005  0.1043930E+01  0.7957747E-01            NaN
         13   -1    0    0    0    0  0.00000000000E+00  0.00000000000E+00  0.74505805969E-08  0.10566000000E+00  0.10566000000E+00 0. -1.
     999900   -1    0    0    0    0 -0.00000000000E+00 -0.00000000000E+00 -0.74505805969E-08  0.93827000000E+00  0.93827000000E+00 0. -1.
     999902    2    1    2    0    0  0.14565122615E-01 -0.52437929005E-02  0.18354091125E-01  0.10199193186E+01  0.10196366527E+01 0.  0.
     999903    2    3    3    0    0 -0.71561013990E-01  0.19660838752E-01  0.10645323684E+00  0.13098770617E+00  0.17831439404E-01 0.  0.
         14    1    1    2    0    0 -0.14565122615E-01  0.52437929005E-02 -0.18354091125E-01  0.24010681410E-01  0.00000000000E+00 0.  1.
     999901    1    3    3    0    0  0.86126136605E-01 -0.24904631652E-01 -0.88099145710E-01  0.88893161242E+00  0.88000000000E+00 0. -1.
        -11    1    4    4    0    0 -0.11303482438E-01 -0.20262672255E-02  0.23759626383E-01  0.26394231206E-01  0.51100000000E-03 0.  1.
         11    1    4    4    0    0 -0.60257531552E-01  0.21687105977E-01  0.82693610453E-01  0.10459347496E+00  0.51100000000E-03 0. -1.
</event>
<event>
 8    1  0.1128298E+005  0.1043930E+01  0.7957747E-01            NaN
         13   -1    0    0    0    0  0.00000000000E+00  0.00000000000E+00  0.74505805969E-08  0.10566000000E+00  0.10566000000E+00 0. -1.
     999900   -1    0    0    0    0 -0.00000000000E+00 -0.00000000000E+00 -0.74505805969E-08  0.93827000000E+00  0.93827000000E+00 0.  1.
     999902    2    1    2    0    0  0.17794947168E-01 -0.12260554725E-01  0.66166070721E-02  0.10213299815E+01  0.10210799040E+01 0.  0.
     999903    2    3    3    0    0 -0.10360220814E+00  0.73277810487E-01 -0.91868327359E-02  0.12874730749E+00  0.19708278661E-01 0.  0.
         14    1    1    2    0    0 -0.17794947168E-01  0.12260554725E-01 -0.66166070721E-02  0.22600018497E-01  0.00000000000E+00 0.  1.
     999901    1    3    3    0    0  0.12139715531E+00 -0.85538365213E-01  0.15803439808E-01  0.89258267401E+00  0.88000000000E+00 0. -1.
        -11    1    4    4    0    0 -0.15324628985E-01  0.51657243046E-02 -0.58224610620E-02  0.17195671982E-01  0.51100000000E-03 0.  1.
         11    1    4    4    0    0 -0.88277579160E-01  0.68112086183E-01 -0.33643716739E-02  0.11155163551E+00  0.51100000000E-03 0. -1.
</event>
<event>
 8    1  0.1128298E+005  0.1043930E+01  0.7957747E-01            NaN
         13   -1    0    0    0    0  0.00000000000E+00  0.00000000000E+00  0.74505805969E-08  0.10566000000E+00  0.10566000000E+00 0.  1.
     999900   -1    0    0    0    0 -0.00000000000E+00 -0.00000000000E+00 -0.74505805969E-08  0.93827000000E+00  0.93827000000E+00 0. -1.
     999902    2    1    2    0    0  0.16011224916E-01 -0.14676502306E-02 -0.17391457199E-01  0.10202450659E+01  0.10199701066E+01 0.  0.
     999903    2    3    3    0    0  0.45583284908E-01 -0.10080458849E+00  0.65552623856E-01  0.13028885650E+00  0.20943703390E-01 0.  0.
         14    1    1    2    0    0 -0.16011224916E-01  0.14676502306E-02  0.17391457199E-01  0.23684934115E-01  0.00000000000E+00 0.  1.
     999901    1    3    3    0    0 -0.29572059992E-01  0.99336938256E-01 -0.82944081055E-01  0.88995620938E+00  0.88000000000E+00 0. -1.
        -11    1    4    4    0    0  0.43000112488E-01 -0.84060348960E-01  0.48127265356E-01  0.10597946373E+00  0.51100000000E-03 0.  1.
         11    1    4    4    0    0  0.25831724198E-02 -0.16744239526E-01  0.17425358500E-01  0.24309392772E-01  0.51100000000E-03 0. -1.
</event>
<event>
 8    1  0.1128298E+005  0.1043930E+01  0.7957747E-01            NaN
         13   -1    0    0    0    0  0.00000000000E+00  0.00000000000E+00  0.74505805969E-08  0.10566000000E+00  0.10566000000E+00 0. -1.
     999900   -1    0    0    0    0 -0.00000000000E+00 -0.00000000000E+00 -0.74505805969E-08  0.93827000000E+00  0.93827000000E+00 0.  1.
     999902    2    1    2    0    0  0.23160820208E-02 -0.26530015050E-01 -0.69190776898E-02  0.10164149210E+01  0.10160424263E+01 0.  0.
     999903    2    3    3    0    0 -0.11404728149E+00 -0.25817650483E-01  0.45881611475E-01  0.12718556220E+00  0.19942704685E-01 0.  0.
         14    1    1    2    0    0 -0.23160820208E-02  0.26530015050E-01  0.69190776898E-02  0.27515078967E-01  0.00000000000E+00 0. -1.
     999901    1    3    3    0    0  0.11636336351E+00 -0.71236456677E-03 -0.52800689165E-01  0.88922935883E+00  0.88000000000E+00 0. -1.
        -11    1    4    4    0    0 -0.18839767283E-01  0.26852969479E-02  0.47091380970E-02  0.19610832557E-01  0.51100000000E-03 0. -1.
         11    1    4    4    0    0 -0.95207514205E-01 -0.28502947431E-01  0.41172473378E-01  0.10757472965E+00  0.51100000000E-03 0.  1.
</event>
<event>
 8    1  0.1128298E+005  0.1043930E+01  0.7957747E-01            NaN
         13   -1    0    0    0    0  0.00000000000E+00  0.00000000000E+00  0.74505805969E-08  0.10566000000E+00  0.10566000000E+00 0. -1.
     999900   -1    0    0    0    0 -0.00000000000E+00 -0.00000000000E+00 -0.74505805969E-08  0.93827000000E+00  0.93827000000E+00 0.  1.
     999902    2    1    2    0    0  0.30867754101E-02 -0.71102120001E-02 -0.21635851912E-01  0.10209475418E+01  0.10206888310E+01 0.  0.
     999903    2    3    3    0    0 -0.12410808999E+00 -0.20352048042E-01  0.27842667537E-01  0.13032865367E+00  0.19832296136E-01 0.  0.
         14    1    1    2    0    0 -0.30867754101E-02  0.71102120001E-02  0.21635851912E-01  0.22982458204E-01  0.00000000000E+00 0. -1.
     999901    1    3    3    0    0  0.12719486540E+00  0.13241836042E-01 -0.49478519449E-01  0.89061888813E+00  0.88000000000E+00 0.  1.
        -11    1    4    4    0    0 -0.68886995235E-01 -0.13662156310E-01  0.25281932676E-01  0.74642547306E-01  0.51100000000E-03 0.  1.
         11    1    4    4    0    0 -0.55221094757E-01 -0.66898917319E-02  0.25607348606E-02  0.55686106360E-01  0.51100000000E-03 0. -1.
</event>
<event>
 8    1  0.1128298E+005  0.1043930E+01  0.7957747E-01            NaN
         13   -1    0    0    0    0  0.00000000000E+00  0.00000000000E+00  0.74505805969E-08  0.10566000000E+00  0.10566000000E+00 0.  1.
     999900   -1    0    0    0    0 -0.00000000000E+00 -0.00000000000E+00 -0.74505805969E-08  0.93827000000E+00  0.93827000000E+00 0. -1.
     999902    2    1    2    0    0  0.53202626677E-02 -0.26790627665E-01 -0.60395889431E-02  0.10159564489E+01  0.10155712612E+01 0.  0.
     999903    2    3    3    0    0 -0.11858648210E+00  0.34873071313E-01 -0.20652476324E-02  0.12513037804E+00  0.19351005705E-01 0.  0.
         14    1    1    2    0    0 -0.53202626677E-02  0.26790627665E-01  0.60395889431E-02  0.27973551082E-01  0.00000000000E+00 0.  1.
     999901    1    3    3    0    0  0.12390674476E+00 -0.61663698978E-01 -0.39743413107E-02  0.89082607088E+00  0.88000000000E+00 0.  1.
        -11    1    4    4    0    0 -0.81228021616E-01  0.29401635020E-01 -0.85801451515E-02  0.86812024797E-01  0.51100000000E-03 0.  1.
         11    1    4    4    0    0 -0.37358460479E-01  0.54714362929E-02  0.65148975191E-02  0.38318353242E-01  0.51100000000E-03 0. -1.
</event>
<event>
 8    1  0.1128298E+005  0.1043930E+01  0.7957747E-01            NaN
         13   -1    0    0    0    0  0.00000000000E+00  0.00000000000E+00  0.74505805969E-08  0.10566000000E+00  0.10566000000E+00 0. -1.
     999900   -1    0    0    0    0 -0.00000000000E+00 -0.00000000000E+00 -0.74505805969E-08  0.93827000000E+00  0.93827000000E+00 0. -1.
     999902    2    1    2    0    0 -0.11933688909E-01 -0.20371982978E-01  0.18048466800E-02  0.10202511467E+01  0.10199763303E+01 0.  0.
     999903    2    3    3    0    0  0.72687283153E-02 -0.13104656472E+00  0.13562351570E-01  0.13303311557E+00  0.16965727851E-01 0.  0.
         14    1    1    2    0    0  0.11933688909E-01  0.20371982978E-01 -0.18048466800E-02  0.23678853287E-01  0.00000000000E+00 0. -1.
     999901    1    3    3    0    0 -0.19202417224E-01  0.11067458174E+00 -0.11757504890E-01  0.88721803115E+00  0.88000000000E+00 0.  1.
        -11    1    4    4    0    0  0.14902747786E-02 -0.10656008572E+00  0.15938251036E-01  0.10775695688E+00  0.51100000000E-03 0.  1.
         11    1    4    4    0    0  0.57784535366E-02 -0.24486478993E-01 -0.23758994660E-02  0.25276158688E-01  0.51100000000E-03 0. -1.
</event>
<event>
 8    1  0.1128298E+005  0.1043930E+01  0.7957747E-01            NaN
         13   -1    0    0    0    0  0.00000000000E+00  0.00000000000E+00  0.74505805969E-08  0.10566000000E+00  0.10566000000E+00 0. -1.
     999900   -1    0    0    0    0 -0.00000000000E+00 -0.00000000000E+00 -0.74505805969E-08  0.93827000000E+00  0.93827000000E+00 0.  1.
     999902    2    1    2    0    0  0.18292236391E-01 -0.15015047518E-01  0.51522551051E-03  0.10202588568E+01  0.10199842214E+01 0.  0.
     999903    2    3    3    0    0 -0.42863239110E-01 -0.78410072811E-01 -0.93474874368E-01  0.13088095043E+00  0.20171124493E-01 0.  0.
         14    1    1    2    0    0 -0.18292236391E-01  0.15015047518E-01 -0.51522551051E-03  0.23671143223E-01  0.00000000000E+00 0. -1.
     999901    1    3    3    0    0  0.61155475501E-01  0.63395025293E-01  0.93990099878E-01  0.88937790634E+00  0.88000000000E+00 0. -1.
        -11    1    4    4    0    0 -0.21493864083E-01 -0.41966000893E-01 -0.34923499101E-01  0.58677451672E-01  0.51100000000E-03 0.  1.
         11    1    4    4    0    0 -0.21369375027E-01 -0.36444071918E-01 -0.58551375266E-01  0.72203498763E-01  0.51100000000E-03 0. -1.
</event>
<event>
 8    1  0.1128298E+005  0.1043930E+01  0.7957747E-01            NaN
         13   -1    0    0    0    0  0.00000000000E+00  0.00000000000E+00  0.74505805969E-08  0.10566000000E+00  0.10566000000E+00 0.  1.
     999900   -1    0    0    0    0 -0.00000000000E+00 -0.00000000000E+00 -0.74505805969E-08  0.93827000000E+00  0.93827000000E+00 0.  1.
     999902    2    1    2    0    0 -0.12877810318E-01 -0.21130497280E-01 -0.11017258811E-01  0.10168428092E+01  0.10164819638E+01 0.  0.
     999903    2    3    3    0    0  0.75519370834E-01 -0.45997203959E-01  0.88066287116E-01  0.12653389438E+00  0.20886295895E-01 0.  0.
         14    1    1    2    0    0  0.12877810318E-01  0.21130497280E-01  0.11017258811E-01  0.27087190803E-01  0.00000000000E+00 0. -1.
     999901    1    3    3    0    0 -0.88397181153E-01  0.24866706679E-01 -0.99083545927E-01  0.89030891482E+00  0.88000000000E+00 0.  1.
        -11    1    4    4    0    0  0.48571834294E-01 -0.37744471940E-01  0.69334747673E-01  0.92690002722E-01  0.51100000000E-03 0.  1.
         11    1    4    4    0    0  0.26947536540E-01 -0.82527320188E-02  0.18731539443E-01  0.33843891654E-01  0.51100000000E-03 0. -1.
</event>
<event>
 8    1  0.1128298E+005  0.1043930E+01  0.7957747E-01            NaN
         13   -1    0    0    0    0  0.00000000000E+00  0.00000000000E+00  0.74505805969E-08  0.10566000000E+00  0.10566000000E+00 0. -1.
     999900   -1    0    0    0    0 -0.00000000000E+00 -0.00000000000E+00 -0.74505805969E-08  0.93827000000E+00  0.93827000000E+00 0. -1.
     999902    2    1    2    0    0  0.81353874510E-02  0.18635875825E-01 -0.11251095867E-01  0.10206906464E+01  0.10204260523E+01 0.  0.
     999903    2    3    3    0    0 -0.12079930141E+00 -0.40795456236E-01  0.70334323932E-02  0.12912429376E+00  0.19153944692E-01 0.  0.
         14    1    1    2    0    0 -0.81353874510E-02 -0.18635875825E-01  0.11251095867E-01  0.23239353583E-01  0.00000000000E+00 0. -1.
     999901    1    3    3    0    0  0.12893468886E+00  0.59431332061E-01 -0.18284528261E-01  0.89156635266E+00  0.88000000000E+00 0. -1.
        -11    1    4    4    0    0 -0.53428383803E-01 -0.10206209171E-01 -0.28701307356E-02  0.54472540540E-01  0.51100000000E-03 0.  1.
         11    1    4    4    0    0 -0.67370917603E-01 -0.30589247065E-01  0.99035631288E-02  0.74651753217E-01  0.51100000000E-03 0. -1.
</event>
<event>
 8    1  0.1128298E+005  0.1043930E+01  0.7957747E-01            NaN
         13   -1    0    0    0    0  0.00000000000E+00  0.00000000000E+00  0.74505805969E-08  0.10566000000E+00  0.10566000000E+00 0.  1.
     999900   -1    0    0    0    0 -0.00000000000E+00 -0.00000000000E+00 -0.74505805969E-08  0.93827000000E+00  0.93827000000E+00 0. -1.
     999902    2    1    2    0    0 -0.21454171691E-01 -0.74043745460E-02  0.58779205586E-02  0.10204852523E+01  0.10202159055E+01 0.  0.
     999903    2    3    3    0    0 -0.26407885912E-01 -0.87310758754E-01  0.93560153760E-01  0.13251129797E+00  0.22027180601E-01 0.  0.
         14    1    1    2    0    0  0.21454171691E-01  0.74043745460E-02 -0.58779205586E-02  0.23444747716E-01  0.00000000000E+00 0.  1.
     999901    1    3    3    0    0  0.49537142205E-02  0.79906384209E-01 -0.87682233201E-01  0.88797395431E+00  0.88000000000E+00 0. -1.
        -11    1    4    4    0    0 -0.13340098416E-01 -0.61199807696E-01  0.75797604434E-01  0.98330629240E-01  0.51100000000E-03 0.  1.
         11    1    4    4    0    0 -0.13067787496E-01 -0.26110951058E-01  0.17762549326E-01  0.34180668729E-01  0.51100000000E-03 0. -1.
</event>
<event>
 8    1  0.1128298E+005  0.1043930E+01  0.7957747E-01            NaN
         13   -1    0    0    0    0  0.00000000000E+00  0.00000000000E+00  0.74505805969E-08  0.10566000000E+00  0.10566000000E+00 0.  1.
     999900   -1    0    0    0    0 -0.00000000000E+00 -0.00000000000E+00 -0.74505805969E-08  0.93827000000E+00  0.93827000000E+00 0. -1.
     999902    2    1    2    0    0  0.13170936083E-02  0.20645521068E-01 -0.95720113867E-02  0.10211353586E+01  0.10208809063E+01 0.  0.
     999903    2    3    3    0    0  0.23065661404E-01  0.12887098457E+00  0.18711186571E-01  0.13378779959E+00  0.20231446235E-01 0.  0.
         14    1    1    2    0    0 -0.13170936083E-02 -0.20645521068E-01  0.95720113867E-02  0.22794641425E-01  0.00000000000E+00 0.  1.
     999901    1    3    3    0    0 -0.21748567796E-01 -0.10822546350E+00 -0.28283197958E-01  0.88734755899E+00  0.88000000000E+00 0. -1.
        -11    1    4    4    0    0 -0.29213937229E-02  0.32803538568E-01  0.38132332368E-02  0.33157330299E-01  0.51100000000E-03 0. -1.
         11    1    4    4    0    0  0.25987055127E-01  0.96067445999E-01  0.14897953335E-01  0.10063046929E+00  0.51100000000E-03 0.  1.
</event>
<event>
 8    1  0.1128298E+005  0.1043930E+01  0.7957747E-01            NaN
         13   -1    0    0    0    0  0.00000000000E+00  0.00000000000E+00  0.74505805969E-08  0.10566000000E+00  0.10566000000E+00 0. -1.
     999900   -1    0    0    0    0 -0.00000000000E+00 -0.00000000000E+00 -0.74505805969E-08  0.93827000000E+00  0.93827000000E+00 0.  1.
     999902    2    1    2    0    0  0.11344536704E-01 -0.19238429547E-02 -0.20874447123E-01  0.10200942657E+01  0.10198157524E+01 0.  0.
     999903    2    3    3    0    0 -0.49457420584E-01 -0.10553182142E+00 -0.56824570574E-01  0.13120512610E+00  0.20068669885E-01 0.  0.
         14    1    1    2    0    0 -0.11344536704E-01  0.19238429547E-02  0.20874447123E-01  0.23835734254E-01  0.00000000000E+00 0. -1.
     999901    1    3    3    0    0  0.60801957289E-01  0.10360797846E+00  0.35950123451E-01  0.88888913965E+00  0.88000000000E+00 0. -1.
        -11    1    4    4    0    0 -0.46220660586E-01 -0.83772632509E-01 -0.40959249809E-01  0.10407749367E+00  0.51100000000E-03 0.  1.
         11    1    4    4    0    0 -0.32367599984E-02 -0.21759188906E-01 -0.15865320765E-01  0.27127632427E-01  0.51100000000E-03 0. -1.
</event>
<event>
 8    1  0.1128298E+005  0.1043930E+01  0.7957747E-01            NaN
         13   -1    0    0    0    0  0.00000000000E+00  0.00000000000E+00  0.74505805969E-08  0.10566000000E+00  0.10566000000E+00 0.  1.
     999900   -1    0    0    0    0 -0.00000000000E+00 -0.00000000000E+00 -0.74505805969E-08  0.93827000000E+00  0.93827000000E+00 0. -1.
     999902    2    1    2    0    0  0.11803045810E-01  0.14900708380E-01 -0.16220267404E-01  0.10189412010E+01  0.10186347388E+01 0.  0.
     999903    2    3    3    0    0 -0.11826993145E+00  0.30178780604E-01  0.32755743560E-01  0.12790189292E+00  0.19682987354E-01 0.  0.
         14    1    1    2    0    0 -0.11803045810E-01 -0.14900708380E-01  0.16220267404E-01  0.24988798996E-01  0.00000000000E+00 0.  1.
     999901    1    3    3    0    0  0.13007297726E+00 -0.15278072224E-01 -0.48976010964E-01  0.89103930809E+00  0.88000000000E+00 0. -1.
        -11    1    4    4    0    0 -0.66395700143E-01  0.24324061632E-01  0.25617070092E-01  0.75210001814E-01  0.51100000000E-03 0.  1.
         11    1    4    4    0    0 -0.51874231309E-01  0.58547189722E-02  0.71386734682E-02  0.52691891104E-01  0.51100000000E-03 0. -1.
</event>
<event>
 8    1  0.1128298E+005  0.1043930E+01  0.7957747E-01            NaN
         13   -1    0    0    0    0  0.00000000000E+00  0.00000000000E+00  0.74505805969E-08  0.10566000000E+00  0.10566000000E+00 0. -1.
     999900   -1    0    0    0    0 -0.00000000000E+00 -0.00000000000E+00 -0.74505805969E-08  0.93827000000E+00  0.93827000000E+00 0. -1.
     999902    2    1    2    0    0  0.42130370846E-02 -0.22765064778E-01 -0.26655700654E-02  0.10206254271E+01  0.10203593285E+01 0.  0.
     999903    2    3    3    0    0  0.72677950901E-01  0.85200143941E-01 -0.61565963127E-01  0.12943903409E+00  0.20565666941E-01 0.  0.
         14    1    1    2    0    0 -0.42130370846E-02  0.22765064778E-01  0.26655700654E-02  0.23304572933E-01  0.00000000000E+00 0. -1.
     999901    1    3    3    0    0 -0.68464913816E-01 -0.10796520872E+00  0.58900393062E-01  0.89118639297E+00  0.88000000000E+00 0.  1.
        -11    1    4    4    0    0  0.39382539025E-01  0.35682643269E-01 -0.37753149183E-01  0.65190465599E-01  0.51100000000E-03 0. -1.
         11    1    4    4    0    0  0.33295411875E-01  0.49517500672E-01 -0.23812813945E-01  0.64248568496E-01  0.51100000000E-03 0.  1.
</event>
<event>
 8    1  0.1128298E+005  0.1043930E+01  0.7957747E-01            NaN
         13   -1    0    0    0    0  0.00000000000E+00  0.00000000000E+00  0.74505805969E-08  0.10566000000E+00  0.10566000000E+00 0. -1.
     999900   -1    0    0    0    0 -0.00000000000E+00 -0.00000000000E+00 -0.74505805969E-08  0.93827000000E+00  0.93827000000E+00 0.  1.
     999902    2    1    2    0    0 -0.10180946621E-01  0.14918997172E-01 -0.14917456035E-01  0.10205044019E+01  0.10202355001E+01 0.  0.
     999903    2    3    3    0    0 -0.12603759544E+00  0.37457529556E-01  0.11560399222E-01  0.13222976796E+00  0.79073838893E-02 0.  0.
         14    1    1    2    0    0  0.10180946621E-01 -0.14918997172E-01  0.14917456035E-01  0.23425598077E-01  0.00000000000E+00 0. -1.
     999901    1    3    3    0    0  0.11585664882E+00 -0.22538532384E-01 -0.26477855257E-01  0.88827463396E+00  0.88000000000E+00 0.  1.
        -11    1    4    4    0    0 -0.10615727595E+00  0.33685896580E-01  0.11701337245E-01  0.11198789792E+00  0.51100000000E-03 0. -1.
         11    1    4    4    0    0 -0.19880319492E-01  0.37716329760E-02 -0.14093802359E-03  0.20241870045E-01  0.51100000000E-03 0.  1.
</event>
<event>
 8    1  0.1128298E+005  0.1043930E+01  0.7957747E-01            NaN
         13   -1    0    0    0    0  0.00000000000E+00  0.00000000000E+00  0.74505805969E-08  0.10566000000E+00  0.10566000000E+00 0. -1.
     999900   -1    0    0    0    0 -0.00000000000E+00 -0.00000000000E+00 -0.74505805969E-08  0.93827000000E+00  0.93827000000E+00 0. -1.
     999902    2    1    2    0    0 -0.81094292102E-02 -0.20210980690E-01 -0.86228136939E-02  0.10205077990E+01  0.10202389761E+01 0.  0.
     999903    2    3    3    0    0 -0.10641726998E+00 -0.32133714780E-01  0.67577395372E-01  0.13168101331E+00  0.20395438840E-01 0.  0.
         14    1    1    2    0    0  0.81094292102E-02  0.20210980690E-01  0.86228136939E-02  0.23422200976E-01  0.00000000000E+00 0. -1.
     999901    1    3    3    0    0  0.98307840767E-01  0.11922734090E-01 -0.76200209066E-01  0.88882678572E+00  0.88000000000E+00 0. -1.
        -11    1    4    4    0    0 -0.30432378992E-01 -0.18299325369E-01  0.17128590701E-01  0.39428983508E-01  0.51100000000E-03 0.  1.
         11    1    4    4    0    0 -0.75984890985E-01 -0.13834389411E-01  0.50448804671E-01  0.92252029799E-01  0.51100000000E-03 0. -1.
</event>
<event>
 8    1  0.1128298E+005  0.1043930E+01  0.7957747E-01            NaN
         13   -1    0    0    0    0  0.00000000000E+00  0.00000000000E+00  0.74505805969E-08  0.10566000000E+00  0.10566000000E+00 0.  1.
     999900   -1    0    0    0    0 -0.00000000000E+00 -0.00000000000E+00 -0.74505805969E-08  0.93827000000E+00  0.93827000000E+00 0. -1.
     999902    2    1    2    0    0  0.20260733895E-01  0.50531812879E-02  0.14059135477E-01  0.10187567748E+01  0.10184457152E+01 0.  0.
     999903    2    3    3    0    0  0.68070802554E-01  0.17347301208E-01  0.11124748596E+00  0.13203104290E+00  0.11028605479E-01 0.  0.
         14    1    1    2    0    0 -0.20260733895E-01 -0.50531812879E-02 -0.14059135477E-01  0.25173225249E-01  0.00000000000E+00 0. -1.
     999901    1    3    3    0    0 -0.47810068660E-01 -0.12294119920E-01 -0.97188350481E-01  0.88672573185E+00  0.88000000000E+00 0. -1.
        -11    1    4    4    0    0  0.28469826049E-01  0.10850064484E-01  0.55874143367E-01  0.63643035068E-01  0.51100000000E-03 0. -1.
         11    1    4    4    0    0  0.39600976505E-01  0.64972367239E-02  0.55373342590E-01  0.68388007836E-01  0.51100000000E-03 0.  1.
</event>
<event>
 8    1  0.1128298E+005  0.1043930E+01  0.7957747E-01            NaN
         13   -1    0    0    0    0  0.00000000000E+00  0.00000000000E+00  0.74505805969E-08  0.10566000000E+00  0.10566000000E+00 0. -1.
     999900   -1    0    0    0    0 -0.00000000000E+00 -0.00000000000E+00 -0.74505805969E-08  0.93827000000E+00  0.93827000000E+00 0.  1.
     999902    2    1    2    0    0  0.46221092853E-02  0.17697705199E-01 -0.17082423186E-01  0.10189023784E+01  0.10185949513E+01 0.  0.
     999903    2    3    3    0    0 -0.71540633249E-02 -0.12320717392E+00 -0.25773604297E-01  0.12757280977E+00  0.19477032269E-01 0.  0.
         14    1    1    2    0    0 -0.46221092853E-02 -0.17697705199E-01  0.17082423186E-01  0.25027621650E-01  0.00000000000E+00 0.  1.
     999901    1    3    3    0    0  0.11776172610E-01  0.14090487912E+00  0.86911811116E-02  0.89132956858E+00  0.88000000000E+00 0.  1.
        -11    1    4    4    0    0  0.29195559485E-02 -0.90129200700E-01 -0.21699748977E-01  0.92752018050E-01  0.51100000000E-03 0.  1.
         11    1    4    4    0    0 -0.10073619273E-01 -0.33077973221E-01 -0.40738553198E-02  0.34820791717E-01  0.51100000000E-03 0. -1.
</event>
<event>
 8    1  0.1128298E+005  0.1043930E+01  0.7957747E-01            NaN
         13   -1    0    0    0    0  0.00000000000E+00  0.00000000000E+00  0.74505805969E-08  0.10566000000E+00  0.10566000000E+00 0.  1.
     999900   -1    0    0    0    0 -0.00000000000E+00 -0.00000000000E+00 -0.74505805969E-08  0.93827000000E+00  0.93827000000E+00 0. -1.
     999902    2    1    2    0    0 -0.45485677050E-03  0.26670037802E-01 -0.22426807056E-01  0.10090809041E+01  0.10084789594E+01 0.  0.
     999903    2    3    3    0    0 -0.10382091608E-01  0.86680932174E-01  0.81158864135E-01  0.12091996782E+00  0.20334836162E-01 0.  0.
         14    1    1    2    0    0  0.45485677050E-03 -0.26670037802E-01  0.22426807056E-01  0.34849095910E-01  0.00000000000E+00 0. -1.
     999901    1    3    3    0    0  0.99272348378E-02 -0.60010894372E-01 -0.10358567119E+00  0.88816093627E+00  0.88000000000E+00 0. -1.
        -11    1    4    4    0    0 -0.32266774706E-02  0.38740501583E-01  0.22858776417E-01  0.45100140694E-01  0.51100000000E-03 0.  1.
         11    1    4    4    0    0 -0.71554141378E-02  0.47940430591E-01  0.58300087718E-01  0.75819827128E-01  0.51100000000E-03 0. -1.
</event>
<event>
 8    1  0.1128298E+005  0.1043930E+01  0.7957747E-01            NaN
         13   -1    0    0    0    0  0.00000000000E+00  0.00000000000E+00  0.74505805969E-08  0.10566000000E+00  0.10566000000E+00 0. -1.
     999900   -1    0    0    0    0 -0.00000000000E+00 -0.00000000000E+00 -0.74505805969E-08  0.93827000000E+00  0.93827000000E+00 0. -1.
     999902    2    1    2    0    0  0.15234993557E-01 -0.11004118458E-01 -0.14222395138E-01  0.10203615428E+01  0.10200893127E+01 0.  0.
     999903    2    3    3    0    0 -0.27668718534E-01 -0.12644622206E+00 -0.15403229623E-01  0.13178458936E+00  0.19383329253E-01 0.  0.
         14    1    1    2    0    0 -0.15234993557E-01  0.11004118458E-01  0.14222395138E-01  0.23568457208E-01  0.00000000000E+00 0. -1.
     999901    1    3    3    0    0  0.42903712091E-01  0.11544210360E+00  0.11808344846E-02  0.88857695343E+00  0.88000000000E+00 0. -1.
        -11    1    4    4    0    0 -0.77446263204E-02 -0.11671280911E-01  0.14010578256E-02  0.14086238638E-01  0.51100000000E-03 0. -1.
         11    1    4    4    0    0 -0.19924092214E-01 -0.11477494115E+00 -0.16804287448E-01  0.11769835072E+00  0.51100000000E-03 0.  1.
</event>
<event>
 8    1  0.1128298E+005  0.1043930E+01  0.7957747E-01            NaN
         13   -1    0    0    0    0  0.00000000000E+00  0.00000000000E+00  0.74505805969E-08  0.10566000000E+00  0.10566000000E+00 0.  1.
     999900   -1    0    0    0    0 -0.00000000000E+00 -0.00000000000E+00 -0.74505805969E-08  0.93827000000E+00  0.93827000000E+00 0.  1.
     999902    2    1    2    0    0 -0.96652866076E-02  0.57149044592E-02  0.19825154639E-01  0.10211459122E+01  0.10208916982E+01 0.  0.
     999903    2    3    3    0    0 -0.10390762404E+00  0.73538970243E-01 -0.29298264748E-01  0.13216062981E+00  0.20081565559E-01 0.  0.
         14    1    1    2    0    0  0.96652866076E-02 -0.57149044592E-02 -0.19825154639E-01  0.22784087751E-01  0.00000000000E+00 0.  1.
     999901    1    3    3    0    0  0.94242337436E-01 -0.67824065784E-01  0.49123419386E-01  0.88898528244E+00  0.88000000000E+00 0. -1.
        -11    1    4    4    0    0 -0.59659113230E-01  0.34227995154E-01 -0.23501829558E-01  0.72686742651E-01  0.51100000000E-03 0.  1.
         11    1    4    4    0    0 -0.44248510814E-01  0.39310975089E-01 -0.57964351900E-02  0.59473887158E-01  0.51100000000E-03 0. -1.
</event>
<event>
 8    1  0.1128298E+005  0.1043930E+01  0.7957747E-01            NaN
         13   -1    0    0    0    0  0.00000000000E+00  0.00000000000E+00  0.74505805969E-08  0.10566000000E+00  0.10566000000E+00 0.  1.
     999900   -1    0    0    0    0 -0.00000000000E+00 -0.00000000000E+00 -0.74505805969E-08  0.93827000000E+00  0.93827000000E+00 0.  1.
     999902    2    1    2    0    0  0.19683475790E-01  0.11018612791E-01  0.57019255600E-02  0.10206628342E+01  0.10203975991E+01 0.  0.
     999903    2    3    3    0    0  0.67164760754E-01 -0.48621698689E-03 -0.11132990925E+00  0.13157156565E+00  0.20134217173E-01 0.  0.
         14    1    1    2    0    0 -0.19683475790E-01 -0.11018612791E-01 -0.57019255600E-02  0.23267165752E-01  0.00000000000E+00 0.  1.
     999901    1    3    3    0    0 -0.47481284964E-01  0.11504829778E-01  0.11703183481E+00  0.88909126859E+00  0.88000000000E+00 0. -1.
        -11    1    4    4    0    0  0.37814604323E-01  0.21514186462E-02 -0.80242143152E-01  0.88733508670E-01  0.51100000000E-03 0. -1.
         11    1    4    4    0    0  0.29350156431E-01 -0.26376356331E-02 -0.31087766098E-01  0.42838056985E-01  0.51100000000E-03 0.  1.
</event>
<event>
 8    1  0.1128298E+005  0.1043930E+01  0.7957747E-01            NaN
         13   -1    0    0    0    0  0.00000000000E+00  0.00000000000E+00  0.74505805969E-08  0.10566000000E+00  0.10566000000E+00 0.  1.
     999900   -1    0    0    0    0 -0.00000000000E+00 -0.00000000000E+00 -0.74505805969E-08  0.93827000000E+00  0.93827000000E+00 0.  1.
     999902    2    1    2    0    0  0.16692076137E-01 -0.96404724982E-02  0.12772419204E-01  0.10208064447E+01  0.10205445109E+01 0.  0.
     999903    2    3    3    0    0  0.11262997280E-01 -0.35501246138E-02 -0.12733185639E+00  0.12968592804E+00  0.21577297948E-01 0.  0.
         14    1    1    2    0    0 -0.16692076137E-01  0.96404724982E-02 -0.12772419204E-01  0.23123555265E-01  0.00000000000E+00 0. -1.
     999901    1    3    3    0    0  0.54290788572E-02 -0.60903478844E-02  0.14010427560E+00  0.89112051670E+00  0.88000000000E+00 0. -1.
        -11    1    4    4    0    0  0.21174793249E-02  0.72005022218E-02 -0.78296789380E-01  0.78657353752E-01  0.51100000000E-03 0. -1.
         11    1    4    4    0    0  0.91455179552E-02 -0.10750626836E-01 -0.49035067012E-01  0.51028574288E-01  0.51100000000E-03 0.  1.
</event>
<event>
 8    1  0.1128298E+005  0.1043930E+01  0.7957747E-01            NaN
         13   -1    0    0    0    0  0.00000000000E+00  0.00000000000E+00  0.74505805969E-08  0.10566000000E+00  0.10566000000E+00 0. -1.
     999900   -1    0    0    0    0 -0.00000000000E+00 -0.00000000000E+00 -0.74505805969E-08  0.93827000000E+00  0.93827000000E+00 0. -1.
     999902    2    1    2    0    0 -0.35090639797E-02  0.14642695123E-01  0.14559037171E-01  0.10229851292E+01  0.10227706913E+01 0.  0.
     999903    2    3    3    0    0 -0.10088844148E+00 -0.31934662214E-01 -0.77125321125E-01  0.13166127393E+00  0.13714066424E-01 0.  0.
         14    1    1    2    0    0  0.35090639797E-02 -0.14642695123E-01 -0.14559037171E-01  0.20944870824E-01  0.00000000000E+00 0.  1.
     999901    1    3    3    0    0  0.97379377504E-01  0.46577357337E-01  0.91684358296E-01  0.89132385525E+00  0.88000000000E+00 0.  1.
        -11    1    4    4    0    0 -0.38616939834E-01 -0.18672417019E-01 -0.34364874009E-01  0.54964833176E-01  0.51100000000E-03 0. -1.
         11    1    4    4    0    0 -0.62271501650E-01 -0.13262245195E-01 -0.42760447116E-01  0.76696440751E-01  0.51100000000E-03 0.  1.
</event>
<event>
 8    1  0.1128298E+005  0.1043930E+01  0.7957747E-01            NaN
         13   -1    0    0    0    0  0.00000000000E+00  0.00000000000E+00  0.74505805969E-08  0.10566000000E+00  0.10566000000E+00 0. -1.
     999900   -1    0    0    0    0 -0.00000000000E+00 -0.00000000000E+00 -0.74505805969E-08  0.93827000000E+00  0.93827000000E+00 0. -1.
     999902    2    1    2    0    0  0.21910432254E-01 -0.96168220076E-02 -0.36812293073E-03  0.10199991450E+01  0.10197183778E+01 0.  0.
     999903    2    3    3    0    0  0.64029869305E-01  0.72590413523E-01  0.86066042691E-01  0.13095305983E+00  0.19291134633E-01 0.  0.
         14    1    1    2    0    0 -0.21910432254E-01  0.96168220076E-02  0.36812293073E-03  0.23930855011E-01  0.00000000000E+00 0. -1.
     999901    1    3    3    0    0 -0.42119437051E-01 -0.82207235530E-01 -0.86434165621E-01  0.88904608516E+00  0.88000000000E+00 0.  1.
        -11    1    4    4    0    0  0.32654227922E-01  0.22914631501E-01  0.36773948489E-01  0.54258302097E-01  0.51100000000E-03 0. -1.
         11    1    4    4    0    0  0.31375641384E-01  0.49675782022E-01  0.49292094202E-01  0.76694757732E-01  0.51100000000E-03 0.  1.
</event>
<event>
 8    1  0.1128298E+005  0.1043930E+01  0.7957747E-01            NaN
         13   -1    0    0    0    0  0.00000000000E+00  0.00000000000E+00  0.74505805969E-08  0.10566000000E+00  0.10566000000E+00 0.  1.
     999900   -1    0    0    0    0 -0.00000000000E+00 -0.00000000000E+00 -0.74505805969E-08  0.93827000000E+00  0.93827000000E+00 0.  1.
     999902    2    1    2    0    0 -0.13748076783E-01  0.14567431324E-02  0.14107773758E-01  0.10241775066E+01  0.10239870136E+01 0.  0.
     999903    2    3    3    0    0 -0.13954446514E-01 -0.13055767083E+00 -0.16642305245E-01  0.13379926368E+00  0.19627650079E-01 0.  0.
         14    1    1    2    0    0  0.13748076783E-01 -0.14567431324E-02 -0.14107773758E-01  0.19752493417E-01  0.00000000000E+00 0. -1.
     999901    1    3    3    0    0  0.20636973122E-03  0.13201441396E+00  0.30750079003E-01  0.89037824291E+00  0.88000000000E+00 0. -1.
        -11    1    4    4    0    0  0.35346079308E-02 -0.24924466249E-01  0.13975256896E-02  0.25217784797E-01  0.51100000000E-03 0. -1.
         11    1    4    4    0    0 -0.17489054445E-01 -0.10563320458E+00 -0.18039830935E-01  0.10858147888E+00  0.51100000000E-03 0.  1.
</event>
<event>
 8    1  0.1128298E+005  0.1043930E+01  0.7957747E-01            NaN
         13   -1    0    0    0    0  0.00000000000E+00  0.00000000000E+00  0.74505805969E-08  0.10566000000E+00  0.10566000000E+00 0. -1.
     999900   -1    0    0    0    0 -0.00000000000E+00 -0.00000000000E+00 -0.74505805969E-08  0.93827000000E+00  0.93827000000E+00 0. -1.
     999902    2    1    2    0    0 -0.81383560865E-02  0.19388210776E-01  0.10916868582E-01  0.10202379428E+01  0.10199628161E+01 0.  0.
     999903    2    3    3    0    0 -0.90785592740E-02  0.98644532190E-01  0.87006543989E-01  0.13340532767E+00  0.20339094999E-01 0.  0.
         14    1    1    2    0    0  0.81383560865E-02 -0.19388210776E-01 -0.10916868582E-01  0.23692057246E-01  0.00000000000E+00 0.  1.
     999901    1    3    3    0    0  0.94020318755E-03 -0.79256321414E-01 -0.76089675407E-01  0.88683261508E+00  0.88000000000E+00 0.  1.
        -11    1    4    4    0    0 -0.15251694447E-01  0.70514841329E-01  0.58551746289E-01  0.92916764610E-01  0.51100000000E-03 0. -1.
         11    1    4    4    0    0  0.61731351731E-02  0.28129690862E-01  0.28454797701E-01  0.40488563064E-01  0.51100000000E-03 0.  1.
</event>
<event>
 8    1  0.1128298E+005  0.1043930E+01  0.7957747E-01            NaN
         13   -1    0    0    0    0  0.00000000000E+00  0.00000000000E+00  0.74505805969E-08  0.10566000000E+00  0.10566000000E+00 0.  1.
     999900   -1    0    0    0    0 -0.00000000000E+00 -0.00000000000E+00 -0.74505805969E-08  0.93827000000E+00  0.93827000000E+00 0.  1.
     999902    2    1    2    0    0  0.15199655095E-01  0.18655425601E-01  0.51297742119E-02  0.10193257523E+01  0.10190287633E+01 0.  0.
     999903    2    3    3    0    0  0.76879000384E-02  0.93226774202E-01 -0.89692344416E-01  0.13106422178E+00  0.19564722041E-01 0.  0.
         14    1    1    2    0    0 -0.15199655095E-01 -0.18655425601E-01 -0.51297742119E-02  0.24604247659E-01  0.00000000000E+00 0. -1.
     999901    1    3    3    0    0  0.75117550568E-02 -0.74571348600E-01  0.94822118628E-01  0.88826153056E+00  0.88000000000E+00 0.  1.
        -11    1    4    4    0    0  0.96412530551E-02  0.69307556655E-01 -0.76485354780E-01  0.10366658954E+00  0.51100000000E-03 0.  1.
         11    1    4    4    0    0 -0.19533530167E-02  0.23919217547E-01 -0.13206989636E-01  0.27397632239E-01  0.51100000000E-03 0. -1.
</event>
<event>
 8    1  0.1128298E+005  0.1043930E+01  0.7957747E-01            NaN
         13   -1    0    0    0    0  0.00000000000E+00  0.00000000000E+00  0.74505805969E-08  0.10566000000E+00  0.10566000000E+00 0.  1.
     999900   -1    0    0    0    0 -0.00000000000E+00 -0.00000000000E+00 -0.74505805969E-08  0.93827000000E+00  0.93827000000E+00 0. -1.
     999902    2    1    2    0    0 -0.54055424776E-02  0.16331887157E-01  0.18220655146E-01  0.10188712151E+01  0.10185630124E+01 0.  0.
     999903    2    3    3    0    0 -0.10263640832E+00 -0.66782865154E-01 -0.30141634602E-01  0.12830913730E+00  0.23675582061E-01 0.  0.
         14    1    1    2    0    0  0.54055424776E-02 -0.16331887157E-01 -0.18220655146E-01  0.25058784917E-01  0.00000000000E+00 0. -1.
     999901    1    3    3    0    0  0.97230865842E-01  0.83114752311E-01  0.48362289748E-01  0.89056207779E+00  0.88000000000E+00 0. -1.
        -11    1    4    4    0    0 -0.73658211552E-01 -0.59489709238E-01 -0.25575308301E-01  0.98076068182E-01  0.51100000000E-03 0.  1.
         11    1    4    4    0    0 -0.28978196768E-01 -0.72931559163E-02 -0.45663263006E-02  0.30233069113E-01  0.51100000000E-03 0. -1.
</event>
<event>
 8    1  0.1128298E+005  0.1043930E+01  0.7957747E-01            NaN
         13   -1    0    0    0    0  0.00000000000E+00  0.00000000000E+00  0.74505805969E-08  0.10566000000E+00  0.10566000000E+00 0. -1.
     999900   -1    0    0    0    0 -0.00000000000E+00 -0.00000000000E+00 -0.74505805969E-08  0.93827000000E+00  0.93827000000E+00 0. -1.
     999902    2    1    2    0    0 -0.10289744787E-01 -0.23333013655E-01 -0.56962553095E-02  0.10178004057E+01  0.10174649430E+01 0.  0.
     999903    2    3    3    0    0 -0.37631168335E-01 -0.73629132876E-02  0.12074549003E+00  0.12819930829E+00  0.19628345858E-01 0.  0.
         14    1    1    2    0    0  0.10289744787E-01  0.23333013655E-01  0.56962553095E-02  0.26129594305E-01  0.00000000000E+00 0.  1.
     999901    1    3    3    0    0  0.27341423547E-01 -0.15970100367E-01 -0.12644174534E+00  0.88960109741E+00  0.88000000000E+00 0. -1.
        -11    1    4    4    0    0 -0.28457452168E-01 -0.13730509825E-01  0.82182181735E-01  0.88048427582E-01  0.51100000000E-03 0.  1.
         11    1    4    4    0    0 -0.91737161673E-02  0.63675965377E-02  0.38563308291E-01  0.40150880704E-01  0.51100000000E-03 0. -1.
</event>
<event>
 8    1  0.1128298E+005  0.1043930E+01  0.7957747E-01            NaN
         13   -1    0    0    0    0  0.00000000000E+00  0.00000000000E+00  0.74505805969E-08  0.10566000000E+00  0.10566000000E+00 0. -1.
     999900   -1    0    0    0    0 -0.00000000000E+00 -0.00000000000E+00 -0.74505805969E-08  0.93827000000E+00  0.93827000000E+00 0.  1.
     999902    2    1    2    0    0 -0.14929302705E-01 -0.33517415508E-02 -0.20545948797E-01  0.10183125399E+01  0.10179902625E+01 0.  0.
     999903    2    3    3    0    0 -0.10102251253E+00  0.59494001775E-01  0.50350246021E-01  0.12904998098E+00  0.19330443119E-01 0.  0.
         14    1    1    2    0    0  0.14929302705E-01  0.33517415508E-02  0.20545948797E-01  0.25617460114E-01  0.00000000000E+00 0. -1.
     999901    1    3    3    0    0  0.86093209827E-01 -0.62845743325E-01 -0.70896194819E-01  0.88926255891E+00  0.88000000000E+00 0.  1.
        -11    1    4    4    0    0 -0.18229601463E-01  0.15483656513E-01  0.33232212931E-02  0.24152989655E-01  0.51100000000E-03 0.  1.
         11    1    4    4    0    0 -0.82792911069E-01  0.44010345262E-01  0.47027024728E-01  0.10489699133E+00  0.51100000000E-03 0. -1.
</event>
<event>
 8    1  0.1128298E+005  0.1043930E+01  0.7957747E-01            NaN
         13   -1    0    0    0    0  0.00000000000E+00  0.00000000000E+00  0.74505805969E-08  0.10566000000E+00  0.10566000000E+00 0. -1.
     999900   -1    0    0    0    0 -0.00000000000E+00 -0.00000000000E+00 -0.74505805969E-08  0.93827000000E+00  0.93827000000E+00 0.  1.
     999902    2    1    2    0    0 -0.15255721910E-01 -0.99589590791E-02 -0.15692236463E-01  0.10198849547E+01  0.10196014695E+01 0.  0.
     999903    2    3    3    0    0  0.12336226294E+00  0.24934975194E-01  0.17710530362E-01  0.12772562075E+00  0.12655844659E-01 0.  0.
         14    1    1    2    0    0  0.15255721910E-01  0.99589590791E-02  0.15692236463E-01  0.24045045272E-01  0.00000000000E+00 0. -1.
     999901    1    3    3    0    0 -0.13861798485E+00 -0.34893934273E-01 -0.33402766825E-01  0.89215933398E+00  0.88000000000E+00 0.  1.
        -11    1    4    4    0    0  0.44648883225E-01  0.13292699400E-01  0.11016484090E-01  0.47873193682E-01  0.51100000000E-03 0. -1.
         11    1    4    4    0    0  0.78713379716E-01  0.11642275794E-01  0.66940462722E-02  0.79852427067E-01  0.51100000000E-03 0.  1.
</event>
<event>
 8    1  0.1128298E+005  0.1043930E+01  0.7957747E-01            NaN
         13   -1    0    0    0    0  0.00000000000E+00  0.00000000000E+00  0.74505805969E-08  0.10566000000E+00  0.10566000000E+00 0. -1.
     999900   -1    0    0    0    0 -0.00000000000E+00 -0.00000000000E+00 -0.74505805969E-08  0.93827000000E+00  0.93827000000E+00 0.  1.
     999902    2    1    2    0    0 -0.12374792704E-01 -0.11702402701E-01  0.16885535559E-01  0.10199466092E+01  0.10196645932E+01 0.  0.
     999903    2    3    3    0    0  0.46798009619E-01  0.31725729128E-02 -0.11679125730E+00  0.12776267615E+00  0.21976913187E-01 0.  0.
         14    1    1    2    0    0  0.12374792704E-01  0.11702402701E-01 -0.16885535559E-01  0.23983390806E-01  0.00000000000E+00 0.  1.
     999901    1    3    3    0    0 -0.59172802322E-01 -0.14874975614E-01  0.13367679285E+00  0.89218393304E+00  0.88000000000E+00 0. -1.
        -11    1    4    4    0    0  0.12609810952E-01 -0.36305188724E-02 -0.57510222894E-01  0.58990464127E-01  0.51100000000E-03 0. -1.
         11    1    4    4    0    0  0.34188198667E-01  0.68030917851E-02 -0.59281034401E-01  0.68772212024E-01  0.51100000000E-03 0.  1.
</event>
<event>
 8    1  0.1128298E+005  0.1043930E+01  0.7957747E-01            NaN
         13   -1    0    0    0    0  0.00000000000E+00  0.00000000000E+00  0.74505805969E-08  0.10566000000E+00  0.10566000000E+00 0.  1.
     999900   -1    0    0    0    0 -0.00000000000E+00 -0.00000000000E+00 -0.74505805969E-08  0.93827000000E+00  0.93827000000E+00 0.  1.
     999902    2    1    2    0    0  0.20503286022E-01  0.22188702530E-02 -0.11607397859E-01  0.10202648398E+01  0.10199903448E+01 0.  0.
     999903    2    3    3    0    0  0.22321523563E-01 -0.33674234647E-01  0.12130460309E+00  0.12955881591E+00  0.20939807967E-01 0.  0.
         14    1    1    2    0    0 -0.20503286022E-01 -0.22188702530E-02  0.11607397859E-01  0.23665160214E-01  0.00000000000E+00 0. -1.
     999901    1    3    3    0    0 -0.18182375407E-02  0.35893104900E-01 -0.13291200095E+00  0.89070602387E+00  0.88000000000E+00 0.  1.
        -11    1    4    4    0    0  0.22774751509E-01 -0.26233139194E-01  0.75019104467E-01  0.82674022851E-01  0.51100000000E-03 0. -1.
         11    1    4    4    0    0 -0.45322794589E-03 -0.74410954535E-02  0.46285498619E-01  0.46884793063E-01  0.51100000000E-03 0.  1.
</event>
<event>
 8    1  0.1128298E+005  0.1043930E+01  0.7957747E-01            NaN
         13   -1    0    0    0    0  0.00000000000E+00  0.00000000000E+00  0.74505805969E-08  0.10566000000E+00  0.10566000000E+00 0.  1.
     999900   -1    0    0    0    0 -0.00000000000E+00 -0.00000000000E+00 -0.74505805969E-08  0.93827000000E+00  0.93827000000E+00 0.  1.
     999902    2    1    2    0    0 -0.72796922630E-02  0.21251946841E-01  0.77784996571E-02  0.10201572378E+01  0.10198802114E+01 0.  0.
     999903    2    3    3    0    0 -0.29736518037E-02  0.30567516542E-01  0.12698242152E+00  0.13206101737E+00  0.19296664521E-01 0.  0.
         14    1    1    2    0    0  0.72796922630E-02 -0.21251946841E-01 -0.77784996571E-02  0.23772762164E-01  0.00000000000E+00 0.  1.
     999901    1    3    3    0    0 -0.43060404593E-02 -0.93155697005E-02 -0.11920392186E+00  0.88809622047E+00  0.88000000000E+00 0.  1.
        -11    1    4    4    0    0  0.25540101536E-02  0.94903503268E-02  0.14749641577E-01  0.17731406172E-01  0.51100000000E-03 0.  1.
         11    1    4    4    0    0 -0.55276619573E-02  0.21077166215E-01  0.11223277994E+00  0.11432961120E+00  0.51100000000E-03 0. -1.
</event>
<event>
 8    1  0.1128298E+005  0.1043930E+01  0.7957747E-01            NaN
         13   -1    0    0    0    0  0.00000000000E+00  0.00000000000E+00  0.74505805969E-08  0.10566000000E+00  0.10566000000E+00 0. -1.
     999900   -1    0    0    0    0 -0.00000000000E+00 -0.00000000000E+00 -0.74505805969E-08  0.93827000000E+00  0.93827000000E+00 0. -1.
     999902    2    1    2    0    0  0.15735985694E-02  0.12887312853E-01  0.19701068023E-01  0.10203356972E+01  0.10200628627E+01 0.  0.
     999903    2    3    3    0    0 -0.11340645252E+00  0.41316258726E-03 -0.58806241047E-01  0.12930291766E+00  0.19996908570E-01 0.  0.
         14    1    1    2    0    0 -0.15735985694E-02 -0.12887312853E-01 -0.19701068023E-01  0.23594302835E-01  0.00000000000E+00 0.  1.
     999901    1    3    3    0    0  0.11498005109E+00  0.12474150266E-01  0.78507309069E-01  0.89103277950E+00  0.88000000000E+00 0.  1.
        -11    1    4    4    0    0 -0.82158519343E-01  0.60564235281E-03 -0.32157745555E-01  0.88231348303E-01  0.51100000000E-03 0.  1.
         11    1    4    4    0    0 -0.31247933180E-01 -0.19247976555E-03 -0.26648495492E-01  0.41071569358E-01  0.51100000000E-03 0. -1.
</event>
<event>
 8    1  0.1128298E+005  0.1043930E+01  0.7957747E-01            NaN
         13   -1    0    0    0    0  0.00000000000E+00  0.00000000000E+00  0.74505805969E-08  0.10566000000E+00  0.10566000000E+00 0.  1.
     999900   -1    0    0    0    0 -0.00000000000E+00 -0.00000000000E+00 -0.74505805969E-08  0.93827000000E+00  0.93827000000E+00 0.  1.
     999902    2    1    2    0    0 -0.11520377619E-01 -0.25715104480E-02  0.79067718075E-02  0.10297226495E+01  0.10296246336E+01 0.  0.
     999903    2    3    3    0    0  0.81183628692E-01  0.47104723255E-01 -0.97808217413E-01  0.13717717736E+00  0.21011760366E-01 0.  0.
         14    1    1    2    0    0  0.11520377619E-01  0.25715104480E-02 -0.79067718075E-02  0.14207350453E-01  0.00000000000E+00 0. -1.
     999901    1    3    3    0    0 -0.92704006311E-01 -0.49676233703E-01  0.10571498922E+00  0.89254547219E+00  0.88000000000E+00 0. -1.
        -11    1    4    4    0    0  0.26526634246E-01  0.27150534516E-01 -0.36853387009E-01  0.52907911544E-01  0.51100000000E-03 0.  1.
         11    1    4    4    0    0  0.54656994446E-01  0.19954188739E-01 -0.60954830403E-01  0.84269265813E-01  0.51100000000E-03 0. -1.
</event>
<event>
 8    1  0.1128298E+005  0.1043930E+01  0.7957747E-01            NaN
         13   -1    0    0    0    0  0.00000000000E+00  0.00000000000E+00  0.74505805969E-08  0.10566000000E+00  0.10566000000E+00 0. -1.
     999900   -1    0    0    0    0 -0.00000000000E+00 -0.00000000000E+00 -0.74505805969E-08  0.93827000000E+00  0.93827000000E+00 0.  1.
     999902    2    1    2    0    0 -0.46261262143E-02  0.20529488746E-01  0.11149508779E-01  0.10201146164E+01  0.10198365840E+01 0.  0.
     999903    2    3    3    0    0 -0.97573241299E-01 -0.59562170459E-01  0.59243032024E-01  0.13030181186E+00  0.20015887759E-01 0.  0.
         14    1    1    2    0    0  0.46261262143E-02 -0.20529488746E-01 -0.11149508779E-01  0.23815383640E-01  0.00000000000E+00 0. -1.
     999901    1    3    3    0    0  0.92947115085E-01  0.80091659204E-01 -0.48093523244E-01  0.88981280450E+00  0.88000000000E+00 0.  1.
        -11    1    4    4    0    0 -0.39695724932E-01 -0.18704788513E-01  0.13278052793E-01  0.45849618299E-01  0.51100000000E-03 0. -1.
         11    1    4    4    0    0 -0.57877516368E-01 -0.40857381945E-01  0.45964979230E-01  0.84452193559E-01  0.51100000000E-03 0.  1.
</event>
<event>
 8    1  0.1128298E+005  0.1043930E+01  0.7957747E-01            NaN
         13   -1    0    0    0    0  0.00000000000E+00  0.00000000000E+00  0.74505805969E-08  0.10566000000E+00  0.10566000000E+00 0. -1.
     999900   -1    0    0    0    0 -0.00000000000E+00 -0.00000000000E+00 -0.74505805969E-08  0.93827000000E+00  0.93827000000E+00 0.  1.
     999902    2    1    2    0    0 -0.13368725564E-01  0.18092795438E-01 -0.46320708385E-02  0.10209620190E+01  0.10207036378E+01 0.  0.
     999903    2    3    3    0    0  0.63732370980E-01  0.19452596802E-03 -0.11252010585E+00  0.13084699542E+00  0.19957681199E-01 0.  0.
         14    1    1    2    0    0  0.13368725564E-01 -0.18092795438E-01  0.46320708385E-02  0.22967980978E-01  0.00000000000E+00 0.  1.
     999901    1    3    3    0    0 -0.77101096544E-01  0.17898269470E-01  0.10788803501E+00  0.89011502360E+00  0.88000000000E+00 0. -1.
        -11    1    4    4    0    0  0.39322577101E-01  0.44274950711E-02 -0.85325372696E-01  0.94056090335E-01  0.51100000000E-03 0.  1.
         11    1    4    4    0    0  0.24409793879E-01 -0.42329691031E-02 -0.27194733157E-01  0.36790905087E-01  0.51100000000E-03 0. -1.
</event>
<event>
 8    1  0.1128298E+005  0.1043930E+01  0.7957747E-01            NaN
         13   -1    0    0    0    0  0.00000000000E+00  0.00000000000E+00  0.74505805969E-08  0.10566000000E+00  0.10566000000E+00 0.  1.
     999900   -1    0    0    0    0 -0.00000000000E+00 -0.00000000000E+00 -0.74505805969E-08  0.93827000000E+00  0.93827000000E+00 0.  1.
     999902    2    1    2    0    0 -0.23092363658E-02 -0.22897099055E-01 -0.51531396691E-02  0.10203468584E+01  0.10200742850E+01 0.  0.
     999903    2    3    3    0    0  0.12310078370E+00 -0.37059434289E-01 -0.21800330572E-01  0.13118693253E+00  0.14406673283E-01 0.  0.
         14    1    1    2    0    0  0.23092363658E-02  0.22897099055E-01  0.51531396691E-02  0.23583141568E-01  0.00000000000E+00 0. -1.
     999901    1    3    3    0    0 -0.12541002007E+00  0.14162335233E-01  0.16647190902E-01  0.88915992591E+00  0.88000000000E+00 0. -1.
        -11    1    4    4    0    0  0.83738067726E-01 -0.29307874292E-01 -0.95298217197E-02  0.89230567100E-01  0.51100000000E-03 0.  1.
         11    1    4    4    0    0  0.39362715974E-01 -0.77515599967E-02 -0.12270508852E-01  0.41956365426E-01  0.51100000000E-03 0. -1.
</event>
<event>
 8    1  0.1128298E+005  0.1043930E+01  0.7957747E-01            NaN
         13   -1    0    0    0    0  0.00000000000E+00  0.00000000000E+00  0.74505805969E-08  0.10566000000E+00  0.10566000000E+00 0. -1.
     999900   -1    0    0    0    0 -0.00000000000E+00 -0.00000000000E+00 -0.74505805969E-08  0.93827000000E+00  0.93827000000E+00 0. -1.
     999902    2    1    2    0    0  0.31930935848E-02 -0.21319151124E-01 -0.90153320434E-02  0.10205638222E+01  0.10202962986E+01 0.  0.
     999903    2    3    3    0    0  0.35867963184E-03 -0.12813706584E+00 -0.34159944259E-01  0.13374346144E+00  0.17354405608E-01 0.  0.
         14    1    1    2    0    0 -0.31930935848E-02  0.21319151124E-01  0.90153320434E-02  0.23366177761E-01  0.00000000000E+00 0.  1.
     999901    1    3    3    0    0  0.28344139529E-02  0.10681791471E+00  0.25144612216E-01  0.88682036080E+00  0.88000000000E+00 0.  1.
        -11    1    4    4    0    0  0.63597056673E-02 -0.81677814327E-01 -0.15857471331E-01  0.83447179266E-01  0.51100000000E-03 0.  1.
         11    1    4    4    0    0 -0.60010260355E-02 -0.46459251509E-01 -0.18302472928E-01  0.50296282174E-01  0.51100000000E-03 0. -1.
</event>
<event>
 8    1  0.1128298E+005  0.1043930E+01  0.7957747E-01            NaN
         13   -1    0    0    0    0  0.00000000000E+00  0.00000000000E+00  0.74505805969E-08  0.10566000000E+00  0.10566000000E+00 0.  1.
     999900   -1    0    0    0    0 -0.00000000000E+00 -0.00000000000E+00 -0.74505805969E-08  0.93827000000E+00  0.93827000000E+00 0.  1.
     999902    2    1    2    0    0 -0.14287183587E-01  0.67474775938E-02  0.17493454919E-01  0.10203572820E+01  0.10200849523E+01 0.  0.
     999903    2    3    3    0    0  0.68904104782E-01  0.39857946918E-02 -0.10578753880E+00  0.12787388117E+00  0.19926462451E-01 0.  0.
         14    1    1    2    0    0  0.14287183587E-01 -0.67474775938E-02 -0.17493454919E-01  0.23572717996E-01  0.00000000000E+00 0.  1.
     999901    1    3    3    0    0 -0.83191288369E-01  0.27616829020E-02  0.12328099371E+00  0.89248340083E+00  0.88000000000E+00 0. -1.
        -11    1    4    4    0    0  0.10734560465E-01  0.27446085133E-02 -0.32233846837E-01  0.34088790932E-01  0.51100000000E-03 0. -1.
         11    1    4    4    0    0  0.58169544317E-01  0.12411861785E-02 -0.73553691959E-01  0.93785090238E-01  0.51100000000E-03 0.  1.
</event>
<event>
 8    1  0.1128298E+005  0.1043930E+01  0.7957747E-01            NaN
         13   -1    0    0    0    0  0.00000000000E+00  0.00000000000E+00  0.74505805969E-08  0.10566000000E+00  0.10566000000E+00 0.  1.
     999900   -1    0    0    0    0 -0.00000000000E+00 -0.00000000000E+00 -0.74505805969E-08  0.93827000000E+00  0.93827000000E+00 0. -1.
     999902    2    1    2    0    0 -0.62323848483E-02  0.21320728228E-01 -0.84922721259E-02  0.10201490253E+01  0.10198718052E+01 0.  0.
     999903    2    3    3    0    0 -0.74568396191E-02  0.13147149159E+00 -0.35403598887E-02  0.13326729055E+00  0.20181155127E-01 0.  0.
         14    1    1    2    0    0  0.62323848483E-02 -0.21320728228E-01  0.84922721259E-02  0.23780974727E-01  0.00000000000E+00 0.  1.
     999901    1    3    3    0    0  0.12244547708E-02 -0.11015076336E+00 -0.49519122372E-02  0.88688173473E+00  0.88000000000E+00 0.  1.
        -11    1    4    4    0    0 -0.22894029061E-02  0.37908868219E-01  0.81149899444E-02  0.38838612722E-01  0.51100000000E-03 0.  1.
         11    1    4    4    0    0 -0.51674367130E-02  0.93562623374E-01 -0.11655349833E-01  0.94428677824E-01  0.51100000000E-03 0. -1.
</event>
<event>
 7    1  0.1128298E+005  0.1043930E+01  0.7957747E-01            NaN
         13   -1    0    0    0    0  0.00000000000E+00  0.00000000000E+00  0.74505805969E-08  0.10566000000E+00  0.10566000000E+00 0.  1.
     999900   -1    0    0    0    0 -0.00000000000E+00 -0.00000000000E+00 -0.74505805969E-08  0.93827000000E+00  0.93827000000E+00 0.  1.
     999903    2    1    2    0    0 -0.73999123721E-01 -0.66608004317E-02 -0.67379580695E-01  0.10235850251E+00  0.20421032498E-01 0.  0.
         14    1    1    2    0    0 -0.45275963537E-01 -0.18455321528E-01  0.16921048665E-01  0.51738125738E-01  0.00000000000E+00 0.  1.
     999901    1    1    2    0    0  0.11927508726E+00  0.25116121960E-01  0.50458532030E-01  0.88983337175E+00  0.88000000000E+00 0. -1.
        -11    1    3    3    0    0 -0.33721538781E-01 -0.96236796392E-02 -0.21086586265E-01  0.40922642007E-01  0.51100000000E-03 0.  1.
         11    1    3    3    0    0 -0.40277584940E-01  0.29628792075E-02 -0.46292994430E-01  0.61435860506E-01  0.51100000000E-03 0. -1.
</event>
<event>
 8    1  0.1128298E+005  0.1043930E+01  0.7957747E-01            NaN
         13   -1    0    0    0    0  0.00000000000E+00  0.00000000000E+00  0.74505805969E-08  0.10566000000E+00  0.10566000000E+00 0. -1.
     999900   -1    0    0    0    0 -0.00000000000E+00 -0.00000000000E+00 -0.74505805969E-08  0.93827000000E+00  0.93827000000E+00 0.  1.
     999902    2    1    2    0    0 -0.13243165634E-01  0.45631517472E-02  0.19228203027E-01  0.10201407675E+01  0.10198633526E+01 0.  0.
     999903    2    3    3    0    0 -0.14256481710E-01 -0.10431506792E+00  0.76270850370E-01  0.13159737684E+00  0.20389858007E-01 0.  0.
         14    1    1    2    0    0  0.13243165634E-01 -0.45631517472E-02 -0.19228203027E-01  0.23789232470E-01  0.00000000000E+00 0.  1.
     999901    1    3    3    0    0  0.10133160762E-02  0.10887821966E+00 -0.57042647343E-01  0.88854339069E+00  0.88000000000E+00 0. -1.
        -11    1    4    4    0    0 -0.28401501546E-02 -0.78878096889E-01  0.61356292927E-01  0.99973378579E-01  0.51100000000E-03 0.  1.
         11    1    4    4    0    0 -0.11416331555E-01 -0.25436971026E-01  0.14914557443E-01  0.31623998259E-01  0.51100000000E-03 0. -1.
</event>
<event>
 8    1  0.1128298E+005  0.1043930E+01  0.7957747E-01            NaN
         13   -1    0    0    0    0  0.00000000000E+00  0.00000000000E+00  0.74505805969E-08  0.10566000000E+00  0.10566000000E+00 0.  1.
     999900   -1    0    0    0    0 -0.00000000000E+00 -0.00000000000E+00 -0.74505805969E-08  0.93827000000E+00  0.93827000000E+00 0. -1.
     999902    2    1    2    0    0 -0.10549400881E-02 -0.87096007724E-02  0.22430862424E-01  0.10198444518E+01  0.10195599993E+01 0.  0.
     999903    2    3    3    0    0  0.12269152493E+00 -0.33527075992E-01  0.23280174899E-01  0.13083949340E+00  0.19993283284E-01 0.  0.
         14    1    1    2    0    0  0.10549400881E-02  0.87096007724E-02 -0.22430862424E-01  0.24085548224E-01  0.00000000000E+00 0. -1.
     999901    1    3    3    0    0 -0.12374646502E+00  0.24817475220E-01 -0.84931247520E-03  0.88900495837E+00  0.88000000000E+00 0.  1.
        -11    1    4    4    0    0  0.56370860786E-01 -0.25722398698E-01  0.10516535936E-01  0.62850412804E-01  0.51100000000E-03 0.  1.
         11    1    4    4    0    0  0.66320664143E-01 -0.78046772940E-02  0.12763638963E-01  0.67989080598E-01  0.51100000000E-03 0. -1.
</event>
<event>
 8    1  0.1128298E+005  0.1043930E+01  0.7957747E-01            NaN
         13   -1    0    0    0    0  0.00000000000E+00  0.00000000000E+00  0.74505805969E-08  0.10566000000E+00  0.10566000000E+00 0. -1.
     999900   -1    0    0    0    0 -0.00000000000E+00 -0.00000000000E+00 -0.74505805969E-08  0.93827000000E+00  0.93827000000E+00 0. -1.
     999902    2    1    2    0    0  0.10631692800E-01  0.13175775420E-01 -0.17461242245E-01  0.10196086322E+01  0.10193185145E+01 0.  0.
     999903    2    3    3    0    0  0.87318562312E-01 -0.87959091497E-02  0.92649705083E-01  0.12916601667E+00  0.19949753580E-01 0.  0.
         14    1    1    2    0    0 -0.10631692800E-01 -0.13175775420E-01  0.17461242245E-01  0.24321367775E-01  0.00000000000E+00 0. -1.
     999901    1    3    3    0    0 -0.76686869512E-01  0.21971684570E-01 -0.11011094733E+00  0.89044261556E+00  0.88000000000E+00 0. -1.
        -11    1    4    4    0    0  0.45113153387E-01 -0.38807816032E-02  0.61983602367E-01  0.76762524435E-01  0.51100000000E-03 0. -1.
         11    1    4    4    0    0  0.42205408925E-01 -0.49151275465E-02  0.30666102716E-01  0.52403492233E-01  0.51100000000E-03 0.  1.
</event>
<event>
 8    1  0.1128298E+005  0.1043930E+01  0.7957747E-01            NaN
         13   -1    0    0    0    0  0.00000000000E+00  0.00000000000E+00  0.74505805969E-08  0.10566000000E+00  0.10566000000E+00 0. -1.
     999900   -1    0    0    0    0 -0.00000000000E+00 -0.00000000000E+00 -0.74505805969E-08  0.93827000000E+00  0.93827000000E+00 0.  1.
     999902    2    1    2    0    0  0.62006025770E-02 -0.19714932715E-01 -0.12264178797E-01  0.10198980187E+01  0.10196148451E+01 0.  0.
     999903    2    3    3    0    0  0.28199810626E-01  0.11264179625E+00  0.48082324042E-01  0.12768505685E+00  0.22542410650E-01 0.  0.
         14    1    1    2    0    0 -0.62006025770E-02  0.19714932715E-01  0.12264178797E-01  0.24031981313E-01  0.00000000000E+00 0. -1.
     999901    1    3    3    0    0 -0.21999208049E-01 -0.13235672896E+00 -0.60346502839E-01  0.89221296183E+00  0.88000000000E+00 0. -1.
        -11    1    4    4    0    0  0.10437078937E-01  0.57603890469E-01  0.35598520830E-01  0.68517564319E-01  0.51100000000E-03 0.  1.
         11    1    4    4    0    0  0.17762731688E-01  0.55037905777E-01  0.12483803212E-01  0.59167492536E-01  0.51100000000E-03 0. -1.
</event>
<event>
 8    1  0.1128298E+005  0.1043930E+01  0.7957747E-01            NaN
         13   -1    0    0    0    0  0.00000000000E+00  0.00000000000E+00  0.74505805969E-08  0.10566000000E+00  0.10566000000E+00 0.  1.
     999900   -1    0    0    0    0 -0.00000000000E+00 -0.00000000000E+00 -0.74505805969E-08  0.93827000000E+00  0.93827000000E+00 0. -1.
     999902    2    1    2    0    0 -0.12856746847E-01  0.15523795911E-01 -0.11312548965E-01  0.10208159795E+01  0.10205542642E+01 0.  0.
     999903    2    3    3    0    0  0.10446225799E-01  0.92594183532E-01 -0.93326991169E-01  0.13334246334E+00  0.19684480963E-01 0.  0.
         14    1    1    2    0    0  0.12856746847E-01 -0.15523795911E-01  0.11312548965E-01  0.23114020487E-01  0.00000000000E+00 0. -1.
     999901    1    3    3    0    0 -0.23302972647E-01 -0.77070387621E-01  0.82014442204E-01  0.88747351618E+00  0.88000000000E+00 0.  1.
        -11    1    4    4    0    0  0.65692665257E-02  0.79873630767E-01 -0.69645016053E-01  0.10617740596E+00  0.51100000000E-03 0.  1.
         11    1    4    4    0    0  0.38769592736E-02  0.12720552765E-01 -0.23681975117E-01  0.27165057377E-01  0.51100000000E-03 0. -1.
</event>
<event>
 8    1  0.1128298E+005  0.1043930E+01  0.7957747E-01            NaN
         13   -1    0    0    0    0  0.00000000000E+00  0.00000000000E+00  0.74505805969E-08  0.10566000000E+00  0.10566000000E+00 0. -1.
     999900   -1    0    0    0    0 -0.00000000000E+00 -0.00000000000E+00 -0.74505805969E-08  0.93827000000E+00  0.93827000000E+00 0. -1.
     999902    2    1    2    0    0 -0.21571491563E-01  0.66787005981E-02 -0.55957555905E-02  0.10206652892E+01  0.10204001106E+01 0.  0.
     999903    2    3    3    0    0 -0.73333058094E-01  0.92961980069E-01  0.56341710013E-01  0.13276872214E+00  0.20820137901E-01 0.  0.
         14    1    1    2    0    0  0.21571491563E-01 -0.66787005981E-02  0.55957555905E-02  0.23264710842E-01  0.00000000000E+00 0.  1.
     999901    1    3    3    0    0  0.51761566532E-01 -0.86283279471E-01 -0.61937465604E-01  0.88789656702E+00  0.88000000000E+00 0. -1.
        -11    1    4    4    0    0 -0.12761072300E-01  0.26181388510E-01  0.21083765239E-01  0.35959648889E-01  0.51100000000E-03 0. -1.
         11    1    4    4    0    0 -0.60571985794E-01  0.66780591559E-01  0.35257944775E-01  0.96809073246E-01  0.51100000000E-03 0.  1.
</event>
<event>
 8    1  0.1128298E+005  0.1043930E+01  0.7957747E-01            NaN
         13   -1    0    0    0    0  0.00000000000E+00  0.00000000000E+00  0.74505805969E-08  0.10566000000E+00  0.10566000000E+00 0. -1.
     999900   -1    0    0    0    0 -0.00000000000E+00 -0.00000000000E+00 -0.74505805969E-08  0.93827000000E+00  0.93827000000E+00 0.  1.
     999902    2    1    2    0    0  0.14194630144E-01  0.14521894195E-01  0.11734515508E-01  0.10204763907E+01  0.10202068379E+01 0.  0.
     999903    2    3    3    0    0 -0.67754942522E-01 -0.45661430865E-01 -0.96416717031E-01  0.12804462624E+00  0.20580196356E-01 0.  0.
         14    1    1    2    0    0 -0.14194630144E-01 -0.14521894195E-01 -0.11734515508E-01  0.23453609320E-01  0.00000000000E+00 0. -1.
     999901    1    3    3    0    0  0.81949572666E-01  0.60183325061E-01  0.10815123254E+00  0.89243176444E+00  0.88000000000E+00 0. -1.
        -11    1    4    4    0    0 -0.46184288720E-01 -0.35735707581E-01 -0.80511627453E-01  0.99460608268E-01  0.51100000000E-03 0.  1.
         11    1    4    4    0    0 -0.21570653802E-01 -0.99257232841E-02 -0.15905089578E-01  0.28584017975E-01  0.51100000000E-03 0. -1.
</event>
<event>
 8    1  0.1128298E+005  0.1043930E+01  0.7957747E-01            NaN
         13   -1    0    0    0    0  0.00000000000E+00  0.00000000000E+00  0.74505805969E-08  0.10566000000E+00  0.10566000000E+00 0. -1.
     999900   -1    0    0    0    0 -0.00000000000E+00 -0.00000000000E+00 -0.74505805969E-08  0.93827000000E+00  0.93827000000E+00 0. -1.
     999902    2    1    2    0    0 -0.18504736127E-01 -0.12628496793E-01 -0.66314018873E-02  0.10205659318E+01  0.10202984571E+01 0.  0.
     999903    2    3    3    0    0  0.74629982314E-01 -0.37469304534E-01  0.96610088889E-01  0.12930281304E+00  0.20300865532E-01 0.  0.
         14    1    1    2    0    0  0.18504736127E-01  0.12628496793E-01  0.66314018873E-02  0.23364068168E-01  0.00000000000E+00 0. -1.
     999901    1    3    3    0    0 -0.93134718441E-01  0.24840807741E-01 -0.10324149078E+00  0.89126311880E+00  0.88000000000E+00 0.  1.
        -11    1    4    4    0    0  0.27036437890E-01 -0.45594487481E-02  0.23894370458E-01  0.36372511698E-01  0.51100000000E-03 0.  1.
         11    1    4    4    0    0  0.47593544424E-01 -0.32909855786E-01  0.72715718431E-01  0.92930301337E-01  0.51100000000E-03 0. -1.
</event>
<event>
 8    1  0.1128298E+005  0.1043930E+01  0.7957747E-01            NaN
         13   -1    0    0    0    0  0.00000000000E+00  0.00000000000E+00  0.74505805969E-08  0.10566000000E+00  0.10566000000E+00 0.  1.
     999900   -1    0    0    0    0 -0.00000000000E+00 -0.00000000000E+00 -0.74505805969E-08  0.93827000000E+00  0.93827000000E+00 0.  1.
     999902    2    1    2    0    0 -0.85875398678E-02 -0.14686232163E-01  0.17203471020E-01  0.10197351520E+01  0.10194480808E+01 0.  0.
     999903    2    3    3    0    0  0.47278029396E-01 -0.44375594830E-01  0.11340756437E+00  0.13223436455E+00  0.20499903242E-01 0.  0.
         14    1    1    2    0    0  0.85875398678E-02  0.14686232163E-01 -0.17203471020E-01  0.24194848032E-01  0.00000000000E+00 0. -1.
     999901    1    3    3    0    0 -0.55865569264E-01  0.29689362667E-01 -0.96204093348E-01  0.88750078741E+00  0.88000000000E+00 0.  1.
        -11    1    4    4    0    0 -0.12745706472E-02 -0.46571348742E-02  0.12588398647E-01  0.13492306588E-01  0.51100000000E-03 0. -1.
         11    1    4    4    0    0  0.48552600043E-01 -0.39718459956E-01  0.10081916572E+00  0.11874205797E+00  0.51100000000E-03 0.  1.
</event>
<event>
 8    1  0.1128298E+005  0.1043930E+01  0.7957747E-01            NaN
         13   -1    0    0    0    0  0.00000000000E+00  0.00000000000E+00  0.74505805969E-08  0.10566000000E+00  0.10566000000E+00 0.  1.
     999900   -1    0    0    0    0 -0.00000000000E+00 -0.00000000000E+00 -0.74505805969E-08  0.93827000000E+00  0.93827000000E+00 0.  1.
     999902    2    1    2    0    0 -0.42181215993E-03  0.23491266184E-01  0.37874859137E-02  0.10201316269E+01  0.10198539962E+01 0.  0.
     999903    2    3    3    0    0  0.44817528920E-01 -0.10074994572E+00 -0.61541579625E-01  0.12785904326E+00  0.20035130631E-01 0.  0.
         14    1    1    2    0    0  0.42181215993E-03 -0.23491266184E-01 -0.37874859137E-02  0.23798373095E-01  0.00000000000E+00 0.  1.
     999901    1    3    3    0    0 -0.45239341080E-01  0.12424121191E+00  0.65329065538E-01  0.89227258364E+00  0.88000000000E+00 0. -1.
        -11    1    4    4    0    0  0.25399954338E-03 -0.10386694486E-01 -0.10992397921E-01  0.15134129349E-01  0.51100000000E-03 0.  1.
         11    1    4    4    0    0  0.44563529376E-01 -0.90363251237E-01 -0.50549181704E-01  0.11272491391E+00  0.51100000000E-03 0. -1.
</event>
<event>
 8    1  0.1128298E+005  0.1043930E+01  0.7957747E-01            NaN
         13   -1    0    0    0    0  0.00000000000E+00  0.00000000000E+00  0.74505805969E-08  0.10566000000E+00  0.10566000000E+00 0. -1.
     999900   -1    0    0    0    0 -0.00000000000E+00 -0.00000000000E+00 -0.74505805969E-08  0.93827000000E+00  0.93827000000E+00 0. -1.
     999902    2    1    2    0    0  0.81380746025E-02  0.14831783594E-01  0.16289208648E-01  0.10204449328E+01  0.10201746480E+01 0.  0.
     999903    2    3    3    0    0 -0.11820036588E+00 -0.37462606252E-01 -0.28239835705E-01  0.12877294124E+00  0.20253609848E-01 0.  0.
         14    1    1    2    0    0 -0.81380746025E-02 -0.14831783594E-01 -0.16289208648E-01  0.23485067196E-01  0.00000000000E+00 0.  1.
     999901    1    3    3    0    0  0.12633844049E+00  0.52294389847E-01  0.44529044353E-01  0.89167199157E+00  0.88000000000E+00 0.  1.
        -11    1    4    4    0    0 -0.11394549383E+00 -0.33838712027E-01 -0.22949383686E-01  0.12106018887E+00  0.51100000000E-03 0. -1.
         11    1    4    4    0    0 -0.42548720515E-02 -0.36238942250E-02 -0.52904520189E-02  0.77127523682E-02  0.51100000000E-03 0.  1.
</event>
<event>
 8    1  0.1128298E+005  0.1043930E+01  0.7957747E-01            NaN
         13   -1    0    0    0    0  0.00000000000E+00  0.00000000000E+00  0.74505805969E-08  0.10566000000E+00  0.10566000000E+00 0.  1.
     999900   -1    0    0    0    0 -0.00000000000E+00 -0.00000000000E+00 -0.74505805969E-08  0.93827000000E+00  0.93827000000E+00 0.  1.
     999902    2    1    2    0    0  0.13852688251E-01  0.19292818618E-01  0.36127695717E-03  0.10201762562E+01  0.10198996781E+01 0.  0.
     999903    2    3    3    0    0  0.10124330453E+00  0.73234245442E-01 -0.41626294404E-01  0.13320965399E+00  0.19965022264E-01 0.  0.
         14    1    1    2    0    0 -0.13852688251E-01 -0.19292818618E-01 -0.36127695717E-03  0.23753743768E-01  0.00000000000E+00 0.  1.
     999901    1    3    3    0    0 -0.87390616275E-01 -0.53941426824E-01  0.41987571362E-01  0.88696660224E+00  0.88000000000E+00 0. -1.
        -11    1    4    4    0    0  0.50252215161E-01  0.44808255106E-01 -0.14690223580E-01  0.68913921990E-01  0.51100000000E-03 0.  1.
         11    1    4    4    0    0  0.50991089364E-01  0.28425990336E-01 -0.26936070824E-01  0.64295732001E-01  0.51100000000E-03 0. -1.
</event>
<event>
 8    1  0.1128298E+005  0.1043930E+01  0.7957747E-01            NaN
         13   -1    0    0    0    0  0.00000000000E+00  0.00000000000E+00  0.74505805969E-08  0.10566000000E+00  0.10566000000E+00 0. -1.
     999900   -1    0    0    0    0 -0.00000000000E+00 -0.00000000000E+00 -0.74505805969E-08  0.93827000000E+00  0.93827000000E+00 0.  1.
     999902    2    1    2    0    0 -0.23006796495E-01  0.12845858582E-02  0.64907334322E-02  0.10199906503E+01  0.10197096813E+01 0.  0.
     999903    2    3    3    0    0  0.12180445958E+00 -0.20219334117E-01 -0.23948868314E-01  0.12737691083E+00  0.20153939375E-01 0.  0.
         14    1    1    2    0    0  0.23006796495E-01 -0.12845858582E-02 -0.64907334322E-02  0.23939349746E-01  0.00000000000E+00 0.  1.
     999901    1    3    3    0    0 -0.14481125608E+00  0.21503919975E-01  0.30439601746E-01  0.89261373943E+00  0.88000000000E+00 0.  1.
        -11    1    4    4    0    0  0.41798869742E-01  0.26724533094E-02 -0.79067423350E-02  0.42627047912E-01  0.51100000000E-03 0.  1.
         11    1    4    4    0    0  0.80005589838E-01 -0.22891787426E-01 -0.16042125979E-01  0.84749862914E-01  0.51100000000E-03 0. -1.
</event>
<event>
 8    1  0.1128298E+005  0.1043930E+01  0.7957747E-01            NaN
         13   -1    0    0    0    0  0.00000000000E+00  0.00000000000E+00  0.74505805969E-08  0.10566000000E+00  0.10566000000E+00 0.  1.
     999900   -1    0    0    0    0 -0.00000000000E+00 -0.00000000000E+00 -0.74505805969E-08  0.93827000000E+00  0.93827000000E+00 0. -1.
     999902    2    1    2    0    0 -0.17715391655E-01 -0.61172490254E-02 -0.15551608031E-01  0.10195761841E+01  0.10192852823E+01 0.  0.
     999903    2    3    3    0    0  0.19144062398E-01 -0.24570227446E-01  0.12239530247E+00  0.12787641293E+00  0.20039354142E-01 0.  0.
         14    1    1    2    0    0  0.17715391655E-01  0.61172490254E-02  0.15551608031E-01  0.24353815912E-01  0.00000000000E+00 0.  1.
     999901    1    3    3    0    0 -0.36859454053E-01  0.18452978420E-01 -0.13794691050E+00  0.89169977116E+00  0.88000000000E+00 0. -1.
        -11    1    4    4    0    0  0.15412730751E-01 -0.41405087900E-02  0.45319517635E-01  0.48050139249E-01  0.51100000000E-03 0. -1.
         11    1    4    4    0    0  0.37313316471E-02 -0.20429718656E-01  0.77075784839E-01  0.79826273681E-01  0.51100000000E-03 0.  1.
</event>
<event>
 8    1  0.1128298E+005  0.1043930E+01  0.7957747E-01            NaN
         13   -1    0    0    0    0  0.00000000000E+00  0.00000000000E+00  0.74505805969E-08  0.10566000000E+00  0.10566000000E+00 0.  1.
     999900   -1    0    0    0    0 -0.00000000000E+00 -0.00000000000E+00 -0.74505805969E-08  0.93827000000E+00  0.93827000000E+00 0.  1.
     999902    2    1    2    0    0 -0.14939717361E-02 -0.16681770797E-01  0.14706380570E-01  0.10216411898E+01  0.10213980271E+01 0.  0.
     999903    2    3    3    0    0 -0.69466783037E-01 -0.90430727094E-01  0.67492938610E-01  0.13437255390E+00  0.22301034302E-01 0.  0.
         14    1    1    2    0    0  0.14939717361E-02  0.16681770797E-01 -0.14706380570E-01  0.22288810151E-01  0.00000000000E+00 0. -1.
     999901    1    3    3    0    0  0.67972811301E-01  0.73748956297E-01 -0.52786558040E-01  0.88726863595E+00  0.88000000000E+00 0.  1.
        -11    1    4    4    0    0 -0.46985038508E-01 -0.63858399471E-01  0.58174570239E-01  0.98336314606E-01  0.51100000000E-03 0. -1.
         11    1    4    4    0    0 -0.22481744528E-01 -0.26572327623E-01  0.93183683704E-02  0.36036239293E-01  0.51100000000E-03 0.  1.
</event>
<event>
 8    1  0.1128298E+005  0.1043930E+01  0.7957747E-01            NaN
         13   -1    0    0    0    0  0.00000000000E+00  0.00000000000E+00  0.74505805969E-08  0.10566000000E+00  0.10566000000E+00 0.  1.
     999900   -1    0    0    0    0 -0.00000000000E+00 -0.00000000000E+00 -0.74505805969E-08  0.93827000000E+00  0.93827000000E+00 0. -1.
     999902    2    1    2    0    0 -0.13190586962E-01 -0.33149590697E-02 -0.19050811941E-01  0.10205224377E+01  0.10202539546E+01 0.  0.
     999903    2    3    3    0    0  0.25393367241E-01 -0.11076725135E+00 -0.64180061564E-01  0.13200042568E+00  0.19769294526E-01 0.  0.
         14    1    1    2    0    0  0.13190586962E-01  0.33149590697E-02  0.19050811941E-01  0.23407562317E-01  0.00000000000E+00 0.  1.
     999901    1    3    3    0    0 -0.38583954204E-01  0.10745229228E+00  0.45129249624E-01  0.88852201200E+00  0.88000000000E+00 0.  1.
        -11    1    4    4    0    0  0.27559043741E-02 -0.85623580343E-02 -0.12077803332E-01  0.15067960656E-01  0.51100000000E-03 0. -1.
         11    1    4    4    0    0  0.22637462867E-01 -0.10220489332E+00 -0.52102258233E-01  0.11693246503E+00  0.51100000000E-03 0.  1.
</event>
<event>
 8    1  0.1128298E+005  0.1043930E+01  0.7957747E-01            NaN
         13   -1    0    0    0    0  0.00000000000E+00  0.00000000000E+00  0.74505805969E-08  0.10566000000E+00  0.10566000000E+00 0. -1.
     999900   -1    0    0    0    0 -0.00000000000E+00 -0.00000000000E+00 -0.74505805969E-08  0.93827000000E+00  0.93827000000E+00 0.  1.
     999902    2    1    2    0    0 -0.17919930951E-01 -0.15787219723E-01  0.20928873467E-02  0.10199562558E+01  0.10196744693E+01 0.  0.
     999903    2    3    3    0    0 -0.66692161624E-01  0.10245741060E+00 -0.36170718695E-01  0.12988624363E+00  0.24834451556E-01 0.  0.
         14    1    1    2    0    0  0.17919930951E-01  0.15787219723E-01 -0.20928873467E-02  0.23973744166E-01  0.00000000000E+00 0.  1.
     999901    1    3    3    0    0  0.48772230673E-01 -0.11824463032E+00  0.38263606041E-01  0.89007001221E+00  0.88000000000E+00 0.  1.
        -11    1    4    4    0    0 -0.45977576105E-01  0.77100381804E-01 -0.37081024168E-01  0.97127080946E-01  0.51100000000E-03 0.  1.
         11    1    4    4    0    0 -0.20714585519E-01  0.25357028793E-01  0.91030547288E-03  0.32759162680E-01  0.51100000000E-03 0. -1.
</event>
<event>
 8    1  0.1128298E+005  0.1043930E+01  0.7957747E-01            NaN
         13   -1    0    0    0    0  0.00000000000E+00  0.00000000000E+00  0.74505805969E-08  0.10566000000E+00  0.10566000000E+00 0. -1.
     999900   -1    0    0    0    0 -0.00000000000E+00 -0.00000000000E+00 -0.74505805969E-08  0.93827000000E+00  0.93827000000E+00 0. -1.
     999902    2    1    2    0    0 -0.36445422767E-02 -0.19566015794E-01 -0.13510138964E-01  0.10198751561E+01  0.10195914370E+01 0.  0.
     999903    2    3    3    0    0  0.58927755659E-01 -0.75349754564E-01 -0.88657036829E-01  0.13270314667E+00  0.24494674038E-01 0.  0.
         14    1    1    2    0    0  0.36445422767E-02  0.19566015794E-01  0.13510138964E-01  0.24054843946E-01  0.00000000000E+00 0. -1.
     999901    1    3    3    0    0 -0.62572297936E-01  0.55783738769E-01  0.75146897865E-01  0.88717200939E+00  0.88000000000E+00 0.  1.
        -11    1    4    4    0    0  0.20755566614E-01 -0.99722257973E-02 -0.21078035319E-01  0.31221523453E-01  0.51100000000E-03 0. -1.
         11    1    4    4    0    0  0.38172189046E-01 -0.65377528766E-01 -0.67579001510E-01  0.10148162321E+00  0.51100000000E-03 0.  1.
</event>
<event>
 8    1  0.1128298E+005  0.1043930E+01  0.7957747E-01            NaN
         13   -1    0    0    0    0  0.00000000000E+00  0.00000000000E+00  0.74505805969E-08  0.10566000000E+00  0.10566000000E+00 0.  1.
     999900   -1    0    0    0    0 -0.00000000000E+00 -0.00000000000E+00 -0.74505805969E-08  0.93827000000E+00  0.93827000000E+00 0. -1.
     999902    2    1    2    0    0 -0.23683151468E-03 -0.94517812773E-02  0.21949051934E-01  0.10200311896E+01  0.10197511827E+01 0.  0.
     999903    2    3    3    0    0  0.83077344920E-01  0.27574017879E-01 -0.91324916910E-01  0.12809893105E+00  0.20172356987E-01 0.  0.
         14    1    1    2    0    0  0.23683151468E-03  0.94517812773E-02 -0.21949051934E-01  0.23898810415E-01  0.00000000000E+00 0.  1.
     999901    1    3    3    0    0 -0.83314176435E-01 -0.37025799157E-01  0.11327396884E+00  0.89193225854E+00  0.88000000000E+00 0.  1.
        -11    1    4    4    0    0  0.36697883886E-01  0.14239565028E-01 -0.55271701052E-01  0.67858101596E-01  0.51100000000E-03 0.  1.
         11    1    4    4    0    0  0.46379461033E-01  0.13334452851E-01 -0.36053215858E-01  0.60240829454E-01  0.51100000000E-03 0. -1.
</event>
<event>
 8    1  0.1128298E+005  0.1043930E+01  0.7957747E-01            NaN
         13   -1    0    0    0    0  0.00000000000E+00  0.00000000000E+00  0.74505805969E-08  0.10566000000E+00  0.10566000000E+00 0. -1.
     999900   -1    0    0    0    0 -0.00000000000E+00 -0.00000000000E+00 -0.74505805969E-08  0.93827000000E+00  0.93827000000E+00 0. -1.
     999902    2    1    2    0    0 -0.41815653599E-03  0.10822686350E-01 -0.21054946273E-01  0.10202526657E+01  0.10199778850E+01 0.  0.
     999903    2    3    3    0    0  0.28778489901E-01  0.30529308463E-01 -0.12512936481E+00  0.13341994211E+00  0.19577611194E-01 0.  0.
         14    1    1    2    0    0  0.41815653599E-03 -0.10822686350E-01  0.21054946273E-01  0.23677334252E-01  0.00000000000E+00 0. -1.
     999901    1    3    3    0    0 -0.29196646437E-01 -0.19706622113E-01  0.10407441853E+00  0.88683272364E+00  0.88000000000E+00 0.  1.
        -11    1    4    4    0    0  0.31429788763E-01  0.29122644765E-01 -0.11140717386E+00  0.11936406313E+00  0.51100000000E-03 0. -1.
         11    1    4    4    0    0 -0.26512988623E-02  0.14066636980E-02 -0.13722190949E-01  0.14055878979E-01  0.51100000000E-03 0.  1.
</event>
<event>
 8    1  0.1128298E+005  0.1043930E+01  0.7957747E-01            NaN
         13   -1    0    0    0    0  0.00000000000E+00  0.00000000000E+00  0.74505805969E-08  0.10566000000E+00  0.10566000000E+00 0. -1.
     999900   -1    0    0    0    0 -0.00000000000E+00 -0.00000000000E+00 -0.74505805969E-08  0.93827000000E+00  0.93827000000E+00 0. -1.
     999902    2    1    2    0    0  0.91412682415E-03  0.11085294060E-02  0.23744552804E-01  0.10201420145E+01  0.10198646290E+01 0.  0.
     999903    2    3    3    0    0 -0.47557374892E-01  0.69196326066E-01  0.10127170600E+00  0.13278870607E+00  0.18084429141E-01 0.  0.
         14    1    1    2    0    0 -0.91412682415E-03 -0.11085294060E-02 -0.23744552804E-01  0.23787985479E-01  0.00000000000E+00 0.  1.
     999901    1    3    3    0    0  0.48471501716E-01 -0.68087796660E-01 -0.77527153193E-01  0.88735330845E+00  0.88000000000E+00 0. -1.
        -11    1    4    4    0    0 -0.24919336146E-01  0.48046396347E-01  0.55572971676E-01  0.77576064722E-01  0.51100000000E-03 0. -1.
         11    1    4    4    0    0 -0.22638038746E-01  0.21149929719E-01  0.45698734321E-01  0.55212641350E-01  0.51100000000E-03 0.  1.
</event>
<event>
 8    1  0.1128298E+005  0.1043930E+01  0.7957747E-01            NaN
         13   -1    0    0    0    0  0.00000000000E+00  0.00000000000E+00  0.74505805969E-08  0.10566000000E+00  0.10566000000E+00 0. -1.
     999900   -1    0    0    0    0 -0.00000000000E+00 -0.00000000000E+00 -0.74505805969E-08  0.93827000000E+00  0.93827000000E+00 0.  1.
     999902    2    1    2    0    0  0.20832554604E-01 -0.21065258321E-02  0.73412670398E-02  0.10217415574E+01  0.10215006036E+01 0.  0.
     999903    2    3    3    0    0  0.12221274996E+00  0.22125535649E-01  0.48097300417E-01  0.13465295357E+00  0.19813430260E-01 0.  0.
         14    1    1    2    0    0 -0.20832554604E-01  0.21065258321E-02 -0.73412670398E-02  0.22188442581E-01  0.00000000000E+00 0.  1.
     999901    1    3    3    0    0 -0.10138019536E+00 -0.24232061481E-01 -0.40756033377E-01  0.88708860384E+00  0.88000000000E+00 0.  1.
        -11    1    4    4    0    0  0.77760063323E-01  0.20858606439E-01  0.23698230310E-01  0.83926015939E-01  0.51100000000E-03 0.  1.
         11    1    4    4    0    0  0.44452686636E-01  0.12669292093E-02  0.24399070107E-01  0.50726937635E-01  0.51100000000E-03 0. -1.
</event>
<event>
 8    1  0.1128298E+005  0.1043930E+01  0.7957747E-01            NaN
         13   -1    0    0    0    0  0.00000000000E+00  0.00000000000E+00  0.74505805969E-08  0.10566000000E+00  0.10566000000E+00 0.  1.
     999900   -1    0    0    0    0 -0.00000000000E+00 -0.00000000000E+00 -0.74505805969E-08  0.93827000000E+00  0.93827000000E+00 0.  1.
     999902    2    1    2    0    0  0.47461541658E-02 -0.13330015838E-02  0.23559165465E-01  0.10198605765E+01  0.10195765093E+01 0.  0.
     999903    2    3    3    0    0 -0.89421723988E-02  0.89657107823E-02  0.13100686345E+00  0.13315970154E+00  0.20207954536E-01 0.  0.
         14    1    1    2    0    0 -0.47461541658E-02  0.13330015838E-02 -0.23559165465E-01  0.24069423549E-01  0.00000000000E+00 0. -1.
     999901    1    3    3    0    0  0.13688326565E-01 -0.10298712366E-01 -0.10744769799E+00  0.88670087491E+00  0.88000000000E+00 0.  1.
        -11    1    4    4    0    0 -0.13495512091E-02 -0.64539290643E-02  0.39901607740E-01  0.40445938116E-01  0.51100000000E-03 0. -1.
         11    1    4    4    0    0 -0.75926211897E-02  0.15419639847E-01  0.91105255712E-01  0.92713763427E-01  0.51100000000E-03 0.  1.
</event>
<event>
 8    1  0.1128298E+005  0.1043930E+01  0.7957747E-01            NaN
         13   -1    0    0    0    0  0.00000000000E+00  0.00000000000E+00  0.74505805969E-08  0.10566000000E+00  0.10566000000E+00 0. -1.
     999900   -1    0    0    0    0 -0.00000000000E+00 -0.00000000000E+00 -0.74505805969E-08  0.93827000000E+00  0.93827000000E+00 0.  1.
     999902    2    1    2    0    0  0.14482468754E-01 -0.33880554294E-02  0.19558200099E-01  0.10193587971E+01  0.10190626150E+01 0.  0.
     999903    2    3    3    0    0 -0.11053807353E+00  0.58509958186E-01 -0.16204731309E-01  0.12765229418E+00  0.19759402470E-01 0.  0.
         14    1    1    2    0    0 -0.14482468754E-01  0.33880554294E-02 -0.19558200099E-01  0.24571202899E-01  0.00000000000E+00 0.  1.
     999901    1    3    3    0    0  0.12502054229E+00 -0.61898013616E-01  0.35762931408E-01  0.89170650292E+00  0.88000000000E+00 0. -1.
        -11    1    4    4    0    0 -0.22944441116E-01  0.20695918205E-01 -0.78093804563E-02  0.31875005138E-01  0.51100000000E-03 0.  1.
         11    1    4    4    0    0 -0.87593632418E-01  0.37814039982E-01 -0.83953508530E-02  0.95777289045E-01  0.51100000000E-03 0. -1.
</event>
<event>
 8    1  0.1128298E+005  0.1043930E+01  0.7957747E-01            NaN
         13   -1    0    0    0    0  0.00000000000E+00  0.00000000000E+00  0.74505805969E-08  0.10566000000E+00  0.10566000000E+00 0. -1.
     999900   -1    0    0    0    0 -0.00000000000E+00 -0.00000000000E+00 -0.74505805969E-08  0.93827000000E+00  0.93827000000E+00 0.  1.
     999902    2    1    2    0    0  0.17555524698E-01  0.10653492423E-01  0.12501946350E-01  0.10198885356E+01  0.10196051358E+01 0.  0.
     999903    2    3    3    0    0 -0.52309781278E-01  0.15192773296E-01  0.11745586620E+00  0.13089073394E+00  0.19219004928E-01 0.  0.
         14    1    1    2    0    0 -0.17555524698E-01 -0.10653492423E-01 -0.12501946350E-01  0.24041464405E-01  0.00000000000E+00 0.  1.
     999901    1    3    3    0    0  0.69865305976E-01 -0.45392808731E-02 -0.10495391985E+00  0.88899780165E+00  0.88000000000E+00 0.  1.
        -11    1    4    4    0    0 -0.14367002087E-01  0.97152254121E-02  0.21970175363E-01  0.27995465352E-01  0.51100000000E-03 0.  1.
         11    1    4    4    0    0 -0.37942779190E-01  0.54775478839E-02  0.95485690833E-01  0.10289526859E+00  0.51100000000E-03 0. -1.
</event>
<event>
 8    1  0.1128298E+005  0.1043930E+01  0.7957747E-01            NaN
         13   -1    0    0    0    0  0.00000000000E+00  0.00000000000E+00  0.74505805969E-08  0.10566000000E+00  0.10566000000E+00 0.  1.
     999900   -1    0    0    0    0 -0.00000000000E+00 -0.00000000000E+00 -0.74505805969E-08  0.93827000000E+00  0.93827000000E+00 0. -1.
     999902    2    1    2    0    0 -0.17412914744E-01 -0.16108700501E-01  0.58092512324E-02  0.10195077308E+01  0.10192151716E+01 0.  0.
     999903    2    3    3    0    0 -0.18756695869E-01  0.10019836977E+00 -0.75227933293E-01  0.12816258689E+00  0.19361812591E-01 0.  0.
         14    1    1    2    0    0  0.17412914744E-01  0.16108700501E-01 -0.58092512324E-02  0.24422269174E-01  0.00000000000E+00 0.  1.
     999901    1    3    3    0    0  0.13437811248E-02 -0.11630707027E+00  0.81037184525E-01  0.89134514394E+00  0.88000000000E+00 0. -1.
        -11    1    4    4    0    0  0.15004055787E-02  0.20134471080E-01 -0.82025986799E-02  0.21798896501E-01  0.51100000000E-03 0. -1.
         11    1    4    4    0    0 -0.20257101448E-01  0.80063898688E-01 -0.67025334613E-01  0.10636369039E+00  0.51100000000E-03 0.  1.
</event>
<event>
 8    1  0.1128298E+005  0.1043930E+01  0.7957747E-01            NaN
         13   -1    0    0    0    0  0.00000000000E+00  0.00000000000E+00  0.74505805969E-08  0.10566000000E+00  0.10566000000E+00 0.  1.
     999900   -1    0    0    0    0 -0.00000000000E+00 -0.00000000000E+00 -0.74505805969E-08  0.93827000000E+00  0.93827000000E+00 0.  1.
     999902    2    1    2    0    0 -0.18669564508E-01  0.10516942391E-01 -0.95540293089E-02  0.10204685808E+01  0.10201988464E+01 0.  0.
     999903    2    3    3    0    0 -0.56687979060E-01 -0.95741841774E-01 -0.66483928161E-01  0.13143689267E+00  0.21806348062E-01 0.  0.
         14    1    1    2    0    0  0.18669564508E-01 -0.10516942391E-01  0.95540293089E-02  0.23461419229E-01  0.00000000000E+00 0.  1.
     999901    1    3    3    0    0  0.38018414552E-01  0.10625878417E+00  0.56929898852E-01  0.88903168810E+00  0.88000000000E+00 0. -1.
        -11    1    4    4    0    0 -0.13985540096E-01 -0.10562740006E-01 -0.15323209635E-01  0.23285804318E-01  0.51100000000E-03 0.  1.
         11    1    4    4    0    0 -0.42702438964E-01 -0.85179101768E-01 -0.51160718527E-01  0.10815108836E+00  0.51100000000E-03 0. -1.
</event>
<event>
 8    1  0.1128298E+005  0.1043930E+01  0.7957747E-01            NaN
         13   -1    0    0    0    0  0.00000000000E+00  0.00000000000E+00  0.74505805969E-08  0.10566000000E+00  0.10566000000E+00 0. -1.
     999900   -1    0    0    0    0 -0.00000000000E+00 -0.00000000000E+00 -0.74505805969E-08  0.93827000000E+00  0.93827000000E+00 0. -1.
     999902    2    1    2    0    0  0.49204021381E-02 -0.12341740235E-01 -0.21156746890E-01  0.10189472690E+01  0.10186409574E+01 0.  0.
     999903    2    3    3    0    0 -0.39972006832E-01  0.57144264051E-01 -0.10875358916E+00  0.13073736141E+00  0.20042112376E-01 0.  0.
         14    1    1    2    0    0 -0.49204021381E-02  0.12341740235E-01  0.21156746890E-01  0.24982731000E-01  0.00000000000E+00 0. -1.
     999901    1    3    3    0    0  0.44892408970E-01 -0.69486004286E-01  0.87596842267E-01  0.88820990759E+00  0.88000000000E+00 0.  1.
        -11    1    4    4    0    0 -0.36310765160E-01  0.52292535184E-01 -0.10679346979E+00  0.12433055623E+00  0.51100000000E-03 0. -1.
         11    1    4    4    0    0 -0.36612416714E-02  0.48517288662E-02 -0.19601193668E-02  0.64068051710E-02  0.51100000000E-03 0.  1.
</event>
<event>
 8    1  0.1128298E+005  0.1043930E+01  0.7957747E-01            NaN
         13   -1    0    0    0    0  0.00000000000E+00  0.00000000000E+00  0.74505805969E-08  0.10566000000E+00  0.10566000000E+00 0.  1.
     999900   -1    0    0    0    0 -0.00000000000E+00 -0.00000000000E+00 -0.74505805969E-08  0.93827000000E+00  0.93827000000E+00 0. -1.
     999902    2    1    2    0    0 -0.23649459012E-01  0.21509590095E-02  0.25473008783E-02  0.10200466946E+01  0.10197670552E+01 0.  0.
     999903    2    3    3    0    0  0.62900252139E-01  0.10613254745E+00  0.32476046689E-01  0.12920509639E+00  0.20462257379E-01 0.  0.
         14    1    1    2    0    0  0.23649459012E-01 -0.21509590095E-02 -0.25473008783E-02  0.23883305424E-01  0.00000000000E+00 0. -1.
     999901    1    3    3    0    0 -0.86549711150E-01 -0.10398158844E+00 -0.29928745810E-01  0.89084159819E+00  0.88000000000E+00 0. -1.
        -11    1    4    4    0    0  0.32174238311E-01  0.65157883365E-01  0.10316655679E-01  0.73399086377E-01  0.51100000000E-03 0.  1.
         11    1    4    4    0    0  0.30726013828E-01  0.40974664085E-01  0.22159391009E-01  0.55806010013E-01  0.51100000000E-03 0. -1.
</event>
<event>
 8    1  0.1128298E+005  0.1043930E+01  0.7957747E-01            NaN
         13   -1    0    0    0    0  0.00000000000E+00  0.00000000000E+00  0.74505805969E-08  0.10566000000E+00  0.10566000000E+00 0.  1.
     999900   -1    0    0    0    0 -0.00000000000E+00 -0.00000000000E+00 -0.74505805969E-08  0.93827000000E+00  0.93827000000E+00 0.  1.
     999902    2    1    2    0    0  0.12589908414E-01  0.15426818476E-01  0.11136857516E-01  0.10211150462E+01  0.10208601351E+01 0.  0.
     999903    2    3    3    0    0 -0.25939726562E-01  0.11588509257E+00 -0.54818985156E-01  0.13211191302E+00  0.18606781875E-01 0.  0.
         14    1    1    2    0    0 -0.12589908414E-01 -0.15426818476E-01 -0.11136857516E-01  0.22814953813E-01  0.00000000000E+00 0. -1.
     999901    1    3    3    0    0  0.38529634976E-01 -0.10045827410E+00  0.65955842673E-01  0.88900313317E+00  0.88000000000E+00 0.  1.
        -11    1    4    4    0    0 -0.28805083244E-01  0.10073271270E+00 -0.47936213025E-01  0.11521698603E+00  0.51100000000E-03 0. -1.
         11    1    4    4    0    0  0.28653566816E-02  0.15152379870E-01 -0.68827721311E-02  0.16894926985E-01  0.51100000000E-03 0.  1.
</event>
<event>
 8    1  0.1128298E+005  0.1043930E+01  0.7957747E-01            NaN
         13   -1    0    0    0    0  0.00000000000E+00  0.00000000000E+00  0.74505805969E-08  0.10566000000E+00  0.10566000000E+00 0. -1.
     999900   -1    0    0    0    0 -0.00000000000E+00 -0.00000000000E+00 -0.74505805969E-08  0.93827000000E+00  0.93827000000E+00 0. -1.
     999902    2    1    2    0    0  0.14112775638E-01 -0.81143253990E-02  0.17707676663E-01  0.10198764238E+01  0.10195927351E+01 0.  0.
     999903    2    3    3    0    0 -0.12009606610E+00  0.40116658962E-01 -0.10526567427E-02  0.12819812358E+00  0.20030960678E-01 0.  0.
         14    1    1    2    0    0 -0.14112775638E-01  0.81143253990E-02 -0.17707676663E-01  0.24053576152E-01  0.00000000000E+00 0.  1.
     999901    1    3    3    0    0  0.13420884174E+00 -0.48230984361E-01  0.18760333406E-01  0.89167830026E+00  0.88000000000E+00 0.  1.
        -11    1    4    4    0    0 -0.52800644254E-01  0.13269556131E-01 -0.94477048229E-02  0.55258568575E-01  0.51100000000E-03 0. -1.
         11    1    4    4    0    0 -0.67295421845E-01  0.26847102831E-01  0.83950480801E-02  0.72939555009E-01  0.51100000000E-03 0.  1.
</event>
<event>
 8    1  0.1128298E+005  0.1043930E+01  0.7957747E-01            NaN
         13   -1    0    0    0    0  0.00000000000E+00  0.00000000000E+00  0.74505805969E-08  0.10566000000E+00  0.10566000000E+00 0.  1.
     999900   -1    0    0    0    0 -0.00000000000E+00 -0.00000000000E+00 -0.74505805969E-08  0.93827000000E+00  0.93827000000E+00 0.  1.
     999902    2    1    2    0    0 -0.15473927066E-01  0.30154801720E-02 -0.18334503578E-01  0.10197496451E+01  0.10194629219E+01 0.  0.
     999903    2    3    3    0    0 -0.37698012239E-01  0.11004224246E+00 -0.58902417562E-01  0.13205916223E+00  0.20968840728E-01 0.  0.
         14    1    1    2    0    0  0.15473927066E-01 -0.30154801720E-02  0.18334503578E-01  0.24180354856E-01  0.00000000000E+00 0.  1.
     999901    1    3    3    0    0  0.22224085173E-01 -0.10702676229E+00  0.40567913985E-01  0.88769048291E+00  0.88000000000E+00 0. -1.
        -11    1    4    4    0    0 -0.29902799209E-01  0.85754273518E-01 -0.35736805304E-01  0.97597915969E-01  0.51100000000E-03 0. -1.
         11    1    4    4    0    0 -0.77952130306E-02  0.24287968946E-01 -0.23165612259E-01  0.34461246263E-01  0.51100000000E-03 0.  1.
</event>
<event>
 8    1  0.1128298E+005  0.1043930E+01  0.7957747E-01            NaN
         13   -1    0    0    0    0  0.00000000000E+00  0.00000000000E+00  0.74505805969E-08  0.10566000000E+00  0.10566000000E+00 0.  1.
     999900   -1    0    0    0    0 -0.00000000000E+00 -0.00000000000E+00 -0.74505805969E-08  0.93827000000E+00  0.93827000000E+00 0. -1.
     999902    2    1    2    0    0  0.88563059040E-02  0.10929431843E-01 -0.19300258225E-01  0.10200472321E+01  0.10197676055E+01 0.  0.
     999903    2    3    3    0    0  0.92919483304E-01 -0.29855341211E-01  0.82265605950E-01  0.12929157522E+00  0.20574492085E-01 0.  0.
         14    1    1    2    0    0 -0.88563059040E-02 -0.10929431843E-01  0.19300258225E-01  0.23882767893E-01  0.00000000000E+00 0.  1.
     999901    1    3    3    0    0 -0.84063177400E-01  0.40784773054E-01 -0.10156586418E+00  0.89075565689E+00  0.88000000000E+00 0. -1.
        -11    1    4    4    0    0  0.18745165102E-01 -0.11075383071E-01  0.28062116119E-01  0.35521666726E-01  0.51100000000E-03 0. -1.
         11    1    4    4    0    0  0.74174318202E-01 -0.18779958140E-01  0.54203489831E-01  0.93769908496E-01  0.51100000000E-03 0.  1.
</event>
<event>
 8    1  0.1128298E+005  0.1043930E+01  0.7957747E-01            NaN
         13   -1    0    0    0    0  0.00000000000E+00  0.00000000000E+00  0.74505805969E-08  0.10566000000E+00  0.10566000000E+00 0.  1.
     999900   -1    0    0    0    0 -0.00000000000E+00 -0.00000000000E+00 -0.74505805969E-08  0.93827000000E+00  0.93827000000E+00 0.  1.
     999902    2    1    2    0    0  0.18581120209E-01  0.29675530538E-02 -0.15058655326E-01  0.10198296369E+01  0.10195448302E+01 0.  0.
     999903    2    3    3    0    0  0.31431301447E-01 -0.10974110061E+00 -0.61904633919E-01  0.13131238135E+00  0.19486454811E-01 0.  0.
         14    1    1    2    0    0 -0.18581120209E-01 -0.29675530538E-02  0.15058655326E-01  0.24100363059E-01  0.00000000000E+00 0. -1.
     999901    1    3    3    0    0 -0.12850181238E-01  0.11270865367E+00  0.46845978593E-01  0.88851725559E+00  0.88000000000E+00 0. -1.
        -11    1    4    4    0    0  0.22029177760E-02 -0.82905241499E-02 -0.11399957442E-01  0.14276056461E-01  0.51100000000E-03 0.  1.
         11    1    4    4    0    0  0.29228383671E-01 -0.10145057646E+00 -0.50504676477E-01  0.11703632489E+00  0.51100000000E-03 0. -1.
</event>
<event>
 7    1  0.1128298E+005  0.1043930E+01  0.7957747E-01            NaN
         13   -1    0    0    0    0  0.00000000000E+00  0.00000000000E+00  0.74505805969E-08  0.10566000000E+00  0.10566000000E+00 0. -1.
     999900   -1    0    0    0    0 -0.00000000000E+00 -0.00000000000E+00 -0.74505805969E-08  0.93827000000E+00  0.93827000000E+00 0.  1.
     999903    2    1    2    0    0  0.32462229150E-01  0.10798191769E+00  0.11356186875E-01  0.11502251340E+00  0.19680567571E-01 0.  0.
         14    1    1    2    0    0 -0.98363422715E-02 -0.19441910900E-01 -0.37967279215E-01  0.43775059334E-01  0.00000000000E+00 0.  1.
     999901    1    1    2    0    0 -0.22625886879E-01 -0.88540006789E-01  0.26611092340E-01  0.88513242726E+00  0.88000000000E+00 0. -1.
        -11    1    3    3    0    0  0.30835275027E-01  0.93094604944E-01  0.15930448232E-01  0.99355221089E-01  0.51100000000E-03 0.  1.
         11    1    3    3    0    0  0.16269541229E-02  0.14887312744E-01 -0.45742613574E-02  0.15667292313E-01  0.51100000000E-03 0. -1.
</event>
<event>
 8    1  0.1128298E+005  0.1043930E+01  0.7957747E-01            NaN
         13   -1    0    0    0    0  0.00000000000E+00  0.00000000000E+00  0.74505805969E-08  0.10566000000E+00  0.10566000000E+00 0. -1.
     999900   -1    0    0    0    0 -0.00000000000E+00 -0.00000000000E+00 -0.74505805969E-08  0.93827000000E+00  0.93827000000E+00 0. -1.
     999902    2    1    2    0    0  0.10965734984E-02  0.12310446175E-01 -0.17768417729E-01  0.10222859194E+01  0.10220567669E+01 0.  0.
     999903    2    3    3    0    0  0.28236698989E-01  0.11127357289E-01  0.12580580977E+00  0.13023684844E+00  0.14608410934E-01 0.  0.
         14    1    1    2    0    0 -0.10965734984E-02 -0.12310446175E-01  0.17768417729E-01  0.21644080647E-01  0.00000000000E+00 0. -1.
     999901    1    3    3    0    0 -0.27140125491E-01  0.11830888852E-02 -0.14357422750E+00  0.89204907091E+00  0.88000000000E+00 0. -1.
        -11    1    4    4    0    0  0.16220768928E-01 -0.99280406776E-03  0.70744184910E-01  0.72588565382E-01  0.51100000000E-03 0. -1.
         11    1    4    4    0    0  0.12015930061E-01  0.12120161357E-01  0.55061624861E-01  0.57648283061E-01  0.51100000000E-03 0.  1.
</event>
<event>
 8    1  0.1128298E+005  0.1043930E+01  0.7957747E-01            NaN
         13   -1    0    0    0    0  0.00000000000E+00  0.00000000000E+00  0.74505805969E-08  0.10566000000E+00  0.10566000000E+00 0.  1.
     999900   -1    0    0    0    0 -0.00000000000E+00 -0.00000000000E+00 -0.74505805969E-08  0.93827000000E+00  0.93827000000E+00 0.  1.
     999902    2    1    2    0    0  0.19119662300E-01  0.90222632293E-02 -0.90305381763E-02  0.10209405820E+01  0.10206817127E+01 0.  0.
     999903    2    3    3    0    0 -0.65186172007E-01 -0.10021613821E+00  0.43291002100E-01  0.12865248636E+00  0.19617339384E-01 0.  0.
         14    1    1    2    0    0 -0.19119662300E-01 -0.90222632293E-02  0.90305381763E-02  0.22989418000E-01  0.00000000000E+00 0.  1.
     999901    1    3    3    0    0  0.84305834306E-01  0.10923840144E+00 -0.52321540276E-01  0.89228809564E+00  0.88000000000E+00 0.  1.
        -11    1    4    4    0    0 -0.30994098484E-01 -0.33733063537E-01  0.22577748580E-01  0.51074157540E-01  0.51100000000E-03 0.  1.
         11    1    4    4    0    0 -0.34192073522E-01 -0.66483074674E-01  0.20713253519E-01  0.77578328818E-01  0.51100000000E-03 0. -1.
</event>
<event>
 8    1  0.1128298E+005  0.1043930E+01  0.7957747E-01            NaN
         13   -1    0    0    0    0  0.00000000000E+00  0.00000000000E+00  0.74505805969E-08  0.10566000000E+00  0.10566000000E+00 0. -1.
     999900   -1    0    0    0    0 -0.00000000000E+00 -0.00000000000E+00 -0.74505805969E-08  0.93827000000E+00  0.93827000000E+00 0.  1.
     999902    2    1    2    0    0 -0.20863584948E-01 -0.38376824269E-02 -0.67831844730E-04  0.10227162878E+01  0.10224962512E+01 0.  0.
     999903    2    3    3    0    0 -0.19726578713E-01  0.29540601398E-01 -0.12661361508E+00  0.13303699849E+00  0.20150692423E-01 0.  0.
         14    1    1    2    0    0  0.20863584948E-01  0.38376824269E-02  0.67831844730E-04  0.21213712180E-01  0.00000000000E+00 0.  1.
     999901    1    3    3    0    0 -0.11370062349E-02 -0.33378283825E-01  0.12654578323E+00  0.88967928933E+00  0.88000000000E+00 0. -1.
        -11    1    4    4    0    0  0.29278301781E-02  0.10907758775E-01 -0.29640170064E-01  0.31723054605E-01  0.51100000000E-03 0. -1.
         11    1    4    4    0    0 -0.22654408891E-01  0.18632842623E-01 -0.96973445012E-01  0.10131394388E+00  0.51100000000E-03 0.  1.
</event>
<event>
 8    1  0.1128298E+005  0.1043930E+01  0.7957747E-01            NaN
         13   -1    0    0    0    0  0.00000000000E+00  0.00000000000E+00  0.74505805969E-08  0.10566000000E+00  0.10566000000E+00 0. -1.
     999900   -1    0    0    0    0 -0.00000000000E+00 -0.00000000000E+00 -0.74505805969E-08  0.93827000000E+00  0.93827000000E+00 0.  1.
     999902    2    1    2    0    0  0.17922504255E-01  0.28613170553E-02  0.14437013724E-01  0.10207388237E+01  0.10204753380E+01 0.  0.
     999903    2    3    3    0    0 -0.41790369677E-01 -0.35694245309E-01 -0.11444271866E+00  0.12851567663E+00  0.19965699071E-01 0.  0.
         14    1    1    2    0    0 -0.17922504255E-01 -0.28613170553E-02 -0.14437013724E-01  0.23191176325E-01  0.00000000000E+00 0.  1.
     999901    1    3    3    0    0  0.59712873932E-01  0.38555562364E-01  0.12887973238E+00  0.89222314704E+00  0.88000000000E+00 0. -1.
        -11    1    4    4    0    0 -0.34098471554E-01 -0.36805827632E-01 -0.92513601779E-01  0.10524448843E+00  0.51100000000E-03 0.  1.
         11    1    4    4    0    0 -0.76918981223E-02  0.11115823229E-02 -0.21929116882E-01  0.23271188199E-01  0.51100000000E-03 0. -1.
</event>
<event>
 8    1  0.1128298E+005  0.1043930E+01  0.7957747E-01            NaN
         13   -1    0    0    0    0  0.00000000000E+00  0.00000000000E+00  0.74505805969E-08  0.10566000000E+00  0.10566000000E+00 0. -1.
     999900   -1    0    0    0    0 -0.00000000000E+00 -0.00000000000E+00 -0.74505805969E-08  0.93827000000E+00  0.93827000000E+00 0. -1.
     999902    2    1    2    0    0 -0.18890309014E-01 -0.11230832417E-01  0.78422059346E-02  0.10205959998E+01  0.10203292210E+01 0.  0.
     999903    2    3    3    0    0  0.98005664826E-01 -0.77851787540E-01 -0.27018003930E-01  0.12968733187E+00  0.20562595898E-01 0.  0.
         14    1    1    2    0    0  0.18890309014E-01  0.11230832417E-01 -0.78422059346E-02  0.23334000200E-01  0.00000000000E+00 0.  1.
     999901    1    3    3    0    0 -0.11689597384E+00  0.66620955123E-01  0.34860209864E-01  0.89090866793E+00  0.88000000000E+00 0. -1.
        -11    1    4    4    0    0  0.23959918700E-01 -0.29832490974E-01 -0.12433787919E-01  0.40235748096E-01  0.51100000000E-03 0. -1.
         11    1    4    4    0    0  0.74045746126E-01 -0.48019296566E-01 -0.14584216010E-01  0.89451583774E-01  0.51100000000E-03 0.  1.
</event>
<event>
 8    1  0.1128298E+005  0.1043930E+01  0.7957747E-01            NaN
         13   -1    0    0    0    0  0.00000000000E+00  0.00000000000E+00  0.74505805969E-08  0.10566000000E+00  0.10566000000E+00 0.  1.
     999900   -1    0    0    0    0 -0.00000000000E+00 -0.00000000000E+00 -0.74505805969E-08  0.93827000000E+00  0.93827000000E+00 0. -1.
     999902    2    1    2    0    0  0.11067205684E-01 -0.22162657996E-01 -0.95407811953E-02  0.10173839465E+01  0.10170375616E+01 0.  0.
     999903    2    3    3    0    0  0.67267083832E-01 -0.10143170264E+00 -0.46174474788E-01  0.13127783814E+00  0.16986400376E-01 0.  0.
         14    1    1    2    0    0 -0.11067205684E-01  0.22162657996E-01  0.95407811953E-02  0.26546053509E-01  0.00000000000E+00 0. -1.
     999901    1    3    3    0    0 -0.56199878148E-01  0.79269044647E-01  0.36633693593E-01  0.88610610835E+00  0.88000000000E+00 0.  1.
        -11    1    4    4    0    0  0.51378186970E-01 -0.88762739044E-01 -0.38431226555E-01  0.10952516713E+00  0.51100000000E-03 0.  1.
         11    1    4    4    0    0  0.15888896862E-01 -0.12668963598E-01 -0.77432482330E-02  0.21752671016E-01  0.51100000000E-03 0. -1.
</event>
<event>
 8    1  0.1128298E+005  0.1043930E+01  0.7957747E-01            NaN
         13   -1    0    0    0    0  0.00000000000E+00  0.00000000000E+00  0.74505805969E-08  0.10566000000E+00  0.10566000000E+00 0.  1.
     999900   -1    0    0    0    0 -0.00000000000E+00 -0.00000000000E+00 -0.74505805969E-08  0.93827000000E+00  0.93827000000E+00 0. -1.
     999902    2    1    2    0    0  0.17110378616E-01 -0.16164869758E-01  0.81687093452E-02  0.10190142242E+01  0.10187095726E+01 0.  0.
     999903    2    3    3    0    0 -0.51709345086E-01  0.10437069317E+00 -0.46336739509E-01  0.12646964815E+00  0.16744566687E-01 0.  0.
         14    1    1    2    0    0 -0.17110378616E-01  0.16164869758E-01 -0.81687093452E-02  0.24915775786E-01  0.00000000000E+00 0.  1.
     999901    1    3    3    0    0  0.68819723702E-01 -0.12053556293E+00  0.54505448854E-01  0.89254457606E+00  0.88000000000E+00 0.  1.
        -11    1    4    4    0    0 -0.20785786292E-01  0.29632732607E-01 -0.20271897752E-01  0.41489260213E-01  0.51100000000E-03 0. -1.
         11    1    4    4    0    0 -0.30923558794E-01  0.74737960563E-01 -0.26064841757E-01  0.84980387940E-01  0.51100000000E-03 0.  1.
</event>
<event>
 8    1  0.1128298E+005  0.1043930E+01  0.7957747E-01            NaN
         13   -1    0    0    0    0  0.00000000000E+00  0.00000000000E+00  0.74505805969E-08  0.10566000000E+00  0.10566000000E+00 0.  1.
     999900   -1    0    0    0    0 -0.00000000000E+00 -0.00000000000E+00 -0.74505805969E-08  0.93827000000E+00  0.93827000000E+00 0.  1.
     999902    2    1    2    0    0 -0.61370624825E-02 -0.21813006901E-01 -0.41814099525E-02  0.10208875393E+01  0.10206274604E+01 0.  0.
     999903    2    3    3    0    0 -0.54325427410E-01  0.86545552778E-01  0.76155781351E-01  0.12930593323E+00  0.21884619412E-01 0.  0.
         14    1    1    2    0    0  0.61370624825E-02  0.21813006901E-01  0.41814099525E-02  0.23042460701E-01  0.00000000000E+00 0.  1.
     999901    1    3    3    0    0  0.48188364928E-01 -0.10835855968E+00 -0.80337191304E-01  0.89158160607E+00  0.88000000000E+00 0.  1.
        -11    1    4    4    0    0 -0.33726614191E-01  0.42906367291E-01  0.28873980992E-01  0.61744706318E-01  0.51100000000E-03 0. -1.
         11    1    4    4    0    0 -0.20598813220E-01  0.43639185487E-01  0.47281800359E-01  0.67561226914E-01  0.51100000000E-03 0.  1.
</event>
<event>
 8    1  0.1128298E+005  0.1043930E+01  0.7957747E-01            NaN
         13   -1    0    0    0    0  0.00000000000E+00  0.00000000000E+00  0.74505805969E-08  0.10566000000E+00  0.10566000000E+00 0.  1.
     999900   -1    0    0    0    0 -0.00000000000E+00 -0.00000000000E+00 -0.74505805969E-08  0.93827000000E+00  0.93827000000E+00 0.  1.
     999902    2    1    2    0    0 -0.24678288583E-01  0.30970713188E-02 -0.39807836927E-03  0.10190549473E+01  0.10187513031E+01 0.  0.
     999903    2    3    3    0    0  0.97575828575E-01 -0.70133680777E-01 -0.33862967216E-01  0.12696262533E+00  0.23087489701E-01 0.  0.
         14    1    1    2    0    0  0.24678288583E-01 -0.30970713188E-02  0.39807836927E-03  0.24875052654E-01  0.00000000000E+00 0. -1.
     999901    1    3    3    0    0 -0.12225411716E+00  0.73230752095E-01  0.33464888846E-01  0.89209232202E+00  0.88000000000E+00 0. -1.
        -11    1    4    4    0    0  0.37195832418E-01 -0.28326376634E-01 -0.17043102321E-02  0.46787598323E-01  0.51100000000E-03 0.  1.
         11    1    4    4    0    0  0.60379996157E-01 -0.41807304143E-01 -0.32158656983E-01  0.80175027007E-01  0.51100000000E-03 0. -1.
</event>
<event>
 8    1  0.1128298E+005  0.1043930E+01  0.7957747E-01            NaN
         13   -1    0    0    0    0  0.00000000000E+00  0.00000000000E+00  0.74505805969E-08  0.10566000000E+00  0.10566000000E+00 0.  1.
     999900   -1    0    0    0    0 -0.00000000000E+00 -0.00000000000E+00 -0.74505805969E-08  0.93827000000E+00  0.93827000000E+00 0. -1.
     999902    2    1    2    0    0 -0.11198533541E-01  0.65333273860E-02  0.19862105180E-01  0.10202109203E+01  0.10199351583E+01 0.  0.
     999903    2    3    3    0    0  0.35981518214E-01  0.11273445628E+00  0.54732104485E-01  0.13188634339E+00  0.19866479968E-01 0.  0.
         14    1    1    2    0    0  0.11198533541E-01 -0.65333273860E-02 -0.19862105180E-01  0.23719079711E-01  0.00000000000E+00 0. -1.
     999901    1    3    3    0    0 -0.47180051755E-01 -0.10620112890E+00 -0.34869999305E-01  0.88832457689E+00  0.88000000000E+00 0.  1.
        -11    1    4    4    0    0  0.39102412163E-02  0.35910906026E-01  0.22810249004E-01  0.42725305600E-01  0.51100000000E-03 0.  1.
         11    1    4    4    0    0  0.32071276998E-01  0.76823550256E-01  0.31921855481E-01  0.89161037795E-01  0.51100000000E-03 0. -1.
</event>
<event>
 8    1  0.1128298E+005  0.1043930E+01  0.7957747E-01            NaN
         13   -1    0    0    0    0  0.00000000000E+00  0.00000000000E+00  0.74505805969E-08  0.10566000000E+00  0.10566000000E+00 0.  1.
     999900   -1    0    0    0    0 -0.00000000000E+00 -0.00000000000E+00 -0.74505805969E-08  0.93827000000E+00  0.93827000000E+00 0. -1.
     999902    2    1    2    0    0 -0.10069235018E-01 -0.98503662694E-02 -0.18970298343E-01  0.10203018086E+01  0.10200281806E+01 0.  0.
     999903    2    3    3    0    0  0.53656571950E-01 -0.51881574943E-01 -0.10779537529E+00  0.13254199014E+00  0.19411612108E-01 0.  0.
         14    1    1    2    0    0  0.10069235018E-01  0.98503662694E-02  0.18970298343E-01  0.23628191398E-01  0.00000000000E+00 0.  1.
     999901    1    3    3    0    0 -0.63725806968E-01  0.42031208674E-01  0.88825076949E-01  0.88775981846E+00  0.88000000000E+00 0. -1.
        -11    1    4    4    0    0  0.12672688105E-01 -0.55782240887E-02 -0.30917693624E-01  0.33880355780E-01  0.51100000000E-03 0. -1.
         11    1    4    4    0    0  0.40983883845E-01 -0.46303350855E-01 -0.76877681669E-01  0.98661634363E-01  0.51100000000E-03 0.  1.
</event>
<event>
 8    1  0.1128298E+005  0.1043930E+01  0.7957747E-01            NaN
         13   -1    0    0    0    0  0.00000000000E+00  0.00000000000E+00  0.74505805969E-08  0.10566000000E+00  0.10566000000E+00 0.  1.
     999900   -1    0    0    0    0 -0.00000000000E+00 -0.00000000000E+00 -0.74505805969E-08  0.93827000000E+00  0.93827000000E+00 0.  1.
     999902    2    1    2    0    0  0.95722949862E-02  0.17309535807E-01 -0.12852900927E-01  0.10203408940E+01  0.10200681810E+01 0.  0.
     999903    2    3    3    0    0 -0.97373637385E-03 -0.90283804498E-01  0.88420452010E-01  0.12795990041E+00  0.20085971746E-01 0.  0.
         14    1    1    2    0    0 -0.95722949862E-02 -0.17309535807E-01  0.12852900927E-01  0.23589106032E-01  0.00000000000E+00 0. -1.
     999901    1    3    3    0    0  0.10546031360E-01  0.10759334031E+00 -0.10127335294E+00  0.89238099356E+00  0.88000000000E+00 0.  1.
        -11    1    4    4    0    0  0.39089332200E-02 -0.54361244806E-01  0.40674022607E-01  0.68007807874E-01  0.51100000000E-03 0. -1.
         11    1    4    4    0    0 -0.48826695939E-02 -0.35922559692E-01  0.47746429403E-01  0.59952092532E-01  0.51100000000E-03 0.  1.
</event>
<event>
 8    1  0.1209509E+005  0.1043930E+01  0.7957747E-01            NaN
         13   -1    0    0    0    0  0.00000000000E+00  0.00000000000E+00  0.74505805969E-08  0.10566000000E+00  0.10566000000E+00 0. -1.
     999900   -1    0    0    0    0 -0.00000000000E+00 -0.00000000000E+00 -0.74505805969E-08  0.93827000000E+00  0.93827000000E+00 0.  1.
     999902    2    1    2    0    0  0.82291027942E-02 -0.21968087591E-01 -0.11595361644E-02  0.10204425666E+01  0.10201722267E+01 0.  0.
     999903    2    3    3    0    0 -0.45141944394E-01 -0.33893377579E-01  0.11653577827E+00  0.13092423159E+00  0.19339353988E-01 0.  0.
         14    1    1    2    0    0 -0.82291027942E-02  0.21968087591E-01  0.11595361644E-02  0.23487433434E-01  0.00000000000E+00 0.  1.
     999901    1    3    3    0    0  0.53371047188E-01  0.11925289988E-01 -0.11769531444E+00  0.88951833498E+00  0.88000000000E+00 0.  1.
        -11    1    4    4    0    0 -0.26517249016E-01 -0.95613793564E-02  0.66785718038E-01  0.72492604626E-01  0.51100000000E-03 0. -1.
         11    1    4    4    0    0 -0.18624695379E-01 -0.24331998223E-01  0.49750060232E-01  0.58431626963E-01  0.51100000000E-03 0.  1.
</event>
<event>
 8    1  0.1128298E+005  0.1043930E+01  0.7957747E-01            NaN
         13   -1    0    0    0    0  0.00000000000E+00  0.00000000000E+00  0.74505805969E-08  0.10566000000E+00  0.10566000000E+00 0.  1.
     999900   -1    0    0    0    0 -0.00000000000E+00 -0.00000000000E+00 -0.74505805969E-08  0.93827000000E+00  0.93827000000E+00 0.  1.
     999902    2    1    2    0    0 -0.19754428321E-01  0.34551253847E-03  0.12337895050E-01  0.10206366432E+01  0.10203708037E+01 0.  0.
     999903    2    3    3    0    0 -0.82782187202E-01  0.98092125944E-01 -0.24012304081E-01  0.13224020252E+00  0.20878810423E-01 0.  0.
         14    1    1    2    0    0  0.19754428321E-01 -0.34551253847E-03 -0.12337895050E-01  0.23293356810E-01  0.00000000000E+00 0. -1.
     999901    1    3    3    0    0  0.63027758881E-01 -0.97746613406E-01  0.36350199131E-01  0.88839644067E+00  0.88000000000E+00 0. -1.
        -11    1    4    4    0    0 -0.17961104548E-01  0.17323484354E-01  0.31912675736E-02  0.25162466026E-01  0.51100000000E-03 0.  1.
         11    1    4    4    0    0 -0.64821082653E-01  0.80768641590E-01 -0.27203571655E-01  0.10707773649E+00  0.51100000000E-03 0. -1.
</event>
<event>
 8    1  0.1128298E+005  0.1043930E+01  0.7957747E-01            NaN
         13   -1    0    0    0    0  0.00000000000E+00  0.00000000000E+00  0.74505805969E-08  0.10566000000E+00  0.10566000000E+00 0.  1.
     999900   -1    0    0    0    0 -0.00000000000E+00 -0.00000000000E+00 -0.74505805969E-08  0.93827000000E+00  0.93827000000E+00 0. -1.
     999902    2    1    2    0    0  0.53742024198E-02 -0.11940113251E-01 -0.19896226404E-01  0.10201117679E+01  0.10198336682E+01 0.  0.
     999903    2    3    3    0    0 -0.11385762030E+00  0.57517753080E-01 -0.36721050457E-03  0.12914487444E+00  0.20159715565E-01 0.  0.
         14    1    1    2    0    0 -0.53742024198E-02  0.11940113251E-01  0.19896226404E-01  0.23818232118E-01  0.00000000000E+00 0.  1.
     999901    1    3    3    0    0  0.11923182272E+00 -0.69457866331E-01 -0.19529015899E-01  0.89096689344E+00  0.88000000000E+00 0.  1.
        -11    1    4    4    0    0 -0.67809845435E-01  0.23056738760E-01  0.22344416953E-03  0.71624712135E-01  0.51100000000E-03 0.  1.
         11    1    4    4    0    0 -0.46047774864E-01  0.34461014320E-01 -0.59065467410E-03  0.57520162307E-01  0.51100000000E-03 0. -1.
</event>
<event>
 8    1  0.1128298E+005  0.1043930E+01  0.7957747E-01            NaN
         13   -1    0    0    0    0  0.00000000000E+00  0.00000000000E+00  0.74505805969E-08  0.10566000000E+00  0.10566000000E+00 0. -1.
     999900   -1    0    0    0    0 -0.00000000000E+00 -0.00000000000E+00 -0.74505805969E-08  0.93827000000E+00  0.93827000000E+00 0.  1.
     999902    2    1    2    0    0 -0.11907401085E-01  0.70508401057E-02 -0.21108089189E-01  0.10186901114E+01  0.10183773815E+01 0.  0.
     999903    2    3    3    0    0 -0.39077130501E-01 -0.10307262628E+00  0.61115128611E-01  0.12760872927E+00  0.19948444198E-01 0.  0.
         14    1    1    2    0    0  0.11907401085E-01 -0.70508401057E-02  0.21108089189E-01  0.25239888590E-01  0.00000000000E+00 0. -1.
     999901    1    3    3    0    0  0.27169729415E-01  0.11012346638E+00 -0.82223217800E-01  0.89108138214E+00  0.88000000000E+00 0.  1.
        -11    1    4    4    0    0 -0.43984279388E-02 -0.38093041730E-01  0.19892817396E-01  0.43201982611E-01  0.51100000000E-03 0.  1.
         11    1    4    4    0    0 -0.34678702562E-01 -0.64979584547E-01  0.41222311215E-01  0.84406746663E-01  0.51100000000E-03 0. -1.
</event>
<event>
 8    1  0.1128298E+005  0.1043930E+01  0.7957747E-01            NaN
         13   -1    0    0    0    0  0.00000000000E+00  0.00000000000E+00  0.74505805969E-08  0.10566000000E+00  0.10566000000E+00 0. -1.
     999900   -1    0    0    0    0 -0.00000000000E+00 -0.00000000000E+00 -0.74505805969E-08  0.93827000000E+00  0.93827000000E+00 0.  1.
     999902    2    1    2    0    0 -0.13023056609E-01 -0.17112640172E-01 -0.12359232251E-01  0.10191269139E+01  0.10188250456E+01 0.  0.
     999903    2    3    3    0    0 -0.34403081648E-01 -0.11534468824E+00 -0.51626141178E-01  0.13253313384E+00  0.20292953996E-01 0.  0.
         14    1    1    2    0    0  0.13023056609E-01  0.17112640172E-01  0.12359232251E-01  0.24803086076E-01  0.00000000000E+00 0. -1.
     999901    1    3    3    0    0  0.21380025039E-01  0.98232048068E-01  0.39266908927E-01  0.88659378008E+00  0.88000000000E+00 0. -1.
        -11    1    4    4    0    0 -0.14949488125E-01 -0.72312421256E-01 -0.39629541013E-01  0.83805340552E-01  0.51100000000E-03 0.  1.
         11    1    4    4    0    0 -0.19453593522E-01 -0.43032266984E-01 -0.11996600165E-01  0.48727793293E-01  0.51100000000E-03 0. -1.
</event>
<event>
 8    1  0.1128298E+005  0.1043930E+01  0.7957747E-01            NaN
         13   -1    0    0    0    0  0.00000000000E+00  0.00000000000E+00  0.74505805969E-08  0.10566000000E+00  0.10566000000E+00 0. -1.
     999900   -1    0    0    0    0 -0.00000000000E+00 -0.00000000000E+00 -0.74505805969E-08  0.93827000000E+00  0.93827000000E+00 0.  1.
     999902    2    1    2    0    0 -0.16408900051E-01 -0.92127993706E-02 -0.14615355597E-01  0.10201027825E+01  0.10198244705E+01 0.  0.
     999903    2    3    3    0    0 -0.66777431455E-01  0.47447174816E-01 -0.10220251108E+00  0.13251118082E+00  0.20084820651E-01 0.  0.
         14    1    1    2    0    0  0.16408900051E-01  0.92127993706E-02  0.14615355597E-01  0.23827217469E-01  0.00000000000E+00 0.  1.
     999901    1    3    3    0    0  0.50368531404E-01 -0.56659974187E-01  0.87587155481E-01  0.88759160172E+00  0.88000000000E+00 0. -1.
        -11    1    4    4    0    0 -0.60185873295E-01  0.39956476696E-01 -0.97809673447E-01  0.12159709172E+00  0.51100000000E-03 0.  1.
         11    1    4    4    0    0 -0.65915581596E-02  0.74906981201E-02 -0.43928376317E-02  0.10914089094E-01  0.51100000000E-03 0. -1.
</event>
<event>
 8    1  0.1128298E+005  0.1043930E+01  0.7957747E-01            NaN
         13   -1    0    0    0    0  0.00000000000E+00  0.00000000000E+00  0.74505805969E-08  0.10566000000E+00  0.10566000000E+00 0.  1.
     999900   -1    0    0    0    0 -0.00000000000E+00 -0.00000000000E+00 -0.74505805969E-08  0.93827000000E+00  0.93827000000E+00 0. -1.
     999902    2    1    2    0    0 -0.26216500828E-03  0.13866873795E-01  0.19283927670E-01  0.10201764995E+01  0.10198999271E+01 0.  0.
     999903    2    3    3    0    0 -0.35608058522E-02 -0.51426511338E-01 -0.11504242957E+00  0.12758606856E+00  0.19648890104E-01 0.  0.
         14    1    1    2    0    0  0.26216500828E-03 -0.13866873795E-01 -0.19283927670E-01  0.23753500494E-01  0.00000000000E+00 0. -1.
     999901    1    3    3    0    0  0.32986408440E-02  0.65293385134E-01  0.13432635724E+00  0.89259043095E+00  0.88000000000E+00 0.  1.
        -11    1    4    4    0    0  0.61758216608E-02 -0.36558420892E-01 -0.71229880342E-01  0.80303274440E-01  0.51100000000E-03 0. -1.
         11    1    4    4    0    0 -0.97366275130E-02 -0.14868090446E-01 -0.43812549225E-01  0.47282794116E-01  0.51100000000E-03 0.  1.
</event>
<event>
 8    1  0.1128298E+005  0.1043930E+01  0.7957747E-01            NaN
         13   -1    0    0    0    0  0.00000000000E+00  0.00000000000E+00  0.74505805969E-08  0.10566000000E+00  0.10566000000E+00 0.  1.
     999900   -1    0    0    0    0 -0.00000000000E+00 -0.00000000000E+00 -0.74505805969E-08  0.93827000000E+00  0.93827000000E+00 0.  1.
     999902    2    1    2    0    0 -0.22200722258E-02  0.15783973173E-01  0.17272182958E-01  0.10204270037E+01  0.10201563013E+01 0.  0.
     999903    2    3    3    0    0 -0.24538316883E-01  0.80417995866E-02 -0.12450509710E+00  0.12876628213E+00  0.20308536926E-01 0.  0.
         14    1    1    2    0    0  0.22200722258E-02 -0.15783973173E-01 -0.17272182958E-01  0.23502996276E-01  0.00000000000E+00 0. -1.
     999901    1    3    3    0    0  0.22318244657E-01  0.77421735862E-02  0.14177728006E+00  0.89166072160E+00  0.88000000000E+00 0. -1.
        -11    1    4    4    0    0 -0.27885436013E-01  0.51367219726E-02 -0.10941850079E+00  0.11303385728E+00  0.51100000000E-03 0.  1.
         11    1    4    4    0    0  0.33471191301E-02  0.29050776141E-02 -0.15086596312E-01  0.15732424851E-01  0.51100000000E-03 0. -1.
</event>
<event>
 8    1  0.1128298E+005  0.1043930E+01  0.7957747E-01            NaN
         13   -1    0    0    0    0  0.00000000000E+00  0.00000000000E+00  0.74505805969E-08  0.10566000000E+00  0.10566000000E+00 0. -1.
     999900   -1    0    0    0    0 -0.00000000000E+00 -0.00000000000E+00 -0.74505805969E-08  0.93827000000E+00  0.93827000000E+00 0. -1.
     999902    2    1    2    0    0 -0.14011982471E-01 -0.19378217072E-01 -0.15860221674E-02  0.10199640572E+01  0.10196824562E+01 0.  0.
     999903    2    3    3    0    0  0.29894050177E-01  0.14066510506E-01  0.12391062246E+00  0.12934870960E+00  0.16903412785E-01 0.  0.
         14    1    1    2    0    0  0.14011982471E-01  0.19378217072E-01  0.15860221674E-02  0.23965942835E-01  0.00000000000E+00 0.  1.
     999901    1    3    3    0    0 -0.43906032647E-01 -0.33444727578E-01 -0.12549664462E+00  0.89061534756E+00  0.88000000000E+00 0. -1.
        -11    1    4    4    0    0  0.59885345011E-02  0.47406517621E-02  0.59858007140E-01  0.60345492494E-01  0.51100000000E-03 0. -1.
         11    1    4    4    0    0  0.23905515676E-01  0.93258587441E-02  0.64052615318E-01  0.69003217107E-01  0.51100000000E-03 0.  1.
</event>
<event>
 8    1  0.1128298E+005  0.1043930E+01  0.7957747E-01            NaN
         13   -1    0    0    0    0  0.00000000000E+00  0.00000000000E+00  0.74505805969E-08  0.10566000000E+00  0.10566000000E+00 0.  1.
     999900   -1    0    0    0    0 -0.00000000000E+00 -0.00000000000E+00 -0.74505805969E-08  0.93827000000E+00  0.93827000000E+00 0.  1.
     999902    2    1    2    0    0  0.10598215075E-01  0.17127099715E-01  0.12100583836E-01  0.10204335357E+01  0.10201629854E+01 0.  0.
     999903    2    3    3    0    0 -0.78356922197E-01  0.79002530291E-01 -0.64750782907E-01  0.13046290809E+00  0.21135265615E-01 0.  0.
         14    1    1    2    0    0 -0.10598215075E-01 -0.17127099715E-01 -0.12100583836E-01  0.23496464343E-01  0.00000000000E+00 0. -1.
     999901    1    3    3    0    0  0.88955137272E-01 -0.61875430576E-01  0.76851366743E-01  0.88997062756E+00  0.88000000000E+00 0. -1.
        -11    1    4    4    0    0 -0.58051767889E-01  0.65331927317E-01 -0.58576484148E-01  0.10521280387E+00  0.51100000000E-03 0.  1.
         11    1    4    4    0    0 -0.20305154308E-01  0.13670602974E-01 -0.61742987586E-02  0.25250104223E-01  0.51100000000E-03 0. -1.
</event>
<event>
 8    1  0.1128298E+005  0.1043930E+01  0.7957747E-01            NaN
         13   -1    0    0    0    0  0.00000000000E+00  0.00000000000E+00  0.74505805969E-08  0.10566000000E+00  0.10566000000E+00 0. -1.
     999900   -1    0    0    0    0 -0.00000000000E+00 -0.00000000000E+00 -0.74505805969E-08  0.93827000000E+00  0.93827000000E+00 0.  1.
     999902    2    1    2    0    0  0.20806178248E-02  0.14865201287E-01 -0.14399372029E-01  0.10231298775E+01  0.10229184235E+01 0.  0.
     999903    2    3    3    0    0  0.52830372320E-03 -0.91711154466E-01 -0.94317126956E-01  0.13310303702E+00  0.20235687972E-01 0.  0.
         14    1    1    2    0    0 -0.20806178248E-02 -0.14865201287E-01  0.14399372029E-01  0.20800122467E-01  0.00000000000E+00 0. -1.
     999901    1    3    3    0    0  0.15523141016E-02  0.10657635575E+00  0.79917754927E-01  0.89002684052E+00  0.88000000000E+00 0. -1.
        -11    1    4    4    0    0 -0.50209718138E-02 -0.63049653157E-02 -0.11109237951E-01  0.13734592620E-01  0.51100000000E-03 0.  1.
         11    1    4    4    0    0  0.55492755370E-02 -0.85406189151E-01 -0.83207889005E-01  0.11936844440E+00  0.51100000000E-03 0. -1.
</event>
<event>
 8    1  0.1128298E+005  0.1043930E+01  0.7957747E-01            NaN
         13   -1    0    0    0    0  0.00000000000E+00  0.00000000000E+00  0.74505805969E-08  0.10566000000E+00  0.10566000000E+00 0.  1.
     999900   -1    0    0    0    0 -0.00000000000E+00 -0.00000000000E+00 -0.74505805969E-08  0.93827000000E+00  0.93827000000E+00 0. -1.
     999902    2    1    2    0    0 -0.91535094259E-02 -0.19557691588E-01  0.10201913776E-01  0.10200475990E+01  0.10197679810E+01 0.  0.
     999903    2    3    3    0    0 -0.27282349877E-02  0.32711323447E-01 -0.12266416268E+00  0.12851704516E+00  0.19815653984E-01 0.  0.
         14    1    1    2    0    0  0.91535094259E-02  0.19557691588E-01 -0.10201913776E-01  0.23882401046E-01  0.00000000000E+00 0. -1.
     999901    1    3    3    0    0 -0.64252744382E-02 -0.52269015035E-01  0.13286607645E+00  0.89153055380E+00  0.88000000000E+00 0.  1.
        -11    1    4    4    0    0 -0.97973504552E-02  0.11238290007E-01 -0.62169869397E-01  0.63934662117E-01  0.51100000000E-03 0. -1.
         11    1    4    4    0    0  0.70691154675E-02  0.21473033440E-01 -0.60494293278E-01  0.64582383038E-01  0.51100000000E-03 0.  1.
</event>
<event>
 8    1  0.1128298E+005  0.1043930E+01  0.7957747E-01            NaN
         13   -1    0    0    0    0  0.00000000000E+00  0.00000000000E+00  0.74505805969E-08  0.10566000000E+00  0.10566000000E+00 0. -1.
     999900   -1    0    0    0    0 -0.00000000000E+00 -0.00000000000E+00 -0.74505805969E-08  0.93827000000E+00  0.93827000000E+00 0.  1.
     999902    2    1    2    0    0 -0.20731674315E-01 -0.11232378406E-01  0.55594524154E-03  0.10203444595E+01  0.10200718300E+01 0.  0.
     999903    2    3    3    0    0  0.12427323074E+00 -0.17853966998E-01 -0.16645464290E-01  0.12828719879E+00  0.20443431121E-01 0.  0.
         14    1    1    2    0    0  0.20731674315E-01  0.11232378406E-01 -0.55594524154E-03  0.23585540478E-01  0.00000000000E+00 0. -1.
     999901    1    3    3    0    0 -0.14500490506E+00  0.66215885929E-02  0.17201409532E-01  0.89205726073E+00  0.88000000000E+00 0.  1.
        -11    1    4    4    0    0  0.58208162972E-01  0.47575874178E-03 -0.24092664473E-02  0.58262185582E-01  0.51100000000E-03 0. -1.
         11    1    4    4    0    0  0.66065067772E-01 -0.18329725740E-01 -0.14236197843E-01  0.70025013213E-01  0.51100000000E-03 0.  1.
</event>
<event>
 8    1  0.1128298E+005  0.1043930E+01  0.7957747E-01            NaN
         13   -1    0    0    0    0  0.00000000000E+00  0.00000000000E+00  0.74505805969E-08  0.10566000000E+00  0.10566000000E+00 0.  1.
     999900   -1    0    0    0    0 -0.00000000000E+00 -0.00000000000E+00 -0.74505805969E-08  0.93827000000E+00  0.93827000000E+00 0.  1.
     999902    2    1    2    0    0 -0.78272130785E-02 -0.14655392836E-01  0.15440848705E-01  0.10212481656E+01  0.10209962537E+01 0.  0.
     999903    2    3    3    0    0  0.12591974786E+00  0.56255338126E-03 -0.26718572103E-01  0.13001460910E+00  0.18270662718E-01 0.  0.
         14    1    1    2    0    0  0.78272130785E-02  0.14655392836E-01 -0.15440848705E-01  0.22681834417E-01  0.00000000000E+00 0. -1.
     999901    1    3    3    0    0 -0.13374696094E+00 -0.15217946218E-01  0.42159420808E-01  0.89123355649E+00  0.88000000000E+00 0. -1.
        -11    1    4    4    0    0  0.87539117480E-01 -0.28217870076E-02 -0.10521060194E-01  0.88215720820E-01  0.51100000000E-03 0. -1.
         11    1    4    4    0    0  0.38380630378E-01  0.33843403888E-02 -0.16197511909E-01  0.41798888276E-01  0.51100000000E-03 0.  1.
</event>
<event>
 8    1  0.1128298E+005  0.1043930E+01  0.7957747E-01            NaN
         13   -1    0    0    0    0  0.00000000000E+00  0.00000000000E+00  0.74505805969E-08  0.10566000000E+00  0.10566000000E+00 0.  1.
     999900   -1    0    0    0    0 -0.00000000000E+00 -0.00000000000E+00 -0.74505805969E-08  0.93827000000E+00  0.93827000000E+00 0.  1.
     999902    2    1    2    0    0 -0.83759650934E-02  0.20407058368E-01  0.46653408852E-02  0.10213829330E+01  0.10211340390E+01 0.  0.
     999903    2    3    3    0    0  0.70932595285E-01 -0.30612498537E-01 -0.10231732691E+00  0.12990206722E+00  0.20908217041E-01 0.  0.
         14    1    1    2    0    0  0.83759650934E-02 -0.20407058368E-01 -0.46653408852E-02  0.22547066950E-01  0.00000000000E+00 0. -1.
     999901    1    3    3    0    0 -0.79308560379E-01  0.51019556905E-01  0.10698266780E+00  0.89148086583E+00  0.88000000000E+00 0. -1.
        -11    1    4    4    0    0  0.28001989781E-01 -0.15250988790E-02 -0.32452524303E-01  0.42893645368E-01  0.51100000000E-03 0.  1.
         11    1    4    4    0    0  0.42930605504E-01 -0.29087399658E-01 -0.69864802611E-01  0.87008421849E-01  0.51100000000E-03 0. -1.
</event>
<event>
 8    1  0.1128298E+005  0.1043930E+01  0.7957747E-01            NaN
         13   -1    0    0    0    0  0.00000000000E+00  0.00000000000E+00  0.74505805969E-08  0.10566000000E+00  0.10566000000E+00 0. -1.
     999900   -1    0    0    0    0 -0.00000000000E+00 -0.00000000000E+00 -0.74505805969E-08  0.93827000000E+00  0.93827000000E+00 0. -1.
     999902    2    1    2    0    0  0.15437035063E-01 -0.14903677566E-01 -0.10421066387E-01  0.10200758540E+01  0.10197969051E+01 0.  0.
     999903    2    3    3    0    0 -0.70784879789E-01 -0.10772958915E+00  0.99215504903E-02  0.13077011888E+00  0.19652563279E-01 0.  0.
         14    1    1    2    0    0 -0.15437035063E-01  0.14903677566E-01  0.10421066387E-01  0.23854145995E-01  0.00000000000E+00 0. -1.
     999901    1    3    3    0    0  0.86221914852E-01  0.92825911582E-01 -0.20342616877E-01  0.88930573512E+00  0.88000000000E+00 0. -1.
        -11    1    4    4    0    0 -0.30832881757E-01 -0.33179558839E-01 -0.20593368063E-02  0.45343706414E-01  0.51100000000E-03 0. -1.
         11    1    4    4    0    0 -0.39951998032E-01 -0.74550030309E-01  0.11980887297E-01  0.85426412468E-01  0.51100000000E-03 0.  1.
</event>
<event>
 8    1  0.1128298E+005  0.1043930E+01  0.7957747E-01            NaN
         13   -1    0    0    0    0  0.00000000000E+00  0.00000000000E+00  0.74505805969E-08  0.10566000000E+00  0.10566000000E+00 0.  1.
     999900   -1    0    0    0    0 -0.00000000000E+00 -0.00000000000E+00 -0.74505805969E-08  0.93827000000E+00  0.93827000000E+00 0.  1.
     999902    2    1    2    0    0  0.17135843528E-01  0.14178352707E-01 -0.67808332475E-02  0.10206782792E+01  0.10204134001E+01 0.  0.
     999903    2    3    3    0    0  0.59045301157E-01  0.93577922171E-01 -0.72406843709E-01  0.13367914309E+00  0.19600693252E-01 0.  0.
         14    1    1    2    0    0 -0.17135843528E-01 -0.14178352707E-01  0.67808332475E-02  0.23251720763E-01  0.00000000000E+00 0.  1.
     999901    1    3    3    0    0 -0.41909457629E-01 -0.79399569464E-01  0.65626010462E-01  0.88699913614E+00  0.88000000000E+00 0. -1.
        -11    1    4    4    0    0 -0.89137502762E-03  0.34784730184E-02 -0.29712511130E-03  0.36391933600E-02  0.51100000000E-03 0. -1.
         11    1    4    4    0    0  0.59936676184E-01  0.90099449152E-01 -0.72109718598E-01  0.13003994973E+00  0.51100000000E-03 0.  1.
</event>
<event>
 8    1  0.1128298E+005  0.1043930E+01  0.7957747E-01            NaN
         13   -1    0    0    0    0  0.00000000000E+00  0.00000000000E+00  0.74505805969E-08  0.10566000000E+00  0.10566000000E+00 0.  1.
     999900   -1    0    0    0    0 -0.00000000000E+00 -0.00000000000E+00 -0.74505805969E-08  0.93827000000E+00  0.93827000000E+00 0. -1.
     999902    2    1    2    0    0 -0.23960683872E-01  0.79239835834E-02  0.87400764372E-02  0.10172224576E+01  0.10168717890E+01 0.  0.
     999903    2    3    3    0    0 -0.15217891297E-01 -0.78134941313E-01  0.98861508562E-01  0.12840051391E+00  0.19402083059E-01 0.  0.
         14    1    1    2    0    0  0.23960683872E-01 -0.79239835834E-02 -0.87400764372E-02  0.26707542447E-01  0.00000000000E+00 0. -1.
     999901    1    3    3    0    0 -0.87427925747E-02  0.86058924896E-01 -0.90121432125E-01  0.88882194364E+00  0.88000000000E+00 0. -1.
        -11    1    4    4    0    0 -0.12377681703E-01 -0.36018551121E-01  0.59712983958E-01  0.70826863572E-01  0.51100000000E-03 0. -1.
         11    1    4    4    0    0 -0.28402095947E-02 -0.42116390192E-01  0.39148524604E-01  0.57573650336E-01  0.51100000000E-03 0.  1.
</event>
<event>
 8    1  0.1128298E+005  0.1043930E+01  0.7957747E-01            NaN
         13   -1    0    0    0    0  0.00000000000E+00  0.00000000000E+00  0.74505805969E-08  0.10566000000E+00  0.10566000000E+00 0. -1.
     999900   -1    0    0    0    0 -0.00000000000E+00 -0.00000000000E+00 -0.74505805969E-08  0.93827000000E+00  0.93827000000E+00 0.  1.
     999902    2    1    2    0    0 -0.13709604438E-01 -0.14467871686E-01  0.16841003329E-01  0.10178360935E+01  0.10175015583E+01 0.  0.
     999903    2    3    3    0    0  0.51622013038E-01 -0.11551958960E+00  0.19963627962E-01  0.12964162111E+00  0.19969869131E-01 0.  0.
         14    1    1    2    0    0  0.13709604438E-01  0.14467871686E-01 -0.16841003329E-01  0.26093906532E-01  0.00000000000E+00 0.  1.
     999901    1    3    3    0    0 -0.65331617476E-01  0.10105171791E+00 -0.31226246330E-02  0.88819447235E+00  0.88000000000E+00 0. -1.
        -11    1    4    4    0    0  0.18647544274E-01 -0.37006510244E-01  0.15896355896E-01  0.44386574092E-01  0.51100000000E-03 0.  1.
         11    1    4    4    0    0  0.32974468765E-01 -0.78513079353E-01  0.40672720666E-02  0.85255047022E-01  0.51100000000E-03 0. -1.
</event>
<event>
 8    1  0.1128298E+005  0.1043930E+01  0.7957747E-01            NaN
         13   -1    0    0    0    0  0.00000000000E+00  0.00000000000E+00  0.74505805969E-08  0.10566000000E+00  0.10566000000E+00 0.  1.
     999900   -1    0    0    0    0 -0.00000000000E+00 -0.00000000000E+00 -0.74505805969E-08  0.93827000000E+00  0.93827000000E+00 0.  1.
     999902    2    1    2    0    0 -0.11957901407E-01 -0.10709157829E-01  0.17219104132E-01  0.10203890779E+01  0.10201174909E+01 0.  0.
     999903    2    3    3    0    0 -0.11743811262E+00 -0.24829213376E-02 -0.54573161875E-01  0.13114902289E+00  0.20590313598E-01 0.  0.
         14    1    1    2    0    0  0.11957901407E-01  0.10709157829E-01 -0.17219104132E-01  0.23540922127E-01  0.00000000000E+00 0. -1.
     999901    1    3    3    0    0  0.10548021121E+00 -0.82262364917E-02  0.71792266007E-01  0.88924005498E+00  0.88000000000E+00 0.  1.
        -11    1    4    4    0    0 -0.85415707018E-01 -0.49121890101E-04 -0.29380975239E-01  0.90329110731E-01  0.51100000000E-03 0.  1.
         11    1    4    4    0    0 -0.32022405603E-01 -0.24337994475E-02 -0.25192186636E-01  0.40819912161E-01  0.51100000000E-03 0. -1.
</event>
<event>
 8    1  0.1128298E+005  0.1043930E+01  0.7957747E-01            NaN
         13   -1    0    0    0    0  0.00000000000E+00  0.00000000000E+00  0.74505805969E-08  0.10566000000E+00  0.10566000000E+00 0. -1.
     999900   -1    0    0    0    0 -0.00000000000E+00 -0.00000000000E+00 -0.74505805969E-08  0.93827000000E+00  0.93827000000E+00 0. -1.
     999902    2    1    2    0    0 -0.92383307005E-02  0.21061157092E-02 -0.20405912242E-01  0.10214314727E+01  0.10211836611E+01 0.  0.
     999903    2    3    3    0    0  0.56993154001E-01 -0.39697574984E-01 -0.11187429820E+00  0.13323069371E+00  0.20259370346E-01 0.  0.
         14    1    1    2    0    0  0.92383307005E-02 -0.21061157092E-02  0.20405912242E-01  0.22498527328E-01  0.00000000000E+00 0. -1.
     999901    1    3    3    0    0 -0.66231484701E-01  0.41803690693E-01  0.91468385954E-01  0.88820077896E+00  0.88000000000E+00 0.  1.
        -11    1    4    4    0    0  0.42366401161E-01 -0.17676037375E-01 -0.71029216394E-01  0.84574020522E-01  0.51100000000E-03 0.  1.
         11    1    4    4    0    0  0.14626752840E-01 -0.22021537609E-01 -0.40845081801E-01  0.48656673187E-01  0.51100000000E-03 0. -1.
</event>
<event>
 8    1  0.1128298E+005  0.1043930E+01  0.7957747E-01            NaN
         13   -1    0    0    0    0  0.00000000000E+00  0.00000000000E+00  0.74505805969E-08  0.10566000000E+00  0.10566000000E+00 0. -1.
     999900   -1    0    0    0    0 -0.00000000000E+00 -0.00000000000E+00 -0.74505805969E-08  0.93827000000E+00  0.93827000000E+00 0.  1.
     999902    2    1    2    0    0 -0.15275907739E-01  0.11811610848E-01 -0.14004564486E-01  0.10200763769E+01  0.10197974404E+01 0.  0.
     999903    2    3    3    0    0 -0.12619692261E+00  0.16004701098E-01  0.29153632903E-01  0.13205403285E+00  0.20162329881E-01 0.  0.
         14    1    1    2    0    0  0.15275907739E-01 -0.11811610848E-01  0.14004564486E-01  0.23853623090E-01  0.00000000000E+00 0.  1.
     999901    1    3    3    0    0  0.11092101487E+00 -0.41930902502E-02 -0.43158197389E-01  0.88802234406E+00  0.88000000000E+00 0. -1.
        -11    1    4    4    0    0 -0.24533839857E-02  0.80800980705E-03  0.41228270621E-02  0.48919113661E-02  0.51100000000E-03 0. -1.
         11    1    4    4    0    0 -0.12374353863E+00  0.15196691291E-01  0.25030805841E-01  0.12716212148E+00  0.51100000000E-03 0.  1.
</event>
<event>
 8    1  0.1128298E+005  0.1043930E+01  0.7957747E-01            NaN
         13   -1    0    0    0    0  0.00000000000E+00  0.00000000000E+00  0.74505805969E-08  0.10566000000E+00  0.10566000000E+00 0. -1.
     999900   -1    0    0    0    0 -0.00000000000E+00 -0.00000000000E+00 -0.74505805969E-08  0.93827000000E+00  0.93827000000E+00 0. -1.
     999902    2    1    2    0    0 -0.20348968644E-01 -0.70976172820E-02  0.11083280409E-01  0.10196958134E+01  0.10194077967E+01 0.  0.
     999903    2    3    3    0    0  0.16378750574E-01 -0.12734718842E+00  0.14711111705E-01  0.13075146987E+00  0.19848430560E-01 0.  0.
         14    1    1    2    0    0  0.20348968644E-01  0.70976172820E-02 -0.11083280409E-01  0.24234186608E-01  0.00000000000E+00 0.  1.
     999901    1    3    3    0    0 -0.36727719218E-01  0.12024957114E+00 -0.36278312964E-02  0.88894434352E+00  0.88000000000E+00 0. -1.
        -11    1    4    4    0    0  0.78830096640E-02 -0.59344582375E-01  0.16819691305E-01  0.62185886142E-01  0.51100000000E-03 0.  1.
         11    1    4    4    0    0  0.84957409104E-02 -0.68002606049E-01 -0.21085796004E-02  0.68565583728E-01  0.51100000000E-03 0. -1.
</event>
<event>
 8    1  0.1128298E+005  0.1043930E+01  0.7957747E-01            NaN
         13   -1    0    0    0    0  0.00000000000E+00  0.00000000000E+00  0.74505805969E-08  0.10566000000E+00  0.10566000000E+00 0. -1.
     999900   -1    0    0    0    0 -0.00000000000E+00 -0.00000000000E+00 -0.74505805969E-08  0.93827000000E+00  0.93827000000E+00 0.  1.
     999902    2    1    2    0    0 -0.83124187652E-02 -0.75055226368E-02  0.20456710292E-01  0.10206082039E+01  0.10203417074E+01 0.  0.
     999903    2    3    3    0    0 -0.12964615379E+00 -0.13077359582E-01  0.87166946498E-02  0.13218783688E+00  0.20457295257E-01 0.  0.
         14    1    1    2    0    0  0.83124187652E-02  0.75055226368E-02 -0.20456710292E-01  0.23321796066E-01  0.00000000000E+00 0.  1.
     999901    1    3    3    0    0  0.12133373502E+00  0.55718369456E-02  0.11740015642E-01  0.88842036705E+00  0.88000000000E+00 0. -1.
        -11    1    4    4    0    0 -0.48546009654E-01 -0.11892088503E-01 -0.37521951003E-02  0.50124613828E-01  0.51100000000E-03 0. -1.
         11    1    4    4    0    0 -0.81100144133E-01 -0.11852710795E-02  0.12468889750E-01  0.82063223057E-01  0.51100000000E-03 0.  1.
</event>
<event>
 8    1  0.1128298E+005  0.1043930E+01  0.7957747E-01            NaN
         13   -1    0    0    0    0  0.00000000000E+00  0.00000000000E+00  0.74505805969E-08  0.10566000000E+00  0.10566000000E+00 0.  1.
     999900   -1    0    0    0    0 -0.00000000000E+00 -0.00000000000E+00 -0.74505805969E-08  0.93827000000E+00  0.93827000000E+00 0.  1.
     999902    2    1    2    0    0 -0.15451194097E-01  0.19274371038E-01 -0.99888645720E-03  0.10192067609E+01  0.10189068568E+01 0.  0.
     999903    2    3    3    0    0 -0.12554066121E+00 -0.31383649656E-01 -0.27719517568E-02  0.13089990536E+00  0.19537410867E-01 0.  0.
         14    1    1    2    0    0  0.15451194097E-01 -0.19274371038E-01  0.99888645720E-03  0.24723239110E-01  0.00000000000E+00 0. -1.
     999901    1    3    3    0    0  0.11008946711E+00  0.50658020693E-01  0.17730652996E-02  0.88830685553E+00  0.88000000000E+00 0. -1.
        -11    1    4    4    0    0 -0.34923512777E-01  0.92867671277E-04 -0.15722198952E-02  0.34962742534E-01  0.51100000000E-03 0. -1.
         11    1    4    4    0    0 -0.90617148431E-01 -0.31476517327E-01 -0.11997318616E-02  0.95937162822E-01  0.51100000000E-03 0.  1.
</event>
<event>
 8    1  0.1128298E+005  0.1043930E+01  0.7957747E-01            NaN
         13   -1    0    0    0    0  0.00000000000E+00  0.00000000000E+00  0.74505805969E-08  0.10566000000E+00  0.10566000000E+00 0.  1.
     999900   -1    0    0    0    0 -0.00000000000E+00 -0.00000000000E+00 -0.74505805969E-08  0.93827000000E+00  0.93827000000E+00 0.  1.
     999902    2    1    2    0    0 -0.19517798841E-01 -0.12816362163E-01 -0.39925194988E-02  0.10202415255E+01  0.10199664831E+01 0.  0.
     999903    2    3    3    0    0  0.10208079324E+00 -0.69096235770E-01 -0.34685016897E-01  0.12957005346E+00  0.19762849263E-01 0.  0.
         14    1    1    2    0    0  0.19517798841E-01  0.12816362163E-01  0.39925194988E-02  0.23688474469E-01  0.00000000000E+00 0. -1.
     999901    1    3    3    0    0 -0.12159859208E+00  0.56279873607E-01  0.30692497398E-01  0.89067147207E+00  0.88000000000E+00 0. -1.
        -11    1    4    4    0    0  0.65894625140E-01 -0.36311497076E-01 -0.13963402688E-01  0.76523618432E-01  0.51100000000E-03 0. -1.
         11    1    4    4    0    0  0.36186168095E-01 -0.32784738694E-01 -0.20721614209E-01  0.53046435026E-01  0.51100000000E-03 0.  1.
</event>
<event>
 8    1  0.1128298E+005  0.1043930E+01  0.7957747E-01            NaN
         13   -1    0    0    0    0  0.00000000000E+00  0.00000000000E+00  0.74505805969E-08  0.10566000000E+00  0.10566000000E+00 0.  1.
     999900   -1    0    0    0    0 -0.00000000000E+00 -0.00000000000E+00 -0.74505805969E-08  0.93827000000E+00  0.93827000000E+00 0.  1.
     999902    2    1    2    0    0  0.20467852593E-01  0.11124191375E-01  0.51817101688E-02  0.10200651567E+01  0.10197859546E+01 0.  0.
     999903    2    3    3    0    0 -0.10301135184E+00  0.67809596174E-01  0.32799753522E-01  0.12920989051E+00  0.20245790511E-01 0.  0.
         14    1    1    2    0    0 -0.20467852593E-01 -0.11124191375E-01 -0.51817101688E-02  0.23864843259E-01  0.00000000000E+00 0. -1.
     999901    1    3    3    0    0  0.12347920444E+00 -0.56685404799E-01 -0.27618043353E-01  0.89085526623E+00  0.88000000000E+00 0. -1.
        -11    1    4    4    0    0 -0.79880490705E-01  0.42595861091E-01  0.27256382496E-01  0.94543490972E-01  0.51100000000E-03 0. -1.
         11    1    4    4    0    0 -0.23130861140E-01  0.25213735083E-01  0.55433710264E-02  0.34666399542E-01  0.51100000000E-03 0.  1.
</event>
<event>
 8    1  0.1128298E+005  0.1043930E+01  0.7957747E-01            NaN
         13   -1    0    0    0    0  0.00000000000E+00  0.00000000000E+00  0.74505805969E-08  0.10566000000E+00  0.10566000000E+00 0.  1.
     999900   -1    0    0    0    0 -0.00000000000E+00 -0.00000000000E+00 -0.74505805969E-08  0.93827000000E+00  0.93827000000E+00 0.  1.
     999902    2    1    2    0    0 -0.67220021568E-02  0.22537431248E-01  0.28277364105E-02  0.10202420872E+01  0.10199670579E+01 0.  0.
     999903    2    3    3    0    0  0.44025356958E-01 -0.91664788394E-01 -0.73927750884E-01  0.12810485208E+00  0.24594212529E-01 0.  0.
         14    1    1    2    0    0  0.67220021568E-02 -0.22537431248E-01 -0.28277364105E-02  0.23687912813E-01  0.00000000000E+00 0. -1.
     999901    1    3    3    0    0 -0.50747359115E-01  0.11420221964E+00  0.76755487294E-01  0.89213723510E+00  0.88000000000E+00 0. -1.
        -11    1    4    4    0    0  0.40718333736E-01 -0.69541851303E-01 -0.66645485606E-01  0.10457501450E+00  0.51100000000E-03 0. -1.
         11    1    4    4    0    0  0.33070232217E-02 -0.22122937092E-01 -0.72822652772E-02  0.23529837584E-01  0.51100000000E-03 0.  1.
</event>
<event>
 8    1  0.1128298E+005  0.1043930E+01  0.7957747E-01            NaN
         13   -1    0    0    0    0  0.00000000000E+00  0.00000000000E+00  0.74505805969E-08  0.10566000000E+00  0.10566000000E+00 0. -1.
     999900   -1    0    0    0    0 -0.00000000000E+00 -0.00000000000E+00 -0.74505805969E-08  0.93827000000E+00  0.93827000000E+00 0.  1.
     999902    2    1    2    0    0  0.18181657339E-02  0.49456183816E-02 -0.23643242305E-01  0.10197067101E+01  0.10194189555E+01 0.  0.
     999903    2    3    3    0    0  0.12415024500E-01  0.88976666947E-01 -0.94591133705E-01  0.13279796966E+00  0.24836225079E-01 0.  0.
         14    1    1    2    0    0 -0.18181657339E-02 -0.49456183816E-02  0.23643242305E-01  0.24223289919E-01  0.00000000000E+00 0. -1.
     999901    1    3    3    0    0 -0.10596858766E-01 -0.84031048566E-01  0.70947891399E-01  0.88690874042E+00  0.88000000000E+00 0.  1.
        -11    1    4    4    0    0  0.15420732261E-01  0.31970919637E-01 -0.43864121095E-01  0.56429255943E-01  0.51100000000E-03 0. -1.
         11    1    4    4    0    0 -0.30057077612E-02  0.57005747311E-01 -0.50727012609E-01  0.76368713718E-01  0.51100000000E-03 0.  1.
</event>
<event>
 8    1  0.1128298E+005  0.1043930E+01  0.7957747E-01            NaN
         13   -1    0    0    0    0  0.00000000000E+00  0.00000000000E+00  0.74505805969E-08  0.10566000000E+00  0.10566000000E+00 0.  1.
     999900   -1    0    0    0    0 -0.00000000000E+00 -0.00000000000E+00 -0.74505805969E-08  0.93827000000E+00  0.93827000000E+00 0. -1.
     999902    2    1    2    0    0  0.17080042358E-01 -0.14650839939E-01 -0.51990419526E-02  0.10208344378E+01  0.10205731450E+01 0.  0.
     999903    2    3    3    0    0  0.74698374089E-01 -0.65419149008E-01 -0.86977257801E-01  0.13371270432E+00  0.21319750786E-01 0.  0.
         14    1    1    2    0    0 -0.17080042358E-01  0.14650839939E-01  0.51990419526E-02  0.23095562238E-01  0.00000000000E+00 0. -1.
     999901    1    3    3    0    0 -0.57618331731E-01  0.50768309068E-01  0.81778215848E-01  0.88712173344E+00  0.88000000000E+00 0.  1.
        -11    1    4    4    0    0  0.20845362828E-01 -0.30661533288E-01 -0.26388435932E-01  0.45511201335E-01  0.51100000000E-03 0. -1.
         11    1    4    4    0    0  0.53853011261E-01 -0.34757615719E-01 -0.60588821868E-01  0.88201502985E-01  0.51100000000E-03 0.  1.
</event>
<event>
 8    1  0.1128298E+005  0.1043930E+01  0.7957747E-01            NaN
         13   -1    0    0    0    0  0.00000000000E+00  0.00000000000E+00  0.74505805969E-08  0.10566000000E+00  0.10566000000E+00 0.  1.
     999900   -1    0    0    0    0 -0.00000000000E+00 -0.00000000000E+00 -0.74505805969E-08  0.93827000000E+00  0.93827000000E+00 0.  1.
     999902    2    1    2    0    0  0.47206068970E-02 -0.23012431978E-01  0.39796612011E-02  0.10201036730E+01  0.10198253820E+01 0.  0.
     999903    2    3    3    0    0  0.66174837528E-01  0.71367682693E-01 -0.81862391781E-01  0.12878269458E+00  0.20275008779E-01 0.  0.
         14    1    1    2    0    0 -0.47206068970E-02  0.23012431978E-01 -0.39796612011E-02  0.23826326999E-01  0.00000000000E+00 0. -1.
     999901    1    3    3    0    0 -0.61454230631E-01 -0.94380114671E-01  0.85842052982E-01  0.89132097842E+00  0.88000000000E+00 0. -1.
        -11    1    4    4    0    0  0.11371490749E-01  0.25411350580E-01 -0.24749740553E-01  0.37253970508E-01  0.51100000000E-03 0.  1.
         11    1    4    4    0    0  0.54803346779E-01  0.45956332114E-01 -0.57112651228E-01  0.91528724075E-01  0.51100000000E-03 0. -1.
</event>
<event>
 8    1  0.1128298E+005  0.1043930E+01  0.7957747E-01            NaN
         13   -1    0    0    0    0  0.00000000000E+00  0.00000000000E+00  0.74505805969E-08  0.10566000000E+00  0.10566000000E+00 0. -1.
     999900   -1    0    0    0    0 -0.00000000000E+00 -0.00000000000E+00 -0.74505805969E-08  0.93827000000E+00  0.93827000000E+00 0. -1.
     999902    2    1    2    0    0  0.35545633873E-02  0.21971722448E-01  0.94806852084E-02  0.10197375446E+01  0.10194505309E+01 0.  0.
     999903    2    3    3    0    0 -0.11111294797E+00 -0.50320458567E-01  0.36834454273E-01  0.12893845033E+00  0.19751232768E-01 0.  0.
         14    1    1    2    0    0 -0.35545633873E-02 -0.21971722448E-01 -0.94806852084E-02  0.24192455440E-01  0.00000000000E+00 0.  1.
     999901    1    3    3    0    0  0.11466751135E+00  0.72292181015E-01 -0.27353769065E-01  0.89079909423E+00  0.88000000000E+00 0. -1.
        -11    1    4    4    0    0 -0.31314291365E-01 -0.16065855544E-01  0.19987316115E-01  0.40477777663E-01  0.51100000000E-03 0. -1.
         11    1    4    4    0    0 -0.79798656603E-01 -0.34254603022E-01  0.16847138158E-01  0.88460672668E-01  0.51100000000E-03 0.  1.
</event>
<event>
 8    1  0.1128298E+005  0.1043930E+01  0.7957747E-01            NaN
         13   -1    0    0    0    0  0.00000000000E+00  0.00000000000E+00  0.74505805969E-08  0.10566000000E+00  0.10566000000E+00 0. -1.
     999900   -1    0    0    0    0 -0.00000000000E+00 -0.00000000000E+00 -0.74505805969E-08  0.93827000000E+00  0.93827000000E+00 0.  1.
     999902    2    1    2    0    0 -0.53559061016E-02  0.23217824296E-01 -0.16220664676E-02  0.10200472825E+01  0.10197676570E+01 0.  0.
     999903    2    3    3    0    0  0.68582884893E-02 -0.85009864732E-01 -0.94031521650E-01  0.12853063845E+00  0.20111805835E-01 0.  0.
         14    1    1    2    0    0  0.53559061016E-02 -0.23217824296E-01  0.16220664676E-02  0.23882717493E-01  0.00000000000E+00 0. -1.
     999901    1    3    3    0    0 -0.12214194591E-01  0.10822768903E+00  0.92409455183E-01  0.89151664406E+00  0.88000000000E+00 0. -1.
        -11    1    4    4    0    0  0.34415596441E-02 -0.80575849731E-01 -0.80839749896E-01  0.11419123511E+00  0.51100000000E-03 0.  1.
         11    1    4    4    0    0  0.34167288451E-02 -0.44340150012E-02 -0.13191771755E-01  0.14339403337E-01  0.51100000000E-03 0. -1.
</event>
<event>
 8    1  0.1128298E+005  0.1043930E+01  0.7957747E-01            NaN
         13   -1    0    0    0    0  0.00000000000E+00  0.00000000000E+00  0.74505805969E-08  0.10566000000E+00  0.10566000000E+00 0.  1.
     999900   -1    0    0    0    0 -0.00000000000E+00 -0.00000000000E+00 -0.74505805969E-08  0.93827000000E+00  0.93827000000E+00 0.  1.
     999902    2    1    2    0    0 -0.14005162864E-01 -0.23733046541E-02  0.18731617887E-01  0.10204214766E+01  0.10201506454E+01 0.  0.
     999903    2    3    3    0    0 -0.72542827329E-01 -0.35991588909E-02  0.11029023049E+00  0.13373599665E+00  0.21117909907E-01 0.  0.
         14    1    1    2    0    0  0.14005162864E-01  0.23733046541E-02 -0.18731617887E-01  0.23508523359E-01  0.00000000000E+00 0.  1.
     999901    1    3    3    0    0  0.58537664464E-01  0.12258542368E-02 -0.91558612598E-01  0.88668547999E+00  0.88000000000E+00 0.  1.
        -11    1    4    4    0    0 -0.21972839939E-01  0.45553295552E-02  0.48723866313E-01  0.53645437754E-01  0.51100000000E-03 0. -1.
         11    1    4    4    0    0 -0.50569987390E-01 -0.81544884462E-02  0.61566364173E-01  0.80090558900E-01  0.51100000000E-03 0.  1.
</event>
<event>
 8    1  0.1128298E+005  0.1043930E+01  0.7957747E-01            NaN
         13   -1    0    0    0    0  0.00000000000E+00  0.00000000000E+00  0.74505805969E-08  0.10566000000E+00  0.10566000000E+00 0. -1.
     999900   -1    0    0    0    0 -0.00000000000E+00 -0.00000000000E+00 -0.74505805969E-08  0.93827000000E+00  0.93827000000E+00 0.  1.
     999902    2    1    2    0    0 -0.17767508700E-01  0.74098589008E-02  0.13735056832E-01  0.10202816986E+01  0.10200075991E+01 0.  0.
     999903    2    3    3    0    0  0.44286388373E-01  0.91457428146E-01  0.81336334105E-01  0.13152716962E+00  0.18922255275E-01 0.  0.
         14    1    1    2    0    0  0.17767508700E-01 -0.74098589008E-02 -0.13735056832E-01  0.23648301430E-01  0.00000000000E+00 0.  1.
     999901    1    3    3    0    0 -0.62053897074E-01 -0.84047569245E-01 -0.67601277273E-01  0.88875452895E+00  0.88000000000E+00 0.  1.
        -11    1    4    4    0    0  0.16785760544E-01  0.45409747140E-01  0.49062707033E-01  0.68929073944E-01  0.51100000000E-03 0. -1.
         11    1    4    4    0    0  0.27500627829E-01  0.46047681006E-01  0.32273627072E-01  0.62598095677E-01  0.51100000000E-03 0.  1.
</event>
<event>
 8    1  0.1128298E+005  0.1043930E+01  0.7957747E-01            NaN
         13   -1    0    0    0    0  0.00000000000E+00  0.00000000000E+00  0.74505805969E-08  0.10566000000E+00  0.10566000000E+00 0.  1.
     999900   -1    0    0    0    0 -0.00000000000E+00 -0.00000000000E+00 -0.74505805969E-08  0.93827000000E+00  0.93827000000E+00 0.  1.
     999902    2    1    2    0    0 -0.21361461642E-01  0.34352940662E-02 -0.13873079492E-01  0.10182283342E+01  0.10179039075E+01 0.  0.
     999903    2    3    3    0    0  0.33030830009E-01  0.18066168136E-02 -0.12356955406E+00  0.12974958349E+00  0.21707605327E-01 0.  0.
         14    1    1    2    0    0  0.21361461642E-01 -0.34352940662E-02  0.13873079492E-01  0.25701665771E-01  0.00000000000E+00 0.  1.
     999901    1    3    3    0    0 -0.54392291650E-01  0.16286772526E-02  0.10969647457E+00  0.88847875074E+00  0.88000000000E+00 0. -1.
        -11    1    4    4    0    0  0.57712818751E-03 -0.43193219869E-02 -0.49388986697E-02  0.66063197350E-02  0.51100000000E-03 0. -1.
         11    1    4    4    0    0  0.32453701821E-01  0.61259388005E-02 -0.11863065539E+00  0.12314326376E+00  0.51100000000E-03 0.  1.
</event>
<event>
 8    1  0.1128298E+005  0.1043930E+01  0.7957747E-01            NaN
         13   -1    0    0    0    0  0.00000000000E+00  0.00000000000E+00  0.74505805969E-08  0.10566000000E+00  0.10566000000E+00 0. -1.
     999900   -1    0    0    0    0 -0.00000000000E+00 -0.00000000000E+00 -0.74505805969E-08  0.93827000000E+00  0.93827000000E+00 0.  1.
     999902    2    1    2    0    0 -0.14305245160E-01  0.22427626604E-01 -0.78445294385E-02  0.10161959935E+01  0.10158174650E+01 0.  0.
     999903    2    3    3    0    0 -0.59926153514E-01 -0.17261163473E-02 -0.11184622660E+00  0.12856936953E+00  0.20648995684E-01 0.  0.
         14    1    1    2    0    0  0.14305245160E-01 -0.22427626604E-01  0.78445294385E-02  0.27734006496E-01  0.00000000000E+00 0. -1.
     999901    1    3    3    0    0  0.45620908354E-01  0.24153742951E-01  0.10400169717E+00  0.88762662398E+00  0.88000000000E+00 0. -1.
        -11    1    4    4    0    0 -0.49287289017E-01 -0.57604506817E-02 -0.74419486578E-01  0.89447977921E-01  0.51100000000E-03 0.  1.
         11    1    4    4    0    0 -0.10638864498E-01  0.40343343344E-02 -0.37426740026E-01  0.39121391608E-01  0.51100000000E-03 0. -1.
</event>
<event>
 8    1  0.1128298E+005  0.1043930E+01  0.7957747E-01            NaN
         13   -1    0    0    0    0  0.00000000000E+00  0.00000000000E+00  0.74505805969E-08  0.10566000000E+00  0.10566000000E+00 0. -1.
     999900   -1    0    0    0    0 -0.00000000000E+00 -0.00000000000E+00 -0.74505805969E-08  0.93827000000E+00  0.93827000000E+00 0. -1.
     999902    2    1    2    0    0 -0.47340908918E-02  0.15934259900E-02  0.22393643984E-01  0.10209860266E+01  0.10207281914E+01 0.  0.
     999903    2    3    3    0    0 -0.51406669615E-01  0.11391054777E+00  0.38913545556E-01  0.13246682448E+00  0.20370002091E-01 0.  0.
         14    1    1    2    0    0  0.47340908918E-02 -0.15934259900E-02 -0.22393643984E-01  0.22943973367E-01  0.00000000000E+00 0.  1.
     999901    1    3    3    0    0  0.46672578723E-01 -0.11231712178E+00 -0.16519901572E-01  0.88851920215E+00  0.88000000000E+00 0. -1.
        -11    1    4    4    0    0 -0.31073456112E-01  0.48952222972E-01  0.11656394816E-01  0.59143997749E-01  0.51100000000E-03 0.  1.
         11    1    4    4    0    0 -0.20333213503E-01  0.64958324799E-01  0.27257150741E-01  0.73322826729E-01  0.51100000000E-03 0. -1.
</event>
<event>
 8    1  0.1128298E+005  0.1043930E+01  0.7957747E-01            NaN
         13   -1    0    0    0    0  0.00000000000E+00  0.00000000000E+00  0.74505805969E-08  0.10566000000E+00  0.10566000000E+00 0. -1.
     999900   -1    0    0    0    0 -0.00000000000E+00 -0.00000000000E+00 -0.74505805969E-08  0.93827000000E+00  0.93827000000E+00 0.  1.
     999902    2    1    2    0    0  0.30870518662E-02 -0.20498853268E-01 -0.10880127462E-01  0.10205182498E+01  0.10202496695E+01 0.  0.
     999903    2    3    3    0    0 -0.32732071062E-01  0.63457468449E-01  0.10470986199E+00  0.12827796870E+00  0.19820274410E-01 0.  0.
         14    1    1    2    0    0 -0.30870518662E-02  0.20498853268E-01  0.10880127462E-01  0.23411750215E-01  0.00000000000E+00 0. -1.
     999901    1    3    3    0    0  0.35819122928E-01 -0.83956321717E-01 -0.11558998946E+00  0.89224028108E+00  0.88000000000E+00 0. -1.
        -11    1    4    4    0    0 -0.86732905383E-02  0.39847286978E-02  0.95574659886E-02  0.13517037718E-01  0.51100000000E-03 0.  1.
         11    1    4    4    0    0 -0.24058780524E-01  0.59472739751E-01  0.95152396005E-01  0.11476093098E+00  0.51100000000E-03 0. -1.
</event>
<event>
 8    1  0.1128298E+005  0.1043930E+01  0.7957747E-01            NaN
         13   -1    0    0    0    0  0.00000000000E+00  0.00000000000E+00  0.74505805969E-08  0.10566000000E+00  0.10566000000E+00 0.  1.
     999900   -1    0    0    0    0 -0.00000000000E+00 -0.00000000000E+00 -0.74505805969E-08  0.93827000000E+00  0.93827000000E+00 0.  1.
     999902    2    1    2    0    0 -0.80017079120E-02 -0.16746163245E-01  0.17283986034E-01  0.10185686616E+01  0.10182528767E+01 0.  0.
     999903    2    3    3    0    0  0.60259849791E-02  0.55652408827E-01 -0.11133504061E+00  0.12616674349E+00  0.19724421189E-01 0.  0.
         14    1    1    2    0    0  0.80017079120E-02  0.16746163245E-01 -0.17283986034E-01  0.25361338414E-01  0.00000000000E+00 0. -1.
     999901    1    3    3    0    0 -0.14027692891E-01 -0.72398572072E-01  0.12861902665E+00  0.89240191810E+00  0.88000000000E+00 0. -1.
        -11    1    4    4    0    0  0.12988603133E-01  0.40967853541E-01 -0.84125421645E-01  0.94469130000E-01  0.51100000000E-03 0.  1.
         11    1    4    4    0    0 -0.69626181544E-02  0.14684555286E-01 -0.27209618968E-01  0.31697613489E-01  0.51100000000E-03 0. -1.
</event>
<event>
 8    1  0.1128298E+005  0.1043930E+01  0.7957747E-01            NaN
         13   -1    0    0    0    0  0.00000000000E+00  0.00000000000E+00  0.74505805969E-08  0.10566000000E+00  0.10566000000E+00 0.  1.
     999900   -1    0    0    0    0 -0.00000000000E+00 -0.00000000000E+00 -0.74505805969E-08  0.93827000000E+00  0.93827000000E+00 0. -1.
     999902    2    1    2    0    0 -0.22664950696E-01 -0.21902863808E-02 -0.57455755915E-02  0.10204457716E+01  0.10201755064E+01 0.  0.
     999903    2    3    3    0    0 -0.12938002753E+00 -0.36181250741E-02  0.25573068801E-01  0.13344464205E+00  0.20030184459E-01 0.  0.
         14    1    1    2    0    0  0.22664950696E-01  0.21902863808E-02  0.57455755915E-02  0.23484228396E-01  0.00000000000E+00 0. -1.
     999901    1    3    3    0    0  0.10671507684E+00  0.14278386932E-02 -0.31318644392E-01  0.88700112956E+00  0.88000000000E+00 0. -1.
        -11    1    4    4    0    0 -0.30549611655E-01 -0.51922161234E-02  0.13717160315E-01  0.33891879391E-01  0.51100000000E-03 0. -1.
         11    1    4    4    0    0 -0.98830415879E-01  0.15740910493E-02  0.11855908485E-01  0.99552762656E-01  0.51100000000E-03 0.  1.
</event>
<event>
 8    1  0.1128298E+005  0.1043930E+01  0.7957747E-01            NaN
         13   -1    0    0    0    0  0.00000000000E+00  0.00000000000E+00  0.74505805969E-08  0.10566000000E+00  0.10566000000E+00 0. -1.
     999900   -1    0    0    0    0 -0.00000000000E+00 -0.00000000000E+00 -0.74505805969E-08  0.93827000000E+00  0.93827000000E+00 0. -1.
     999902    2    1    2    0    0  0.41491753332E-02 -0.15456217772E-01 -0.16102578939E-01  0.10212275030E+01  0.10209751267E+01 0.  0.
     999903    2    3    3    0    0 -0.92934525080E-01  0.66441017094E-01  0.56563410198E-01  0.12914412796E+00  0.20677323528E-01 0.  0.
         14    1    1    2    0    0 -0.41491753332E-02  0.15456217772E-01  0.16102578939E-01  0.22702497048E-01  0.00000000000E+00 0. -1.
     999901    1    3    3    0    0  0.97083700413E-01 -0.81897234866E-01 -0.72665989137E-01  0.89208337499E+00  0.88000000000E+00 0. -1.
        -11    1    4    4    0    0 -0.63879478849E-01  0.54416359669E-01  0.47442418117E-01  0.96399025802E-01  0.51100000000E-03 0. -1.
         11    1    4    4    0    0 -0.29055046230E-01  0.12024657425E-01  0.91209920815E-02  0.32745102155E-01  0.51100000000E-03 0.  1.
</event>
<event>
 8    1  0.1128298E+005  0.1043930E+01  0.7957747E-01            NaN
         13   -1    0    0    0    0  0.00000000000E+00  0.00000000000E+00  0.74505805969E-08  0.10566000000E+00  0.10566000000E+00 0. -1.
     999900   -1    0    0    0    0 -0.00000000000E+00 -0.00000000000E+00 -0.74505805969E-08  0.93827000000E+00  0.93827000000E+00 0. -1.
     999902    2    1    2    0    0  0.14498894890E-01 -0.13744398873E-01 -0.20404858192E-01  0.10153733074E+01  0.10149716591E+01 0.  0.
     999903    2    3    3    0    0  0.20142190666E-01 -0.11436780274E+00  0.47313585227E-01  0.12703626340E+00  0.20345385807E-01 0.  0.
         14    1    1    2    0    0 -0.14498894890E-01  0.13744398873E-01  0.20404858192E-01  0.28556692582E-01  0.00000000000E+00 0. -1.
     999901    1    3    3    0    0 -0.56432957760E-02  0.10062340387E+00 -0.67718443419E-01  0.88833704402E+00  0.88000000000E+00 0. -1.
        -11    1    4    4    0    0  0.13732089277E-01 -0.76276592353E-01  0.41669310312E-01  0.87995916722E-01  0.51100000000E-03 0.  1.
         11    1    4    4    0    0  0.64101013892E-02 -0.38091210386E-01  0.56442749156E-02  0.39040346679E-01  0.51100000000E-03 0. -1.
</event>
<event>
 8    1  0.1128298E+005  0.1043930E+01  0.7957747E-01            NaN
         13   -1    0    0    0    0  0.00000000000E+00  0.00000000000E+00  0.74505805969E-08  0.10566000000E+00  0.10566000000E+00 0. -1.
     999900   -1    0    0    0    0 -0.00000000000E+00 -0.00000000000E+00 -0.74505805969E-08  0.93827000000E+00  0.93827000000E+00 0. -1.
     999902    2    1    2    0    0  0.63179069391E-02  0.14348044846E-01  0.21912564254E-01  0.10169866741E+01  0.10166297027E+01 0.  0.
     999903    2    3    3    0    0  0.10220649367E+00 -0.40069584877E-01 -0.58750511318E-01  0.12644614651E+00  0.22028763171E-01 0.  0.
         14    1    1    2    0    0 -0.63179069391E-02 -0.14348044846E-01 -0.21912564254E-01  0.26943325912E-01  0.00000000000E+00 0.  1.
     999901    1    3    3    0    0 -0.95888586735E-01  0.54417629723E-01  0.80663075572E-01  0.89054052757E+00  0.88000000000E+00 0.  1.
        -11    1    4    4    0    0  0.55573467302E-01 -0.10667556568E-01 -0.33961333053E-01  0.65998790101E-01  0.51100000000E-03 0.  1.
         11    1    4    4    0    0  0.46633026373E-01 -0.29402028309E-01 -0.24789178265E-01  0.60447356414E-01  0.51100000000E-03 0. -1.
</event>
<event>
 8    1  0.1128298E+005  0.1043930E+01  0.7957747E-01            NaN
         13   -1    0    0    0    0  0.00000000000E+00  0.00000000000E+00  0.74505805969E-08  0.10566000000E+00  0.10566000000E+00 0. -1.
     999900   -1    0    0    0    0 -0.00000000000E+00 -0.00000000000E+00 -0.74505805969E-08  0.93827000000E+00  0.93827000000E+00 0. -1.
     999902    2    1    2    0    0  0.15211223611E-01  0.17998464803E-01  0.10606150704E-01  0.10180878544E+01  0.10177598256E+01 0.  0.
     999903    2    3    3    0    0 -0.88954485458E-01  0.89903757075E-01  0.15891790340E-01  0.12901597650E+00  0.19924536940E-01 0.  0.
         14    1    1    2    0    0 -0.15211223611E-01 -0.17998464803E-01 -0.10606150704E-01  0.25842145649E-01  0.00000000000E+00 0.  1.
     999901    1    3    3    0    0  0.10416570907E+00 -0.71905292272E-01 -0.52856396361E-02  0.88907187785E+00  0.88000000000E+00 0.  1.
        -11    1    4    4    0    0 -0.44374796835E-01  0.44123272403E-01  0.17876627143E-01  0.65083182779E-01  0.51100000000E-03 0.  1.
         11    1    4    4    0    0 -0.44579688623E-01  0.45780484672E-01 -0.19848368033E-02  0.63932793719E-01  0.51100000000E-03 0. -1.
</event>
<event>
 8    1  0.1128298E+005  0.1043930E+01  0.7957747E-01            NaN
         13   -1    0    0    0    0  0.00000000000E+00  0.00000000000E+00  0.74505805969E-08  0.10566000000E+00  0.10566000000E+00 0. -1.
     999900   -1    0    0    0    0 -0.00000000000E+00 -0.00000000000E+00 -0.74505805969E-08  0.93827000000E+00  0.93827000000E+00 0. -1.
     999902    2    1    2    0    0 -0.11727612053E-01  0.22045469993E-01  0.15638530152E-02  0.10189103024E+01  0.10186030724E+01 0.  0.
     999903    2    3    3    0    0  0.68741582288E-01 -0.13546307559E-01  0.10599479243E+00  0.12837794085E+00  0.18360067831E-01 0.  0.
         14    1    1    2    0    0  0.11727612053E-01 -0.22045469993E-01 -0.15638530152E-02  0.25019697599E-01  0.00000000000E+00 0. -1.
     999901    1    3    3    0    0 -0.80469194341E-01  0.35591777551E-01 -0.10443093941E+00  0.89053236155E+00  0.88000000000E+00 0. -1.
        -11    1    4    4    0    0  0.62169758859E-01 -0.92529453609E-02  0.83272685224E-01  0.10433262740E+00  0.51100000000E-03 0. -1.
         11    1    4    4    0    0  0.65718234294E-02 -0.42933621977E-02  0.22722107203E-01  0.24045313450E-01  0.51100000000E-03 0.  1.
</event>
<event>
 8    1  0.1128298E+005  0.1043930E+01  0.7957747E-01            NaN
         13   -1    0    0    0    0  0.00000000000E+00  0.00000000000E+00  0.74505805969E-08  0.10566000000E+00  0.10566000000E+00 0.  1.
     999900   -1    0    0    0    0 -0.00000000000E+00 -0.00000000000E+00 -0.74505805969E-08  0.93827000000E+00  0.93827000000E+00 0.  1.
     999902    2    1    2    0    0 -0.39012287184E-02  0.22096603906E-01 -0.95285543023E-02  0.10195522881E+01  0.10192608083E+01 0.  0.
     999903    2    3    3    0    0 -0.50126282588E-01 -0.56628250459E-01  0.10139775403E+00  0.12790269092E+00  0.18925931034E-01 0.  0.
         14    1    1    2    0    0  0.39012287184E-02 -0.22096603906E-01  0.95285543023E-02  0.24377711886E-01  0.00000000000E+00 0.  1.
     999901    1    3    3    0    0  0.46225053870E-01  0.78724854365E-01 -0.11092630833E+00  0.89164959720E+00  0.88000000000E+00 0.  1.
        -11    1    4    4    0    0 -0.80644613440E-02 -0.98926867937E-02  0.30909969550E-01  0.33445300527E-01  0.51100000000E-03 0. -1.
         11    1    4    4    0    0 -0.42061821244E-01 -0.46735563665E-01  0.70487784480E-01  0.94457390391E-01  0.51100000000E-03 0.  1.
</event>
<event>
 8    1  0.1128298E+005  0.1043930E+01  0.7957747E-01            NaN
         13   -1    0    0    0    0  0.00000000000E+00  0.00000000000E+00  0.74505805969E-08  0.10566000000E+00  0.10566000000E+00 0. -1.
     999900   -1    0    0    0    0 -0.00000000000E+00 -0.00000000000E+00 -0.74505805969E-08  0.93827000000E+00  0.93827000000E+00 0. -1.
     999902    2    1    2    0    0 -0.75468773031E-02 -0.20518461052E-01  0.93137108722E-02  0.10201664184E+01  0.10198896084E+01 0.  0.
     999903    2    3    3    0    0 -0.53829916749E-01  0.95619100765E-01  0.66723137713E-01  0.12947797943E+00  0.16489320229E-01 0.  0.
         14    1    1    2    0    0  0.75468773031E-02  0.20518461052E-01 -0.93137108722E-02  0.23763581615E-01  0.00000000000E+00 0.  1.
     999901    1    3    3    0    0  0.46283039446E-01 -0.11613756182E+00 -0.57409426841E-01  0.89068843896E+00  0.88000000000E+00 0.  1.
        -11    1    4    4    0    0 -0.52071026392E-01  0.85788945802E-01  0.64302572508E-01  0.11918983582E+00  0.51100000000E-03 0. -1.
         11    1    4    4    0    0 -0.17588903569E-02  0.98301549626E-02  0.24205652049E-02  0.10288143603E-01  0.51100000000E-03 0.  1.
</event>
<event>
 8    1  0.1128298E+005  0.1043930E+01  0.7957747E-01            NaN
         13   -1    0    0    0    0  0.00000000000E+00  0.00000000000E+00  0.74505805969E-08  0.10566000000E+00  0.10566000000E+00 0. -1.
     999900   -1    0    0    0    0 -0.00000000000E+00 -0.00000000000E+00 -0.74505805969E-08  0.93827000000E+00  0.93827000000E+00 0.  1.
     999902    2    1    2    0    0 -0.20259116052E-01 -0.31042444658E-01  0.20110772645E-02  0.10068071016E+01  0.10061224728E+01 0.  0.
     999903    2    3    3    0    0 -0.49222991681E-01  0.94987224551E-01  0.41382362974E-01  0.11648554073E+00  0.20270804046E-01 0.  0.
         14    1    1    2    0    0  0.20259116052E-01  0.31042444658E-01 -0.20110772645E-02  0.37122898396E-01  0.00000000000E+00 0.  1.
     999901    1    3    3    0    0  0.28963875629E-01 -0.12602966921E+00 -0.39371285710E-01  0.89032156087E+00  0.88000000000E+00 0.  1.
        -11    1    4    4    0    0 -0.30689411282E-01  0.70539475061E-01  0.37424548860E-01  0.85548322514E-01  0.51100000000E-03 0.  1.
         11    1    4    4    0    0 -0.18533580400E-01  0.24447749491E-01  0.39578141143E-02  0.30937218220E-01  0.51100000000E-03 0. -1.
</event>
<event>
 8    1  0.1128298E+005  0.1043930E+01  0.7957747E-01            NaN
         13   -1    0    0    0    0  0.00000000000E+00  0.00000000000E+00  0.74505805969E-08  0.10566000000E+00  0.10566000000E+00 0. -1.
     999900   -1    0    0    0    0 -0.00000000000E+00 -0.00000000000E+00 -0.74505805969E-08  0.93827000000E+00  0.93827000000E+00 0.  1.
     999902    2    1    2    0    0  0.18427033888E-01 -0.14883417743E-01  0.34291225752E-02  0.10199961206E+01  0.10197152816E+01 0.  0.
     999903    2    3    3    0    0  0.31845388456E-01 -0.11334407947E+00  0.57853828206E-01  0.13273257309E+00  0.20245034058E-01 0.  0.
         14    1    1    2    0    0 -0.18427033888E-01  0.14883417743E-01 -0.34291225752E-02  0.23933879402E-01  0.00000000000E+00 0. -1.
     999901    1    3    3    0    0 -0.13418354568E-01  0.98460661731E-01 -0.54424705631E-01  0.88726354750E+00  0.88000000000E+00 0.  1.
        -11    1    4    4    0    0  0.12861504710E-01 -0.40131914374E-01  0.31578091742E-01  0.52663325510E-01  0.51100000000E-03 0. -1.
         11    1    4    4    0    0  0.18983883746E-01 -0.73212165100E-01  0.26275736464E-01  0.80069247583E-01  0.51100000000E-03 0.  1.
</event>
<event>
 8    1  0.1128298E+005  0.1043930E+01  0.7957747E-01            NaN
         13   -1    0    0    0    0  0.00000000000E+00  0.00000000000E+00  0.74505805969E-08  0.10566000000E+00  0.10566000000E+00 0. -1.
     999900   -1    0    0    0    0 -0.00000000000E+00 -0.00000000000E+00 -0.74505805969E-08  0.93827000000E+00  0.93827000000E+00 0. -1.
     999902    2    1    2    0    0 -0.21533718757E-01  0.52520370583E-02 -0.82782595312E-02  0.10202696002E+01  0.10199952170E+01 0.  0.
     999903    2    3    3    0    0  0.10202518243E+00  0.17214241309E-01 -0.74779363136E-01  0.12907248781E+00  0.19033812170E-01 0.  0.
         14    1    1    2    0    0  0.21533718757E-01 -0.52520370583E-02  0.82782595312E-02  0.23660399777E-01  0.00000000000E+00 0. -1.
     999901    1    3    3    0    0 -0.12355890118E+00 -0.11962204251E-01  0.66501103605E-01  0.89119711241E+00  0.88000000000E+00 0.  1.
        -11    1    4    4    0    0  0.17108563644E-01  0.16852690729E-02 -0.45590442991E-02  0.17792950506E-01  0.51100000000E-03 0. -1.
         11    1    4    4    0    0  0.84916618781E-01  0.15528972236E-01 -0.70220318837E-01  0.11127953730E+00  0.51100000000E-03 0.  1.
</event>
<event>
 8    1  0.1128298E+005  0.1043930E+01  0.7957747E-01            NaN
         13   -1    0    0    0    0  0.00000000000E+00  0.00000000000E+00  0.74505805969E-08  0.10566000000E+00  0.10566000000E+00 0. -1.
     999900   -1    0    0    0    0 -0.00000000000E+00 -0.00000000000E+00 -0.74505805969E-08  0.93827000000E+00  0.93827000000E+00 0.  1.
     999902    2    1    2    0    0 -0.18252717170E-01  0.85056291474E-02 -0.11204950928E-01  0.10208852970E+01  0.10206251669E+01 0.  0.
     999903    2    3    3    0    0 -0.12662532567E+00 -0.31032667376E-01  0.17424004493E-01  0.13289457843E+00  0.18983505952E-01 0.  0.
         14    1    1    2    0    0  0.18252717170E-01 -0.85056291474E-02  0.11204950928E-01  0.23044703005E-01  0.00000000000E+00 0. -1.
     999901    1    3    3    0    0  0.10837260850E+00  0.39538296524E-01 -0.28628955421E-01  0.88799071856E+00  0.88000000000E+00 0.  1.
        -11    1    4    4    0    0 -0.80579118567E-01 -0.25111619062E-01  0.18696985817E-01  0.86448980101E-01  0.51100000000E-03 0. -1.
         11    1    4    4    0    0 -0.46046207105E-01 -0.59210483145E-02 -0.12729813241E-02  0.46445598331E-01  0.51100000000E-03 0.  1.
</event>
<event>
 8    1  0.1128298E+005  0.1043930E+01  0.7957747E-01            NaN
         13   -1    0    0    0    0  0.00000000000E+00  0.00000000000E+00  0.74505805969E-08  0.10566000000E+00  0.10566000000E+00 0.  1.
     999900   -1    0    0    0    0 -0.00000000000E+00 -0.00000000000E+00 -0.74505805969E-08  0.93827000000E+00  0.93827000000E+00 0.  1.
     999902    2    1    2    0    0  0.51152096847E-02 -0.69234779353E-02  0.22044323997E-01  0.10202645793E+01  0.10199900782E+01 0.  0.
     999903    2    3    3    0    0  0.22742214288E-01 -0.11300101802E+00 -0.56720115421E-01  0.13022694373E+00  0.21341204169E-01 0.  0.
         14    1    1    2    0    0 -0.51152096847E-02  0.69234779353E-02 -0.22044323997E-01  0.23665420709E-01  0.00000000000E+00 0. -1.
     999901    1    3    3    0    0 -0.17627004604E-01  0.10607754008E+00  0.78764439418E-01  0.89003763556E+00  0.88000000000E+00 0. -1.
        -11    1    4    4    0    0  0.14415997216E-03 -0.88877370731E-02 -0.11361021647E-01  0.14434215817E-01  0.51100000000E-03 0.  1.
         11    1    4    4    0    0  0.22598054316E-01 -0.10411328095E+00 -0.45359093773E-01  0.11579272791E+00  0.51100000000E-03 0. -1.
</event>
<event>
 8    1  0.1128298E+005  0.1043930E+01  0.7957747E-01            NaN
         13   -1    0    0    0    0  0.00000000000E+00  0.00000000000E+00  0.74505805969E-08  0.10566000000E+00  0.10566000000E+00 0. -1.
     999900   -1    0    0    0    0 -0.00000000000E+00 -0.00000000000E+00 -0.74505805969E-08  0.93827000000E+00  0.93827000000E+00 0. -1.
     999902    2    1    2    0    0  0.37264829320E-02  0.12956753903E-01  0.19829888266E-01  0.10199510798E+01  0.10196691701E+01 0.  0.
     999903    2    3    3    0    0 -0.21573511226E-01  0.95474111755E-01  0.87985283126E-01  0.13310590619E+00  0.19875860086E-01 0.  0.
         14    1    1    2    0    0 -0.37264829320E-02 -0.12956753903E-01 -0.19829888266E-01  0.23978920230E-01  0.00000000000E+00 0.  1.
     999901    1    3    3    0    0  0.25299994158E-01 -0.82517357853E-01 -0.68155394860E-01  0.88684517358E+00  0.88000000000E+00 0. -1.
        -11    1    4    4    0    0 -0.94148866182E-02  0.77130278131E-01  0.65347701874E-01  0.10152981412E+00  0.51100000000E-03 0.  1.
         11    1    4    4    0    0 -0.12158624607E-01  0.18343833625E-01  0.22637581253E-01  0.31576092069E-01  0.51100000000E-03 0. -1.
</event>
<event>
 8    1  0.1128298E+005  0.1043930E+01  0.7957747E-01            NaN
         13   -1    0    0    0    0  0.00000000000E+00  0.00000000000E+00  0.74505805969E-08  0.10566000000E+00  0.10566000000E+00 0. -1.
     999900   -1    0    0    0    0 -0.00000000000E+00 -0.00000000000E+00 -0.74505805969E-08  0.93827000000E+00  0.93827000000E+00 0. -1.
     999902    2    1    2    0    0  0.68902336569E-02 -0.21181786319E-01  0.49767708555E-02  0.10211065112E+01  0.10208514072E+01 0.  0.
     999903    2    3    3    0    0 -0.11328222106E+00  0.59156067560E-01 -0.44053892700E-02  0.12926369180E+00  0.18904830724E-01 0.  0.
         14    1    1    2    0    0 -0.68902336569E-02  0.21181786319E-01 -0.49767708555E-02  0.22823488770E-01  0.00000000000E+00 0. -1.
     999901    1    3    3    0    0  0.12017245472E+00 -0.80337853879E-01  0.93821601255E-02  0.89184281943E+00  0.88000000000E+00 0.  1.
        -11    1    4    4    0    0 -0.18847254655E-01  0.34199141730E-02 -0.41496388496E-02  0.19606005319E-01  0.51100000000E-03 0. -1.
         11    1    4    4    0    0 -0.94434966409E-01  0.55736153387E-01 -0.25575042046E-03  0.10965768648E+00  0.51100000000E-03 0.  1.
</event>
<event>
 8    1  0.1128298E+005  0.1043930E+01  0.7957747E-01            NaN
         13   -1    0    0    0    0  0.00000000000E+00  0.00000000000E+00  0.74505805969E-08  0.10566000000E+00  0.10566000000E+00 0.  1.
     999900   -1    0    0    0    0 -0.00000000000E+00 -0.00000000000E+00 -0.74505805969E-08  0.93827000000E+00  0.93827000000E+00 0.  1.
     999902    2    1    2    0    0  0.69180042585E-02 -0.24841973775E-01 -0.32743731109E-02  0.10179356936E+01  0.10176037404E+01 0.  0.
     999903    2    3    3    0    0  0.66782149834E-01 -0.79472773342E-01 -0.77479292036E-01  0.13110165608E+00  0.20219453316E-01 0.  0.
         14    1    1    2    0    0 -0.69180042585E-02  0.24841973775E-01  0.32743731109E-02  0.25994306361E-01  0.00000000000E+00 0.  1.
     999901    1    3    3    0    0 -0.59864145576E-01  0.54630799567E-01  0.74204918925E-01  0.88683403756E+00  0.88000000000E+00 0. -1.
        -11    1    4    4    0    0  0.52826655725E-01 -0.51794048353E-01 -0.47146325870E-01  0.87728650758E-01  0.51100000000E-03 0. -1.
         11    1    4    4    0    0  0.13955494109E-01 -0.27678724989E-01 -0.30332966167E-01  0.43373005318E-01  0.51100000000E-03 0.  1.
</event>
<event>
 8    1  0.1128298E+005  0.1043930E+01  0.7957747E-01            NaN
         13   -1    0    0    0    0  0.00000000000E+00  0.00000000000E+00  0.74505805969E-08  0.10566000000E+00  0.10566000000E+00 0.  1.
     999900   -1    0    0    0    0 -0.00000000000E+00 -0.00000000000E+00 -0.74505805969E-08  0.93827000000E+00  0.93827000000E+00 0.  1.
     999902    2    1    2    0    0 -0.25066926672E-02 -0.55831740652E-02  0.22957767825E-01  0.10201704873E+01  0.10198937732E+01 0.  0.
     999903    2    3    3    0    0 -0.29723303875E-02 -0.12686719800E+00  0.29960864584E-01  0.13182422898E+00  0.19386935419E-01 0.  0.
         14    1    1    2    0    0  0.25066926672E-02  0.55831740652E-02 -0.22957767825E-01  0.23759512711E-01  0.00000000000E+00 0. -1.
     999901    1    3    3    0    0  0.46563772033E-03  0.12128402393E+00 -0.70030967588E-02  0.88834625830E+00  0.88000000000E+00 0. -1.
        -11    1    4    4    0    0 -0.11447080288E-02 -0.13953183932E-01 -0.26977097968E-02  0.14266760581E-01  0.51100000000E-03 0.  1.
         11    1    4    4    0    0 -0.18276223587E-02 -0.11291401407E+00  0.32658574380E-01  0.11755746840E+00  0.51100000000E-03 0. -1.
</event>
<event>
 8    1  0.1128298E+005  0.1043930E+01  0.7957747E-01            NaN
         13   -1    0    0    0    0  0.00000000000E+00  0.00000000000E+00  0.74505805969E-08  0.10566000000E+00  0.10566000000E+00 0.  1.
     999900   -1    0    0    0    0 -0.00000000000E+00 -0.00000000000E+00 -0.74505805969E-08  0.93827000000E+00  0.93827000000E+00 0.  1.
     999902    2    1    2    0    0 -0.38547549169E-02  0.20648438004E-01  0.11628914198E-01  0.10199206524E+01  0.10196380183E+01 0.  0.
     999903    2    3    3    0    0  0.10042004782E+00  0.64122197593E-01 -0.49542696237E-01  0.13059215954E+00  0.20099531223E-01 0.  0.
         14    1    1    2    0    0  0.38547549169E-02 -0.20648438004E-01 -0.11628914198E-01  0.24009347615E-01  0.00000000000E+00 0. -1.
     999901    1    3    3    0    0 -0.10427480274E+00 -0.43473759589E-01  0.61171610435E-01  0.88932849284E+00  0.88000000000E+00 0. -1.
        -11    1    4    4    0    0  0.34312740544E-01  0.27503308626E-01 -0.27505216224E-01  0.51870937813E-01  0.51100000000E-03 0. -1.
         11    1    4    4    0    0  0.66107307275E-01  0.36618888967E-01 -0.22037480013E-01  0.78721221730E-01  0.51100000000E-03 0.  1.
</event>
<event>
 7    1  0.1128298E+005  0.1043930E+01  0.7957747E-01            NaN
         13   -1    0    0    0    0  0.00000000000E+00  0.00000000000E+00  0.74505805969E-08  0.10566000000E+00  0.10566000000E+00 0.  1.
     999900   -1    0    0    0    0 -0.00000000000E+00 -0.00000000000E+00 -0.74505805969E-08  0.93827000000E+00  0.93827000000E+00 0.  1.
     999903    2    1    2    0    0  0.10162504260E+00  0.71387268774E-02  0.30704712557E-01  0.10824701123E+00  0.19900385996E-01 0.  0.
         14    1    1    2    0    0 -0.69182342564E-02 -0.40568754165E-01 -0.28337787693E-01  0.49967149119E-01  0.00000000000E+00 0. -1.
     999901    1    1    2    0    0 -0.94706808343E-01  0.33430027287E-01 -0.23669248643E-02  0.88571583965E+00  0.88000000000E+00 0.  1.
        -11    1    3    3    0    0  0.46606801946E-01 -0.57742395831E-02  0.97194326569E-02  0.47961070907E-01  0.51100000000E-03 0. -1.
         11    1    3    3    0    0  0.55018240654E-01  0.12912966460E-01  0.20985279900E-01  0.60285940326E-01  0.51100000000E-03 0.  1.
</event>
<event>
 8    1  0.1128298E+005  0.1043930E+01  0.7957747E-01            NaN
         13   -1    0    0    0    0  0.00000000000E+00  0.00000000000E+00  0.74505805969E-08  0.10566000000E+00  0.10566000000E+00 0.  1.
     999900   -1    0    0    0    0 -0.00000000000E+00 -0.00000000000E+00 -0.74505805969E-08  0.93827000000E+00  0.93827000000E+00 0.  1.
     999902    2    1    2    0    0  0.68964132899E-02 -0.88512822200E-02  0.20020254773E-01  0.10209796990E+01  0.10207217199E+01 0.  0.
     999903    2    3    3    0    0 -0.10133845832E+00  0.52446392947E-01  0.61564048955E-01  0.13126172167E+00  0.20479262283E-01 0.  0.
         14    1    1    2    0    0 -0.68964132899E-02  0.88512822200E-02 -0.20020254773E-01  0.22950300965E-01  0.00000000000E+00 0. -1.
     999901    1    3    3    0    0  0.10823487161E+00 -0.61297675167E-01 -0.41543794182E-01  0.88971797737E+00  0.88000000000E+00 0.  1.
        -11    1    4    4    0    0 -0.38502848064E-01  0.30388382382E-01  0.30635010764E-01  0.57833278468E-01  0.51100000000E-03 0.  1.
         11    1    4    4    0    0 -0.62835610258E-01  0.22058010565E-01  0.30929038191E-01  0.73428443201E-01  0.51100000000E-03 0. -1.
</event>
<event>
 8    1  0.1128298E+005  0.1043930E+01  0.7957747E-01            NaN
         13   -1    0    0    0    0  0.00000000000E+00  0.00000000000E+00  0.74505805969E-08  0.10566000000E+00  0.10566000000E+00 0.  1.
     999900   -1    0    0    0    0 -0.00000000000E+00 -0.00000000000E+00 -0.74505805969E-08  0.93827000000E+00  0.93827000000E+00 0. -1.
     999902    2    1    2    0    0 -0.40469796244E-02  0.19199678806E-02  0.21844811580E-01  0.10216306701E+01  0.10213872752E+01 0.  0.
     999903    2    3    3    0    0 -0.31596589832E-01 -0.29871905488E-01 -0.11952151830E+00  0.12935596831E+00  0.23598685881E-01 0.  0.
         14    1    1    2    0    0  0.40469796244E-02 -0.19199678806E-02 -0.21844811580E-01  0.22299329894E-01  0.00000000000E+00 0. -1.
     999901    1    3    3    0    0  0.27549610207E-01  0.31791873368E-01  0.14136632988E+00  0.89227470179E+00  0.88000000000E+00 0.  1.
        -11    1    4    4    0    0 -0.12217863706E-01 -0.25530389000E-01 -0.55180763528E-01  0.62018180726E-01  0.51100000000E-03 0.  1.
         11    1    4    4    0    0 -0.19378726126E-01 -0.43415164880E-02 -0.64340754771E-01  0.67337787588E-01  0.51100000000E-03 0. -1.
</event>
<event>
 8    1  0.1128298E+005  0.1043930E+01  0.7957747E-01            NaN
         13   -1    0    0    0    0  0.00000000000E+00  0.00000000000E+00  0.74505805969E-08  0.10566000000E+00  0.10566000000E+00 0. -1.
     999900   -1    0    0    0    0 -0.00000000000E+00 -0.00000000000E+00 -0.74505805969E-08  0.93827000000E+00  0.93827000000E+00 0. -1.
     999902    2    1    2    0    0  0.16313700846E-01  0.16754457648E-01 -0.69461170877E-03  0.10205348900E+01  0.10202666958E+01 0.  0.
     999903    2    3    3    0    0 -0.64810988928E-01  0.19998022589E-01 -0.10933385415E+00  0.13014496362E+00  0.19581488676E-01 0.  0.
         14    1    1    2    0    0 -0.16313700846E-01 -0.16754457648E-01  0.69461170877E-03  0.23395109998E-01  0.00000000000E+00 0. -1.
     999901    1    3    3    0    0  0.81124689774E-01 -0.32435649411E-02  0.10863924244E+00  0.89038992638E+00  0.88000000000E+00 0.  1.
        -11    1    4    4    0    0 -0.27610674520E-01  0.11570541214E-01 -0.65614531754E-01  0.72123190929E-01  0.51100000000E-03 0. -1.
         11    1    4    4    0    0 -0.37200314407E-01  0.84274813756E-02 -0.43719322397E-01  0.58021772691E-01  0.51100000000E-03 0.  1.
</event>
<event>
 8    1  0.1128298E+005  0.1043930E+01  0.7957747E-01            NaN
         13   -1    0    0    0    0  0.00000000000E+00  0.00000000000E+00  0.74505805969E-08  0.10566000000E+00  0.10566000000E+00 0.  1.
     999900   -1    0    0    0    0 -0.00000000000E+00 -0.00000000000E+00 -0.74505805969E-08  0.93827000000E+00  0.93827000000E+00 0. -1.
     999902    2    1    2    0    0 -0.11888345656E-02 -0.23594582549E-01 -0.95934840930E-03  0.10202860155E+01  0.10200120173E+01 0.  0.
     999903    2    3    3    0    0  0.11269262729E+00  0.50347399334E-01 -0.33592251082E-01  0.12927461806E+00  0.18681506276E-01 0.  0.
         14    1    1    2    0    0  0.11888345656E-02  0.23594582549E-01  0.95934840930E-03  0.23643984492E-01  0.00000000000E+00 0. -1.
     999901    1    3    3    0    0 -0.11388146186E+00 -0.73941981883E-01  0.32632902673E-01  0.89101139744E+00  0.88000000000E+00 0. -1.
        -11    1    4    4    0    0  0.59091834722E-01  0.17699029394E-01 -0.21711070774E-01  0.65396729945E-01  0.51100000000E-03 0. -1.
         11    1    4    4    0    0  0.53600792571E-01  0.32648369939E-01 -0.11881180308E-01  0.63877888118E-01  0.51100000000E-03 0.  1.
</event>
<event>
 8    1  0.1128298E+005  0.1043930E+01  0.7957747E-01            NaN
         13   -1    0    0    0    0  0.00000000000E+00  0.00000000000E+00  0.74505805969E-08  0.10566000000E+00  0.10566000000E+00 0.  1.
     999900   -1    0    0    0    0 -0.00000000000E+00 -0.00000000000E+00 -0.74505805969E-08  0.93827000000E+00  0.93827000000E+00 0. -1.
     999902    2    1    2    0    0  0.22908226131E-01 -0.52847848994E-02 -0.45167717708E-02  0.10199901378E+01  0.10197091567E+01 0.  0.
     999903    2    3    3    0    0 -0.10169942539E+00 -0.17856128707E-01  0.72505119911E-01  0.12779202228E+00  0.20302563605E-01 0.  0.
         14    1    1    2    0    0 -0.22908226131E-01  0.52847848994E-02  0.45167717708E-02  0.23939862221E-01  0.00000000000E+00 0.  1.
     999901    1    3    3    0    0  0.12460765152E+00  0.12571343808E-01 -0.77021891682E-01  0.89219811550E+00  0.88000000000E+00 0. -1.
        -11    1    4    4    0    0 -0.66924435353E-01 -0.20124276432E-01  0.42439878641E-01  0.81763506342E-01  0.51100000000E-03 0.  1.
         11    1    4    4    0    0 -0.34774990033E-01  0.22681477248E-02  0.30065241270E-01  0.46028515939E-01  0.51100000000E-03 0. -1.
</event>
<event>
 8    1  0.1128298E+005  0.1043930E+01  0.7957747E-01            NaN
         13   -1    0    0    0    0  0.00000000000E+00  0.00000000000E+00  0.74505805969E-08  0.10566000000E+00  0.10566000000E+00 0.  1.
     999900   -1    0    0    0    0 -0.00000000000E+00 -0.00000000000E+00 -0.74505805969E-08  0.93827000000E+00  0.93827000000E+00 0.  1.
     999902    2    1    2    0    0 -0.30810080009E-02 -0.23831433286E-01 -0.55338026209E-02  0.10192712735E+01  0.10189729516E+01 0.  0.
     999903    2    3    3    0    0  0.12078675058E+00 -0.18816677931E-01  0.37716779958E-01  0.12953030988E+00  0.20298748839E-01 0.  0.
         14    1    1    2    0    0  0.30810080009E-02  0.23831433286E-01  0.55338026209E-02  0.24658726532E-01  0.00000000000E+00 0.  1.
     999901    1    3    3    0    0 -0.12386775858E+00 -0.50147553542E-02 -0.43250582579E-01  0.88974096358E+00  0.88000000000E+00 0. -1.
        -11    1    4    4    0    0  0.49294983928E-01 -0.11757806033E-02  0.72631385207E-02  0.49843677660E-01  0.51100000000E-03 0.  1.
         11    1    4    4    0    0  0.71491766650E-01 -0.17640897328E-01  0.30453641438E-01  0.79686632223E-01  0.51100000000E-03 0. -1.
</event>
<event>
 8    1  0.1128298E+005  0.1043930E+01  0.7957747E-01            NaN
         13   -1    0    0    0    0  0.00000000000E+00  0.00000000000E+00  0.74505805969E-08  0.10566000000E+00  0.10566000000E+00 0.  1.
     999900   -1    0    0    0    0 -0.00000000000E+00 -0.00000000000E+00 -0.74505805969E-08  0.93827000000E+00  0.93827000000E+00 0. -1.
     999902    2    1    2    0    0  0.32146605595E-02  0.32516370578E-02  0.22343291692E-01  0.10211236441E+01  0.10208689273E+01 0.  0.
     999903    2    3    3    0    0 -0.12875576698E+00 -0.11156764991E-01  0.82155605290E-02  0.13105432737E+00  0.20130085738E-01 0.  0.
         14    1    1    2    0    0 -0.32146605595E-02 -0.32516370578E-02 -0.22343291692E-01  0.22806355906E-01  0.00000000000E+00 0. -1.
     999901    1    3    3    0    0  0.13197042754E+00  0.14408402048E-01  0.14127731163E-01  0.89006931673E+00  0.88000000000E+00 0. -1.
        -11    1    4    4    0    0 -0.75672413974E-01 -0.85486940754E-02  0.14534950703E-01  0.77530125242E-01  0.51100000000E-03 0. -1.
         11    1    4    4    0    0 -0.53083353002E-01 -0.26080709152E-02 -0.63193901743E-02  0.53524202124E-01  0.51100000000E-03 0.  1.
</event>
<event>
 7    1  0.1128298E+005  0.1043930E+01  0.7957747E-01            NaN
         13   -1    0    0    0    0  0.00000000000E+00  0.00000000000E+00  0.74505805969E-08  0.10566000000E+00  0.10566000000E+00 0. -1.
     999900   -1    0    0    0    0 -0.00000000000E+00 -0.00000000000E+00 -0.74505805969E-08  0.93827000000E+00  0.93827000000E+00 0.  1.
     999902    2    1    2    0    0  0.83692567644E-03  0.24573812555E-01  0.24350289612E-02  0.10192216598E+01  0.10189221216E+01 0.  0.
         14    1    1    2    0    0 -0.83692567644E-03 -0.24573812555E-01 -0.24350289612E-02  0.24708340173E-01  0.00000000000E+00 0.  1.
     999901    1    3    3    0    0  0.38170757952E-01 -0.71956262832E-01  0.71104256279E-01  0.88661746305E+00  0.88000000000E+00 0. -1.
        -11    1    3    3    0    0 -0.26816206063E-01  0.26221992284E-01 -0.63072279887E-02  0.38036088558E-01  0.51100000000E-03 0.  1.
         11    1    3    3    0    0 -0.10517626213E-01  0.70308083103E-01 -0.62361999329E-01  0.94568108219E-01  0.51100000000E-03 0. -1.
</event>
<event>
 8    1  0.1128298E+005  0.1043930E+01  0.7957747E-01            NaN
         13   -1    0    0    0    0  0.00000000000E+00  0.00000000000E+00  0.74505805969E-08  0.10566000000E+00  0.10566000000E+00 0. -1.
     999900   -1    0    0    0    0 -0.00000000000E+00 -0.00000000000E+00 -0.74505805969E-08  0.93827000000E+00  0.93827000000E+00 0.  1.
     999902    2    1    2    0    0 -0.93241446745E-02 -0.14740739899E-01  0.19014163278E-01  0.10181275293E+01  0.10178005200E+01 0.  0.
     999903    2    3    3    0    0  0.77479439842E-01  0.98033304619E-01  0.62922300038E-02  0.12660372429E+00  0.19373136863E-01 0.  0.
         14    1    1    2    0    0  0.93241446745E-02  0.14740739899E-01 -0.19014163278E-01  0.25802470654E-01  0.00000000000E+00 0.  1.
     999901    1    3    3    0    0 -0.86803584517E-01 -0.11277404452E+00  0.12721933275E-01  0.89152380506E+00  0.88000000000E+00 0.  1.
        -11    1    4    4    0    0  0.60174208658E-02  0.17348866475E-02 -0.14045028250E-02  0.64383953546E-02  0.51100000000E-03 0. -1.
         11    1    4    4    0    0  0.71462018977E-01  0.96298417972E-01  0.76967328287E-02  0.12016532893E+00  0.51100000000E-03 0.  1.
</event>
<event>
 8    1  0.1128298E+005  0.1043930E+01  0.7957747E-01            NaN
         13   -1    0    0    0    0  0.00000000000E+00  0.00000000000E+00  0.74505805969E-08  0.10566000000E+00  0.10566000000E+00 0.  1.
     999900   -1    0    0    0    0 -0.00000000000E+00 -0.00000000000E+00 -0.74505805969E-08  0.93827000000E+00  0.93827000000E+00 0. -1.
     999902    2    1    2    0    0 -0.90146467680E-02 -0.30184872244E-02  0.24194134163E-01  0.10179351688E+01  0.10176032020E+01 0.  0.
     999903    2    3    3    0    0  0.77038287704E-01 -0.12186589810E-01  0.10239658578E+00  0.13023883272E+00  0.19841421978E-01 0.  0.
         14    1    1    2    0    0  0.90146467680E-02  0.30184872244E-02 -0.24194134163E-01  0.25994831205E-01  0.00000000000E+00 0. -1.
     999901    1    3    3    0    0 -0.86052934472E-01  0.91681025854E-02 -0.78202451616E-01  0.88769633607E+00  0.88000000000E+00 0. -1.
        -11    1    4    4    0    0  0.36428748030E-01 -0.32977562118E-02  0.63623190430E-01  0.73390056278E-01  0.51100000000E-03 0.  1.
         11    1    4    4    0    0  0.40609539674E-01 -0.88888335980E-02  0.38773395350E-01  0.56848776445E-01  0.51100000000E-03 0. -1.
</event>
<event>
 8    1  0.1129379E+005  0.1043930E+01  0.7957747E-01            NaN
         13   -1    0    0    0    0  0.00000000000E+00  0.00000000000E+00  0.74505805969E-08  0.10566000000E+00  0.10566000000E+00 0. -1.
     999900   -1    0    0    0    0 -0.00000000000E+00 -0.00000000000E+00 -0.74505805969E-08  0.93827000000E+00  0.93827000000E+00 0. -1.
     999902    2    1    2    0    0 -0.16165597891E-01  0.10126653527E-01  0.11769759996E-01  0.10215156538E+01  0.10212697136E+01 0.  0.
     999903    2    3    3    0    0 -0.81189539743E-01 -0.10223636710E+00  0.23362773898E-02  0.13194128812E+00  0.18948065790E-01 0.  0.
         14    1    1    2    0    0  0.16165597891E-01 -0.10126653527E-01 -0.11769759996E-01  0.22414346236E-01  0.00000000000E+00 0. -1.
     999901    1    3    3    0    0  0.65023941853E-01  0.11236302063E+00  0.94334826064E-02  0.88957436564E+00  0.88000000000E+00 0. -1.
        -11    1    4    4    0    0 -0.50339142233E-01 -0.48691394689E-01 -0.11254784538E-02  0.70045763471E-01  0.51100000000E-03 0. -1.
         11    1    4    4    0    0 -0.30850397510E-01 -0.53544972410E-01  0.34617558437E-02  0.61895524648E-01  0.51100000000E-03 0.  1.
</event>
<event>
 8    1  0.1128298E+005  0.1043930E+01  0.7957747E-01            NaN
         13   -1    0    0    0    0  0.00000000000E+00  0.00000000000E+00  0.74505805969E-08  0.10566000000E+00  0.10566000000E+00 0. -1.
     999900   -1    0    0    0    0 -0.00000000000E+00 -0.00000000000E+00 -0.74505805969E-08  0.93827000000E+00  0.93827000000E+00 0. -1.
     999902    2    1    2    0    0  0.10932911053E-01 -0.12918727760E-01  0.18143859763E-01  0.10191182746E+01  0.10188161934E+01 0.  0.
     999903    2    3    3    0    0  0.12650622598E+00  0.19872602998E-03 -0.24517533041E-01  0.13043990017E+00  0.20238414595E-01 0.  0.
         14    1    1    2    0    0 -0.10932911053E-01  0.12918727760E-01 -0.18143859763E-01  0.24811725416E-01  0.00000000000E+00 0. -1.
     999901    1    3    3    0    0 -0.11557331493E+00 -0.13117453790E-01  0.42661392804E-01  0.88867837442E+00  0.88000000000E+00 0.  1.
        -11    1    4    4    0    0  0.75257234635E-01  0.92852978415E-02 -0.18406547945E-01  0.78031597761E-01  0.51100000000E-03 0.  1.
         11    1    4    4    0    0  0.51248991347E-01 -0.90865718116E-02 -0.61109850959E-02  0.52408302407E-01  0.51100000000E-03 0. -1.
</event>
<event>
 8    1  0.1128298E+005  0.1043930E+01  0.7957747E-01            NaN
         13   -1    0    0    0    0  0.00000000000E+00  0.00000000000E+00  0.74505805969E-08  0.10566000000E+00  0.10566000000E+00 0. -1.
     999900   -1    0    0    0    0 -0.00000000000E+00 -0.00000000000E+00 -0.74505805969E-08  0.93827000000E+00  0.93827000000E+00 0. -1.
     999902    2    1    2    0    0  0.14655413193E-01 -0.18404301378E-01  0.14905496408E-01  0.10160790886E+01  0.10156973176E+01 0.  0.
     999903    2    3    3    0    0 -0.12002562507E-01 -0.72216478137E-01  0.10489568003E+00  0.12945367093E+00  0.19896432009E-01 0.  0.
         14    1    1    2    0    0 -0.14655413193E-01  0.18404301378E-01 -0.14905496408E-01  0.27850911444E-01  0.00000000000E+00 0.  1.
     999901    1    3    3    0    0  0.26657975701E-01  0.53812176759E-01 -0.89990183620E-01  0.88662541763E+00  0.88000000000E+00 0. -1.
        -11    1    4    4    0    0 -0.11236851297E-01 -0.59314558086E-01  0.71136551267E-01  0.93301413040E-01  0.51100000000E-03 0.  1.
         11    1    4    4    0    0 -0.76571120964E-03 -0.12901920051E-01  0.33759128761E-01  0.36152257888E-01  0.51100000000E-03 0. -1.
</event>
<event>
 8    1  0.1128298E+005  0.1043930E+01  0.7957747E-01            NaN
         13   -1    0    0    0    0  0.00000000000E+00  0.00000000000E+00  0.74505805969E-08  0.10566000000E+00  0.10566000000E+00 0.  1.
     999900   -1    0    0    0    0 -0.00000000000E+00 -0.00000000000E+00 -0.74505805969E-08  0.93827000000E+00  0.93827000000E+00 0.  1.
     999902    2    1    2    0    0 -0.98798337855E-02 -0.19402483935E-01 -0.95866796778E-02  0.10201398355E+01  0.10198623986E+01 0.  0.
     999903    2    3    3    0    0 -0.10352335846E+00 -0.80723039397E-01  0.50404530434E-02  0.13292888358E+00  0.20282679477E-01 0.  0.
         14    1    1    2    0    0  0.98798337855E-02  0.19402483935E-01  0.95866796778E-02  0.23790164475E-01  0.00000000000E+00 0.  1.
     999901    1    3    3    0    0  0.93643524676E-01  0.61320555462E-01 -0.14627132721E-01  0.88721095194E+00  0.88000000000E+00 0.  1.
        -11    1    4    4    0    0 -0.69275568121E-01 -0.48173871084E-01 -0.53473997330E-02  0.84549878762E-01  0.51100000000E-03 0. -1.
         11    1    4    4    0    0 -0.34247790340E-01 -0.32549168314E-01  0.10387852776E-01  0.48379004820E-01  0.51100000000E-03 0.  1.
</event>
<event>
 8    1  0.1128298E+005  0.1043930E+01  0.7957747E-01            NaN
         13   -1    0    0    0    0  0.00000000000E+00  0.00000000000E+00  0.74505805969E-08  0.10566000000E+00  0.10566000000E+00 0. -1.
     999900   -1    0    0    0    0 -0.00000000000E+00 -0.00000000000E+00 -0.74505805969E-08  0.93827000000E+00  0.93827000000E+00 0. -1.
     999902    2    1    2    0    0  0.16868337111E-01 -0.52639552823E-03 -0.16189217770E-01  0.10205439216E+01  0.10202759369E+01 0.  0.
     999903    2    3    3    0    0  0.86992972018E-01  0.54838464699E-01 -0.82607817379E-01  0.13352973768E+00  0.20763067251E-01 0.  0.
         14    1    1    2    0    0 -0.16868337111E-01  0.52639552823E-03  0.16189217770E-01  0.23386078362E-01  0.00000000000E+00 0. -1.
     999901    1    3    3    0    0 -0.70124634908E-01 -0.55364860227E-01  0.66418599609E-01  0.88701418396E+00  0.88000000000E+00 0.  1.
        -11    1    4    4    0    0  0.72893013080E-01  0.53216970641E-01 -0.66839741668E-01  0.11230872409E+00  0.51100000000E-03 0. -1.
         11    1    4    4    0    0  0.14099958938E-01  0.16214940576E-02 -0.15768075711E-01  0.21221013587E-01  0.51100000000E-03 0.  1.
</event>
<event>
 8    1  0.1128298E+005  0.1043930E+01  0.7957747E-01            NaN
         13   -1    0    0    0    0  0.00000000000E+00  0.00000000000E+00  0.74505805969E-08  0.10566000000E+00  0.10566000000E+00 0. -1.
     999900   -1    0    0    0    0 -0.00000000000E+00 -0.00000000000E+00 -0.74505805969E-08  0.93827000000E+00  0.93827000000E+00 0.  1.
     999902    2    1    2    0    0 -0.89478256794E-02  0.28315058647E-02  0.22549623959E-01  0.10195052881E+01  0.10192126696E+01 0.  0.
     999903    2    3    3    0    0 -0.60098964960E-01  0.56299514481E-01 -0.96343613782E-01  0.12843241289E+00  0.20767085562E-01 0.  0.
         14    1    1    2    0    0  0.89478256794E-02 -0.28315058647E-02 -0.22549623959E-01  0.24424711882E-01  0.00000000000E+00 0.  1.
     999901    1    3    3    0    0  0.51151139281E-01 -0.53468008617E-01  0.11889323774E+00  0.89107287523E+00  0.88000000000E+00 0. -1.
        -11    1    4    4    0    0 -0.50136854644E-01  0.54905588847E-01 -0.88972060421E-01  0.11595092297E+00  0.51100000000E-03 0. -1.
         11    1    4    4    0    0 -0.99621103163E-02  0.13939256339E-02 -0.73715533617E-02  0.12481489919E-01  0.51100000000E-03 0.  1.
</event>
<event>
 8    1  0.1128298E+005  0.1043930E+01  0.7957747E-01            NaN
         13   -1    0    0    0    0  0.00000000000E+00  0.00000000000E+00  0.74505805969E-08  0.10566000000E+00  0.10566000000E+00 0.  1.
     999900   -1    0    0    0    0 -0.00000000000E+00 -0.00000000000E+00 -0.74505805969E-08  0.93827000000E+00  0.93827000000E+00 0.  1.
     999902    2    1    2    0    0  0.15780841895E-01  0.12278969343E-01  0.12739611356E-01  0.10202212304E+01  0.10199457109E+01 0.  0.
     999903    2    3    3    0    0  0.12779609722E+00  0.30418555323E-01  0.81881268870E-02  0.13292354752E+00  0.18560525093E-01 0.  0.
         14    1    1    2    0    0 -0.15780841895E-01 -0.12278969343E-01 -0.12739611356E-01  0.23708769612E-01  0.00000000000E+00 0. -1.
     999901    1    3    3    0    0 -0.11201525533E+00 -0.18139585980E-01  0.45514844685E-02  0.88729768286E+00  0.88000000000E+00 0. -1.
        -11    1    4    4    0    0  0.28146140223E-01  0.11328384405E-02 -0.35525214698E-02  0.28396655827E-01  0.51100000000E-03 0.  1.
         11    1    4    4    0    0  0.99649956998E-01  0.29285716882E-01  0.11740648357E-01  0.10452689170E+00  0.51100000000E-03 0. -1.
</event>
<event>
 8    1  0.1128298E+005  0.1043930E+01  0.7957747E-01            NaN
         13   -1    0    0    0    0  0.00000000000E+00  0.00000000000E+00  0.74505805969E-08  0.10566000000E+00  0.10566000000E+00 0. -1.
     999900   -1    0    0    0    0 -0.00000000000E+00 -0.00000000000E+00 -0.74505805969E-08  0.93827000000E+00  0.93827000000E+00 0.  1.
     999902    2    1    2    0    0 -0.21794160984E-01  0.12374766919E-02  0.74543207973E-02  0.10208630605E+01  0.10206024223E+01 0.  0.
     999903    2    3    3    0    0  0.61357627202E-01 -0.39913625598E-02 -0.11250290018E+00  0.12882533955E+00  0.12584759458E-01 0.  0.
         14    1    1    2    0    0  0.21794160984E-01 -0.12374766919E-02 -0.74543207973E-02  0.23066939548E-01  0.00000000000E+00 0.  1.
     999901    1    3    3    0    0 -0.83151788186E-01  0.52288392517E-02  0.11995722098E+00  0.89203772090E+00  0.88000000000E+00 0. -1.
        -11    1    4    4    0    0  0.41527189273E-01 -0.11745995825E-02 -0.63494902573E-01  0.75879845196E-01  0.51100000000E-03 0.  1.
         11    1    4    4    0    0  0.19830437929E-01 -0.28167629773E-02 -0.49007997610E-01  0.52945494359E-01  0.51100000000E-03 0. -1.
</event>
<event>
 8    1  0.1128298E+005  0.1043930E+01  0.7957747E-01            NaN
         13   -1    0    0    0    0  0.00000000000E+00  0.00000000000E+00  0.74505805969E-08  0.10566000000E+00  0.10566000000E+00 0. -1.
     999900   -1    0    0    0    0 -0.00000000000E+00 -0.00000000000E+00 -0.74505805969E-08  0.93827000000E+00  0.93827000000E+00 0. -1.
     999902    2    1    2    0    0  0.11136246211E-01  0.12139973655E-01  0.17372757814E-01  0.10199882445E+01  0.10197072185E+01 0.  0.
     999903    2    3    3    0    0  0.11114426945E+00  0.65866473081E-01 -0.18359341894E-01  0.13197646287E+00  0.19730190270E-01 0.  0.
         14    1    1    2    0    0 -0.11136246211E-01 -0.12139973655E-01 -0.17372757814E-01  0.23941755451E-01  0.00000000000E+00 0.  1.
     999901    1    3    3    0    0 -0.10000802324E+00 -0.53726499426E-01  0.35732099708E-01  0.88801178168E+00  0.88000000000E+00 0.  1.
        -11    1    4    4    0    0  0.17812813222E-01  0.80668539326E-02 -0.97565473308E-02  0.21859135025E-01  0.51100000000E-03 0. -1.
         11    1    4    4    0    0  0.93331456232E-01  0.57799619148E-01 -0.86027945630E-02  0.11011732784E+00  0.51100000000E-03 0.  1.
</event>
<event>
 8    1  0.1128298E+005  0.1043930E+01  0.7957747E-01            NaN
         13   -1    0    0    0    0  0.00000000000E+00  0.00000000000E+00  0.74505805969E-08  0.10566000000E+00  0.10566000000E+00 0. -1.
     999900   -1    0    0    0    0 -0.00000000000E+00 -0.00000000000E+00 -0.74505805969E-08  0.93827000000E+00  0.93827000000E+00 0.  1.
     999902    2    1    2    0    0 -0.16233062813E-01  0.25445716464E-02 -0.17853790020E-01  0.10196659321E+01  0.10193771962E+01 0.  0.
     999903    2    3    3    0    0 -0.25533785336E-01 -0.22632469198E-01  0.12206352532E+00  0.12820800154E+00  0.19328336430E-01 0.  0.
         14    1    1    2    0    0  0.16233062813E-01 -0.25445716464E-02  0.17853790020E-01  0.24264067904E-01  0.00000000000E+00 0. -1.
     999901    1    3    3    0    0  0.93007225230E-02  0.25177040845E-01 -0.13991731534E+00  0.89145793056E+00  0.88000000000E+00 0.  1.
        -11    1    4    4    0    0 -0.91220471964E-03  0.32879373981E-02  0.99313742540E-02  0.10513608579E-01  0.51100000000E-03 0.  1.
         11    1    4    4    0    0 -0.24621580616E-01 -0.25920406596E-01  0.11213215107E+00  0.11769439296E+00  0.51100000000E-03 0. -1.
</event>
<event>
 8    1  0.1128298E+005  0.1043930E+01  0.7957747E-01            NaN
         13   -1    0    0    0    0  0.00000000000E+00  0.00000000000E+00  0.74505805969E-08  0.10566000000E+00  0.10566000000E+00 0. -1.
     999900   -1    0    0    0    0 -0.00000000000E+00 -0.00000000000E+00 -0.74505805969E-08  0.93827000000E+00  0.93827000000E+00 0.  1.
     999902    2    1    2    0    0 -0.16731629505E-01  0.39182012500E-02 -0.16502071831E-01  0.10201052628E+01  0.10198270094E+01 0.  0.
     999903    2    3    3    0    0 -0.95650104464E-02 -0.22600166546E-01  0.12411829083E+00  0.12851753822E+00  0.22564364823E-01 0.  0.
         14    1    1    2    0    0  0.16731629505E-01 -0.39182012500E-02  0.16502071831E-01  0.23824737179E-01  0.00000000000E+00 0. -1.
     999901    1    3    3    0    0 -0.71666190589E-02  0.26518367796E-01 -0.14062036266E+00  0.89158772460E+00  0.88000000000E+00 0.  1.
        -11    1    4    4    0    0 -0.91685884096E-04  0.31735499761E-03  0.56340936884E-01  0.56344222512E-01  0.51100000000E-03 0.  1.
         11    1    4    4    0    0 -0.94733245623E-02 -0.22917521543E-01  0.67777353945E-01  0.72173315711E-01  0.51100000000E-03 0. -1.
</event>
<event>
 8    1  0.1128298E+005  0.1043930E+01  0.7957747E-01            NaN
         13   -1    0    0    0    0  0.00000000000E+00  0.00000000000E+00  0.74505805969E-08  0.10566000000E+00  0.10566000000E+00 0. -1.
     999900   -1    0    0    0    0 -0.00000000000E+00 -0.00000000000E+00 -0.74505805969E-08  0.93827000000E+00  0.93827000000E+00 0.  1.
     999902    2    1    2    0    0 -0.19107841035E-01  0.13456177557E-01 -0.35536256441E-02  0.10202909104E+01  0.10200170269E+01 0.  0.
     999903    2    3    3    0    0 -0.10974126906E+00  0.71254577475E-01  0.16717448419E-01  0.13351811548E+00  0.20670102397E-01 0.  0.
         14    1    1    2    0    0  0.19107841035E-01 -0.13456177557E-01  0.35536256441E-02  0.23639089633E-01  0.00000000000E+00 0. -1.
     999901    1    3    3    0    0  0.90633428026E-01 -0.57798399918E-01 -0.20271074063E-01  0.88677279489E+00  0.88000000000E+00 0. -1.
        -11    1    4    4    0    0 -0.69508341980E-01  0.53157889585E-01  0.18180449928E-01  0.89375392086E-01  0.51100000000E-03 0. -1.
         11    1    4    4    0    0 -0.40232927082E-01  0.18096687889E-01 -0.14630015098E-02  0.44142723393E-01  0.51100000000E-03 0.  1.
</event>
<event>
 8    1  0.1128298E+005  0.1043930E+01  0.7957747E-01            NaN
         13   -1    0    0    0    0  0.00000000000E+00  0.00000000000E+00  0.74505805969E-08  0.10566000000E+00  0.10566000000E+00 0.  1.
     999900   -1    0    0    0    0 -0.00000000000E+00 -0.00000000000E+00 -0.74505805969E-08  0.93827000000E+00  0.93827000000E+00 0. -1.
     999902    2    1    2    0    0 -0.10046091609E-01  0.20668066177E-01 -0.59861415623E-02  0.10201828569E+01  0.10199064343E+01 0.  0.
     999903    2    3    3    0    0 -0.95202817231E-02  0.65753156573E-01  0.11141848339E+00  0.13124147083E+00  0.19903061576E-01 0.  0.
         14    1    1    2    0    0  0.10046091609E-01 -0.20668066177E-01  0.59861415623E-02  0.23747143132E-01  0.00000000000E+00 0.  1.
     999901    1    3    3    0    0 -0.52580988570E-03 -0.45085090396E-01 -0.11740462496E+00  0.88894138604E+00  0.88000000000E+00 0. -1.
        -11    1    4    4    0    0  0.83140575593E-03  0.21311809740E-01  0.52851472239E-01  0.56994944590E-01  0.51100000000E-03 0.  1.
         11    1    4    4    0    0 -0.10351687479E-01  0.44441346833E-01  0.58567011155E-01  0.74246526239E-01  0.51100000000E-03 0. -1.
</event>
<event>
 8    1  0.1128298E+005  0.1043930E+01  0.7957747E-01            NaN
         13   -1    0    0    0    0  0.00000000000E+00  0.00000000000E+00  0.74505805969E-08  0.10566000000E+00  0.10566000000E+00 0.  1.
     999900   -1    0    0    0    0 -0.00000000000E+00 -0.00000000000E+00 -0.74505805969E-08  0.93827000000E+00  0.93827000000E+00 0. -1.
     999902    2    1    2    0    0  0.55610558978E-02 -0.11158158288E-01  0.23305323967E-01  0.10174995637E+01  0.10171562290E+01 0.  0.
     999903    2    3    3    0    0 -0.57064879396E-01 -0.11304595383E+00 -0.13997628486E-01  0.12862688387E+00  0.17696143965E-01 0.  0.
         14    1    1    2    0    0 -0.55610558978E-02  0.11158158288E-01 -0.23305323967E-01  0.26430436324E-01  0.00000000000E+00 0. -1.
     999901    1    3    3    0    0  0.62625935294E-01  0.10188779554E+00  0.37302952453E-01  0.88887267981E+00  0.88000000000E+00 0.  1.
        -11    1    4    4    0    0 -0.39982105566E-01 -0.60195513973E-01 -0.97363512734E-02  0.72918628107E-01  0.51100000000E-03 0. -1.
         11    1    4    4    0    0 -0.17082773831E-01 -0.52850439860E-01 -0.42612772127E-02  0.55708255758E-01  0.51100000000E-03 0.  1.
</event>
<event>
 8    1  0.1128298E+005  0.1043930E+01  0.7957747E-01            NaN
         13   -1    0    0    0    0  0.00000000000E+00  0.00000000000E+00  0.74505805969E-08  0.10566000000E+00  0.10566000000E+00 0.  1.
     999900   -1    0    0    0    0 -0.00000000000E+00 -0.00000000000E+00 -0.74505805969E-08  0.93827000000E+00  0.93827000000E+00 0.  1.
     999902    2    1    2    0    0 -0.20843128304E-01 -0.11057594974E-01 -0.14421626830E-03  0.10203349327E+01  0.10200620803E+01 0.  0.
     999903    2    3    3    0    0  0.17422835268E-01 -0.68554244615E-01 -0.10832963316E+00  0.13102383237E+00  0.20704965232E-01 0.  0.
         14    1    1    2    0    0  0.20843128304E-01  0.11057594974E-01  0.14421626830E-03  0.23595067333E-01  0.00000000000E+00 0. -1.
     999901    1    3    3    0    0 -0.38265963573E-01  0.57496649641E-01  0.10818541689E+00  0.88931110030E+00  0.88000000000E+00 0. -1.
        -11    1    4    4    0    0  0.19113669467E-01 -0.56367130626E-01 -0.76733152844E-01  0.97112427845E-01  0.51100000000E-03 0.  1.
         11    1    4    4    0    0 -0.16908341989E-02 -0.12187113989E-01 -0.31596480311E-01  0.33911404523E-01  0.51100000000E-03 0. -1.
</event>
<event>
 8    1  0.1128298E+005  0.1043930E+01  0.7957747E-01            NaN
         13   -1    0    0    0    0  0.00000000000E+00  0.00000000000E+00  0.74505805969E-08  0.10566000000E+00  0.10566000000E+00 0. -1.
     999900   -1    0    0    0    0 -0.00000000000E+00 -0.00000000000E+00 -0.74505805969E-08  0.93827000000E+00  0.93827000000E+00 0. -1.
     999902    2    1    2    0    0  0.17559703236E-01 -0.13090622995E-01  0.66539188744E-02  0.10210393420E+01  0.10207827172E+01 0.  0.
     999903    2    3    3    0    0 -0.93729143667E-01  0.50497434269E-02 -0.86222044603E-01  0.12899661603E+00  0.19880485136E-01 0.  0.
         14    1    1    2    0    0 -0.17559703236E-01  0.13090622995E-01 -0.66539188744E-02  0.22890658018E-01  0.00000000000E+00 0.  1.
     999901    1    3    3    0    0  0.11128884690E+00 -0.18140366422E-01  0.92875963477E-01  0.89204272596E+00  0.88000000000E+00 0.  1.
        -11    1    4    4    0    0 -0.41999464861E-01  0.91521019102E-02 -0.29613470270E-01  0.52200907659E-01  0.51100000000E-03 0.  1.
         11    1    4    4    0    0 -0.51729678807E-01 -0.41023584833E-02 -0.56608574333E-01  0.76795708367E-01  0.51100000000E-03 0. -1.
</event>
<event>
 8    1  0.1128298E+005  0.1043930E+01  0.7957747E-01            NaN
         13   -1    0    0    0    0  0.00000000000E+00  0.00000000000E+00  0.74505805969E-08  0.10566000000E+00  0.10566000000E+00 0. -1.
     999900   -1    0    0    0    0 -0.00000000000E+00 -0.00000000000E+00 -0.74505805969E-08  0.93827000000E+00  0.93827000000E+00 0. -1.
     999902    2    1    2    0    0  0.13246578362E-01 -0.10946899856E-01 -0.16365584393E-01  0.10201994541E+01  0.10199234223E+01 0.  0.
     999903    2    3    3    0    0 -0.59791663225E-01  0.78572032144E-01  0.78402019157E-01  0.12760261199E+00  0.19670860468E-01 0.  0.
         14    1    1    2    0    0 -0.13246578362E-01  0.10946899856E-01  0.16365584393E-01  0.23730545870E-01  0.00000000000E+00 0. -1.
     999901    1    3    3    0    0  0.73038241587E-01 -0.89518932000E-01 -0.94767603550E-01  0.89259684214E+00  0.88000000000E+00 0. -1.
        -11    1    4    4    0    0 -0.37236562885E-01  0.47262844518E-01  0.35353168940E-01  0.69788579026E-01  0.51100000000E-03 0.  1.
         11    1    4    4    0    0 -0.22555100340E-01  0.31309187626E-01  0.43048850217E-01  0.57814032961E-01  0.51100000000E-03 0. -1.
</event>
<event>
 8    1  0.1128298E+005  0.1043930E+01  0.7957747E-01            NaN
         13   -1    0    0    0    0  0.00000000000E+00  0.00000000000E+00  0.74505805969E-08  0.10566000000E+00  0.10566000000E+00 0. -1.
     999900   -1    0    0    0    0 -0.00000000000E+00 -0.00000000000E+00 -0.74505805969E-08  0.93827000000E+00  0.93827000000E+00 0.  1.
     999902    2    1    2    0    0 -0.43177320835E-02  0.26328089935E-05  0.22184108775E-01  0.10213296128E+01  0.10210795271E+01 0.  0.
     999903    2    3    3    0    0  0.12505687842E+00  0.32303342508E-01  0.88552603068E-03  0.13102923920E+00  0.22026088906E-01 0.  0.
         14    1    1    2    0    0  0.43177320835E-02 -0.26328089935E-05 -0.22184108775E-01  0.22600387152E-01  0.00000000000E+00 0.  1.
     999901    1    3    3    0    0 -0.12937461050E+00 -0.32300709699E-01  0.21298582745E-01  0.89030037365E+00  0.88000000000E+00 0.  1.
        -11    1    4    4    0    0  0.89816317025E-01  0.30330654385E-01 -0.62851122429E-02  0.95008858304E-01  0.51100000000E-03 0.  1.
         11    1    4    4    0    0  0.35240561392E-01  0.19726881229E-02  0.71706382736E-02  0.36020380896E-01  0.51100000000E-03 0. -1.
</event>
<event>
 8    1  0.1128298E+005  0.1043930E+01  0.7957747E-01            NaN
         13   -1    0    0    0    0  0.00000000000E+00  0.00000000000E+00  0.74505805969E-08  0.10566000000E+00  0.10566000000E+00 0.  1.
     999900   -1    0    0    0    0 -0.00000000000E+00 -0.00000000000E+00 -0.74505805969E-08  0.93827000000E+00  0.93827000000E+00 0. -1.
     999902    2    1    2    0    0 -0.22050657858E-01 -0.10416267816E-01 -0.99039583834E-02  0.10176085536E+01  0.10172680816E+01 0.  0.
     999903    2    3    3    0    0  0.32313348561E-01  0.86619729769E-01  0.82854301827E-01  0.12577026961E+00  0.20154287507E-01 0.  0.
         14    1    1    2    0    0  0.22050657858E-01  0.10416267816E-01  0.99039583834E-02  0.26321446366E-01  0.00000000000E+00 0.  1.
     999901    1    3    3    0    0 -0.54364006418E-01 -0.97035997585E-01 -0.92758260210E-01  0.89183828403E+00  0.88000000000E+00 0. -1.
        -11    1    4    4    0    0  0.16855067004E-01  0.20249900289E-01  0.26016997970E-01  0.37031028203E-01  0.51100000000E-03 0. -1.
         11    1    4    4    0    0  0.15458281557E-01  0.66369829480E-01  0.56837303857E-01  0.88739241402E-01  0.51100000000E-03 0.  1.
</event>
<event>
 7    1  0.1128298E+005  0.1043930E+01  0.7957747E-01            NaN
         13   -1    0    0    0    0  0.00000000000E+00  0.00000000000E+00  0.74505805969E-08  0.10566000000E+00  0.10566000000E+00 0. -1.
     999900   -1    0    0    0    0 -0.00000000000E+00 -0.00000000000E+00 -0.74505805969E-08  0.93827000000E+00  0.93827000000E+00 0. -1.
     999902    2    1    2    0    0 -0.22805047724E-01  0.73546657865E-02 -0.19241502321E-02  0.10198912050E+01  0.10196078689E+01 0.  0.
         14    1    1    2    0    0  0.22805047724E-01 -0.73546657865E-02  0.19241502321E-02  0.24038794991E-01  0.00000000000E+00 0.  1.
     999901    1    3    3    0    0  0.49619933755E-01 -0.54227012938E-01  0.71826937385E-01  0.88598070842E+00  0.88000000000E+00 0.  1.
        -11    1    3    3    0    0 -0.37378725850E-01  0.25945773602E-01 -0.84074708250E-03  0.45511759916E-01  0.51100000000E-03 0.  1.
         11    1    3    3    0    0 -0.35046255629E-01  0.35635905122E-01 -0.72910340535E-01  0.88398736673E-01  0.51100000000E-03 0. -1.
</event>
<event>
 8    1  0.1128298E+005  0.1043930E+01  0.7957747E-01            NaN
         13   -1    0    0    0    0  0.00000000000E+00  0.00000000000E+00  0.74505805969E-08  0.10566000000E+00  0.10566000000E+00 0.  1.
     999900   -1    0    0    0    0 -0.00000000000E+00 -0.00000000000E+00 -0.74505805969E-08  0.93827000000E+00  0.93827000000E+00 0. -1.
     999902    2    1    2    0    0 -0.23171705717E-01  0.74343645971E-03 -0.93911991707E-02  0.10189164983E+01  0.10186094224E+01 0.  0.
     999903    2    3    3    0    0 -0.21268162073E-01  0.10140650357E+00  0.74846534949E-01  0.12917908066E+00  0.18698058772E-01 0.  0.
         14    1    1    2    0    0  0.23171705717E-01 -0.74343645971E-03  0.93911991707E-02  0.25013501664E-01  0.00000000000E+00 0. -1.
     999901    1    3    3    0    0 -0.19035436441E-02 -0.10066306711E+00 -0.84237734120E-01  0.88973741767E+00  0.88000000000E+00 0. -1.
        -11    1    4    4    0    0 -0.24689582593E-01  0.92006311445E-01  0.67280780119E-01  0.11662633206E+00  0.51100000000E-03 0. -1.
         11    1    4    4    0    0  0.34214205198E-02  0.94001921291E-02  0.75657548306E-02  0.12552748607E-01  0.51100000000E-03 0.  1.
</event>
<event>
 8    1  0.1128298E+005  0.1043930E+01  0.7957747E-01            NaN
         13   -1    0    0    0    0  0.00000000000E+00  0.00000000000E+00  0.74505805969E-08  0.10566000000E+00  0.10566000000E+00 0. -1.
     999900   -1    0    0    0    0 -0.00000000000E+00 -0.00000000000E+00 -0.74505805969E-08  0.93827000000E+00  0.93827000000E+00 0. -1.
     999902    2    1    2    0    0 -0.17873517032E-01 -0.90255854481E-02  0.11533156366E-01  0.10208229124E+01  0.10205613558E+01 0.  0.
     999903    2    3    3    0    0 -0.92262494513E-01 -0.51382885431E-01 -0.77051915887E-01  0.13224248501E+00  0.19962672430E-01 0.  0.
         14    1    1    2    0    0  0.17873517032E-01  0.90255854481E-02 -0.11533156366E-01  0.23107087647E-01  0.00000000000E+00 0.  1.
     999901    1    3    3    0    0  0.74388977481E-01  0.42357299983E-01  0.88585072252E-01  0.88858042734E+00  0.88000000000E+00 0.  1.
        -11    1    4    4    0    0 -0.68977029125E-01 -0.45983968367E-01 -0.65685253384E-01  0.10576941678E+00  0.51100000000E-03 0. -1.
         11    1    4    4    0    0 -0.23285465388E-01 -0.53989170636E-02 -0.11366662503E-01  0.26473068225E-01  0.51100000000E-03 0.  1.
</event>
<event>
 8    1  0.1128298E+005  0.1043930E+01  0.7957747E-01            NaN
         13   -1    0    0    0    0  0.00000000000E+00  0.00000000000E+00  0.74505805969E-08  0.10566000000E+00  0.10566000000E+00 0.  1.
     999900   -1    0    0    0    0 -0.00000000000E+00 -0.00000000000E+00 -0.74505805969E-08  0.93827000000E+00  0.93827000000E+00 0.  1.
     999902    2    1    2    0    0  0.13170655508E-01 -0.20419689704E-01  0.16531253765E-01  0.10145410183E+01  0.10141152625E+01 0.  0.
     999903    2    3    3    0    0  0.34826594746E-01  0.43543588445E-01 -0.10797798776E+00  0.12321457312E+00  0.20338372435E-01 0.  0.
         14    1    1    2    0    0 -0.13170655508E-01  0.20419689704E-01 -0.16531253765E-01  0.29388981697E-01  0.00000000000E+00 0. -1.
     999901    1    3    3    0    0 -0.21655939238E-01 -0.63963278149E-01  0.12450924152E+00  0.89132644518E+00  0.88000000000E+00 0. -1.
        -11    1    4    4    0    0  0.13001063560E-02  0.15670752040E-01 -0.27383682177E-01  0.31581480596E-01  0.51100000000E-03 0.  1.
         11    1    4    4    0    0  0.33526488390E-01  0.27872836405E-01 -0.80594305579E-01  0.91633092526E-01  0.51100000000E-03 0. -1.
</event>
<event>
 8    1  0.1128298E+005  0.1043930E+01  0.7957747E-01            NaN
         13   -1    0    0    0    0  0.00000000000E+00  0.00000000000E+00  0.74505805969E-08  0.10566000000E+00  0.10566000000E+00 0.  1.
     999900   -1    0    0    0    0 -0.00000000000E+00 -0.00000000000E+00 -0.74505805969E-08  0.93827000000E+00  0.93827000000E+00 0.  1.
     999902    2    1    2    0    0  0.16824982434E-01  0.16505609214E-01 -0.23780097050E-02  0.10202409709E+01  0.10199659154E+01 0.  0.
     999903    2    3    3    0    0 -0.32296327635E-01  0.10595398180E+00  0.67626562507E-01  0.13158211927E+00  0.21707213478E-01 0.  0.
         14    1    1    2    0    0 -0.16824982434E-01 -0.16505609214E-01  0.23780097050E-02  0.23689029098E-01  0.00000000000E+00 0. -1.
     999901    1    3    3    0    0  0.49121310069E-01 -0.89448372582E-01 -0.70004572212E-01  0.88865885164E+00  0.88000000000E+00 0.  1.
        -11    1    4    4    0    0 -0.30099174456E-01  0.76041520122E-01  0.57291938278E-01  0.99854395987E-01  0.51100000000E-03 0. -1.
         11    1    4    4    0    0 -0.21971531789E-02  0.29912461674E-01  0.10334624228E-01  0.31727723279E-01  0.51100000000E-03 0.  1.
</event>
<event>
 8    1  0.1128298E+005  0.1043930E+01  0.7957747E-01            NaN
         13   -1    0    0    0    0  0.00000000000E+00  0.00000000000E+00  0.74505805969E-08  0.10566000000E+00  0.10566000000E+00 0. -1.
     999900   -1    0    0    0    0 -0.00000000000E+00 -0.00000000000E+00 -0.74505805969E-08  0.93827000000E+00  0.93827000000E+00 0.  1.
     999902    2    1    2    0    0  0.10537917341E-01  0.13062253844E-01  0.16517235319E-01  0.10203824048E+01  0.10201106620E+01 0.  0.
     999903    2    3    3    0    0 -0.28707143023E-01  0.12233712896E+00 -0.32627375322E-01  0.13139625988E+00  0.20247427180E-01 0.  0.
         14    1    1    2    0    0 -0.10537917341E-01 -0.13062253844E-01 -0.16517235319E-01  0.23547595205E-01  0.00000000000E+00 0.  1.
     999901    1    3    3    0    0  0.39245060364E-01 -0.10927487512E+00  0.49144610641E-01  0.88898614491E+00  0.88000000000E+00 0.  1.
        -11    1    4    4    0    0 -0.78715348891E-02  0.97930002935E-02 -0.57399725923E-02  0.13822891254E-01  0.51100000000E-03 0. -1.
         11    1    4    4    0    0 -0.20835608134E-01  0.11254412867E+00 -0.26887402730E-01  0.11757336863E+00  0.51100000000E-03 0.  1.
</event>
<event>
 8    1  0.1128298E+005  0.1043930E+01  0.7957747E-01            NaN
         13   -1    0    0    0    0  0.00000000000E+00  0.00000000000E+00  0.74505805969E-08  0.10566000000E+00  0.10566000000E+00 0. -1.
     999900   -1    0    0    0    0 -0.00000000000E+00 -0.00000000000E+00 -0.74505805969E-08  0.93827000000E+00  0.93827000000E+00 0. -1.
     999902    2    1    2    0    0  0.87148457841E-03 -0.11621127391E-01 -0.20912759757E-01  0.10199893733E+01  0.10197083740E+01 0.  0.
     999903    2    3    3    0    0 -0.81304179817E-01  0.98214877472E-01  0.19374691669E-02  0.12906910707E+00  0.19963687034E-01 0.  0.
         14    1    1    2    0    0 -0.87148457841E-03  0.11621127391E-01  0.20912759757E-01  0.23940626722E-01  0.00000000000E+00 0. -1.
     999901    1    3    3    0    0  0.82175664395E-01 -0.10983600486E+00 -0.22850228923E-01  0.89092026621E+00  0.88000000000E+00 0. -1.
        -11    1    4    4    0    0 -0.23707222825E-01  0.16010530302E-01  0.21638659438E-02  0.28693430109E-01  0.51100000000E-03 0.  1.
         11    1    4    4    0    0 -0.57596956992E-01  0.82204347170E-01 -0.22639677689E-03  0.10037567696E+00  0.51100000000E-03 0. -1.
</event>
<event>
 7    1  0.1128298E+005  0.1043930E+01  0.7957747E-01            NaN
         13   -1    0    0    0    0  0.00000000000E+00  0.00000000000E+00  0.74505805969E-08  0.10566000000E+00  0.10566000000E+00 0. -1.
     999900   -1    0    0    0    0 -0.00000000000E+00 -0.00000000000E+00 -0.74505805969E-08  0.93827000000E+00  0.93827000000E+00 0. -1.
     999903    2    1    2    0    0  0.80499864076E-01  0.28201540499E-01 -0.73488697311E-01  0.11325492778E+00  0.12269271848E-01 0.  0.
         14    1    1    2    0    0  0.12354916321E-01  0.93462912897E-02 -0.35095024287E-01  0.38362192949E-01  0.00000000000E+00 0.  1.
     999901    1    1    2    0    0 -0.92854780397E-01 -0.37547831788E-01  0.10858372160E+00  0.89231287927E+00  0.88000000000E+00 0.  1.
        -11    1    3    3    0    0  0.47964334670E-01  0.19057717662E-01 -0.36928348456E-01  0.63464462840E-01  0.51100000000E-03 0. -1.
         11    1    3    3    0    0  0.32535529406E-01  0.91438228368E-02 -0.36560348854E-01  0.49790464942E-01  0.51100000000E-03 0.  1.
</event>
<event>
 8    1  0.1128298E+005  0.1043930E+01  0.7957747E-01            NaN
         13   -1    0    0    0    0  0.00000000000E+00  0.00000000000E+00  0.74505805969E-08  0.10566000000E+00  0.10566000000E+00 0. -1.
     999900   -1    0    0    0    0 -0.00000000000E+00 -0.00000000000E+00 -0.74505805969E-08  0.93827000000E+00  0.93827000000E+00 0.  1.
     999902    2    1    2    0    0  0.11961697615E-01 -0.17144118111E-01  0.10618542317E-01  0.10204831146E+01  0.10202137181E+01 0.  0.
     999903    2    3    3    0    0 -0.14546734694E-01 -0.65058804670E-01 -0.11052201316E+00  0.13049797517E+00  0.19244494666E-01 0.  0.
         14    1    1    2    0    0 -0.11961697615E-01  0.17144118111E-01 -0.10618542317E-01  0.23446885435E-01  0.00000000000E+00 0. -1.
     999901    1    3    3    0    0  0.26508432309E-01  0.47914686559E-01  0.12114055547E+00  0.88998513940E+00  0.88000000000E+00 0. -1.
        -11    1    4    4    0    0 -0.10284892725E-01 -0.15427381489E-01 -0.20763800163E-01  0.27842047989E-01  0.51100000000E-03 0.  1.
         11    1    4    4    0    0 -0.42618419687E-02 -0.49631423181E-01 -0.89758212993E-01  0.10265592718E+00  0.51100000000E-03 0. -1.
</event>
<event>
 8    1  0.1128298E+005  0.1043930E+01  0.7957747E-01            NaN
         13   -1    0    0    0    0  0.00000000000E+00  0.00000000000E+00  0.74505805969E-08  0.10566000000E+00  0.10566000000E+00 0.  1.
     999900   -1    0    0    0    0 -0.00000000000E+00 -0.00000000000E+00 -0.74505805969E-08  0.93827000000E+00  0.93827000000E+00 0.  1.
     999902    2    1    2    0    0  0.17075856939E-01 -0.39567301529E-02  0.17428061389E-01  0.10192120323E+01  0.10189122577E+01 0.  0.
     999903    2    3    3    0    0  0.48754544333E-01  0.60539099107E-01 -0.10029081051E+00  0.12847021559E+00  0.20108742061E-01 0.  0.
         14    1    1    2    0    0 -0.17075856939E-01  0.39567301529E-02 -0.17428061389E-01  0.24717967705E-01  0.00000000000E+00 0. -1.
     999901    1    3    3    0    0 -0.31678687394E-01 -0.64495829260E-01  0.11771887190E+00  0.89074181671E+00  0.88000000000E+00 0. -1.
        -11    1    4    4    0    0  0.22090008283E-01  0.27794770940E-01 -0.62085966710E-01  0.71522347144E-01  0.51100000000E-03 0.  1.
         11    1    4    4    0    0  0.26664536050E-01  0.32744328167E-01 -0.38204843798E-01  0.56947868446E-01  0.51100000000E-03 0. -1.
</event>
<event>
 7    1  0.1128298E+005  0.1043930E+01  0.7957747E-01            NaN
         13   -1    0    0    0    0  0.00000000000E+00  0.00000000000E+00  0.74505805969E-08  0.10566000000E+00  0.10566000000E+00 0. -1.
     999900   -1    0    0    0    0 -0.00000000000E+00 -0.00000000000E+00 -0.74505805969E-08  0.93827000000E+00  0.93827000000E+00 0. -1.
     999902    2    1    2    0    0 -0.69375328901E-03  0.12283695954E-01  0.20565130393E-01  0.10199655457E+01  0.10196839802E+01 0.  0.
         14    1    1    2    0    0  0.69375328901E-03 -0.12283695954E-01 -0.20565130393E-01  0.23964454260E-01  0.00000000000E+00 0.  1.
     999901    1    3    3    0    0  0.48158838531E-01  0.12565933990E+00  0.32348797913E-01  0.89081759533E+00  0.88000000000E+00 0. -1.
        -11    1    3    3    0    0 -0.43140418223E-01 -0.61191853347E-01  0.18998044360E-02  0.74895987732E-01  0.51100000000E-03 0. -1.
         11    1    3    3    0    0 -0.57121735976E-02 -0.52183790595E-01 -0.13683471956E-01  0.54251962673E-01  0.51100000000E-03 0.  1.
</event>
<event>
 8    1  0.1128298E+005  0.1043930E+01  0.7957747E-01            NaN
         13   -1    0    0    0    0  0.00000000000E+00  0.00000000000E+00  0.74505805969E-08  0.10566000000E+00  0.10566000000E+00 0.  1.
     999900   -1    0    0    0    0 -0.00000000000E+00 -0.00000000000E+00 -0.74505805969E-08  0.93827000000E+00  0.93827000000E+00 0.  1.
     999902    2    1    2    0    0 -0.18292873972E-01 -0.29486568237E-01  0.11224339046E-01  0.10074598378E+01  0.10067995094E+01 0.  0.
     999903    2    3    3    0    0  0.18171493344E-02 -0.83084010388E-01 -0.85329086131E-01  0.12032982322E+00  0.17086796122E-01 0.  0.
         14    1    1    2    0    0  0.18292873972E-01  0.29486568237E-01 -0.11224339046E-01  0.36470162210E-01  0.00000000000E+00 0.  1.
     999901    1    3    3    0    0 -0.20110023306E-01  0.53597442151E-01  0.96553425177E-01  0.88713001457E+00  0.88000000000E+00 0. -1.
        -11    1    4    4    0    0 -0.14984813285E-02 -0.13832796400E-01 -0.24092565027E-01  0.27826327697E-01  0.51100000000E-03 0.  1.
         11    1    4    4    0    0  0.33156306629E-02 -0.69251213988E-01 -0.61236521104E-01  0.92503495520E-01  0.51100000000E-03 0. -1.
</event>
<event>
 8    1  0.1128298E+005  0.1043930E+01  0.7957747E-01            NaN
         13   -1    0    0    0    0  0.00000000000E+00  0.00000000000E+00  0.74505805969E-08  0.10566000000E+00  0.10566000000E+00 0.  1.
     999900   -1    0    0    0    0 -0.00000000000E+00 -0.00000000000E+00 -0.74505805969E-08  0.93827000000E+00  0.93827000000E+00 0. -1.
     999902    2    1    2    0    0 -0.92081377717E-02  0.21269097337E-01  0.60829617132E-02  0.10199682236E+01  0.10196867218E+01 0.  0.
     999903    2    3    3    0    0  0.12173710929E+00  0.30483425543E-01  0.27578312685E-01  0.12997181260E+00  0.19568999166E-01 0.  0.
         14    1    1    2    0    0  0.92081377717E-02 -0.21269097337E-01 -0.60829617132E-02  0.23961776352E-01  0.00000000000E+00 0. -1.
     999901    1    3    3    0    0 -0.13094524706E+00 -0.92143282059E-02 -0.21495350972E-01  0.88999641105E+00  0.88000000000E+00 0.  1.
        -11    1    4    4    0    0  0.99593554196E-01  0.17109217715E-01  0.23854916026E-01  0.10383120681E+00  0.51100000000E-03 0. -1.
         11    1    4    4    0    0  0.22143555091E-01  0.13374207828E-01  0.37233966597E-02  0.26140605785E-01  0.51100000000E-03 0.  1.
</event>
<event>
 8    1  0.1128298E+005  0.1043930E+01  0.7957747E-01            NaN
         13   -1    0    0    0    0  0.00000000000E+00  0.00000000000E+00  0.74505805969E-08  0.10566000000E+00  0.10566000000E+00 0.  1.
     999900   -1    0    0    0    0 -0.00000000000E+00 -0.00000000000E+00 -0.74505805969E-08  0.93827000000E+00  0.93827000000E+00 0. -1.
     999902    2    1    2    0    0  0.14279656956E-01 -0.14905549120E-01  0.21725357566E-01  0.10139620979E+01  0.10135191467E+01 0.  0.
     999903    2    3    3    0    0 -0.33297841052E-01  0.21988444160E-02  0.12080441215E+00  0.12695993459E+00  0.20286395941E-01 0.  0.
         14    1    1    2    0    0 -0.14279656956E-01  0.14905549120E-01 -0.21725357566E-01  0.29967902140E-01  0.00000000000E+00 0. -1.
     999901    1    3    3    0    0  0.47577498008E-01 -0.17104393536E-01 -0.99079054582E-01  0.88700216327E+00  0.88000000000E+00 0. -1.
        -11    1    4    4    0    0 -0.28715842724E-01 -0.13590088909E-02  0.67911604202E-01  0.73747499177E-01  0.51100000000E-03 0. -1.
         11    1    4    4    0    0 -0.45819983282E-02  0.35578533069E-02  0.52892807946E-01  0.53212435410E-01  0.51100000000E-03 0.  1.
</event>
<event>
 8    1  0.1128298E+005  0.1043930E+01  0.7957747E-01            NaN
         13   -1    0    0    0    0  0.00000000000E+00  0.00000000000E+00  0.74505805969E-08  0.10566000000E+00  0.10566000000E+00 0. -1.
     999900   -1    0    0    0    0 -0.00000000000E+00 -0.00000000000E+00 -0.74505805969E-08  0.93827000000E+00  0.93827000000E+00 0.  1.
     999902    2    1    2    0    0  0.35520565640E-02  0.22702154352E-01  0.20673683033E-02  0.10208588290E+01  0.10205980942E+01 0.  0.
     999903    2    3    3    0    0 -0.49632485214E-02  0.12319191604E+00  0.48268684325E-01  0.13389475748E+00  0.19926318769E-01 0.  0.
         14    1    1    2    0    0 -0.35520565640E-02 -0.22702154352E-01 -0.20673683033E-02  0.23071170966E-01  0.00000000000E+00 0. -1.
     999901    1    3    3    0    0  0.85153050854E-02 -0.10048976169E+00 -0.46201316022E-01  0.88696407155E+00  0.88000000000E+00 0. -1.
        -11    1    4    4    0    0 -0.84144645136E-02  0.10677165072E+00  0.47290013720E-01  0.11707943940E+00  0.51100000000E-03 0.  1.
         11    1    4    4    0    0  0.34512159923E-02  0.16420265321E-01  0.97867060478E-03  0.16815318082E-01  0.51100000000E-03 0. -1.
</event>
<event>
 8    1  0.1128298E+005  0.1043930E+01  0.7957747E-01            NaN
         13   -1    0    0    0    0  0.00000000000E+00  0.00000000000E+00  0.74505805969E-08  0.10566000000E+00  0.10566000000E+00 0. -1.
     999900   -1    0    0    0    0 -0.00000000000E+00 -0.00000000000E+00 -0.74505805969E-08  0.93827000000E+00  0.93827000000E+00 0. -1.
     999902    2    1    2    0    0  0.59253771530E-02 -0.16465599116E-01  0.16353717169E-01  0.10199785885E+01  0.10196973330E+01 0.  0.
     999903    2    3    3    0    0  0.37099871910E-01  0.10032564892E-01 -0.12179589703E+00  0.12826152701E+00  0.11820572026E-01 0.  0.
         14    1    1    2    0    0 -0.59253771530E-02  0.16465599116E-01 -0.16353717169E-01  0.23951411522E-01  0.00000000000E+00 0. -1.
     999901    1    3    3    0    0 -0.31174494757E-01 -0.26498164009E-01  0.13814961420E+00  0.89171706147E+00  0.88000000000E+00 0.  1.
        -11    1    4    4    0    0  0.19206950911E-02 -0.35432128244E-03 -0.19173885014E-01  0.19279875537E-01  0.51100000000E-03 0. -1.
         11    1    4    4    0    0  0.35179176819E-01  0.10386886175E-01 -0.10262201201E+00  0.10898165147E+00  0.51100000000E-03 0.  1.
</event>
<event>
 8    1  0.1128298E+005  0.1043930E+01  0.7957747E-01            NaN
         13   -1    0    0    0    0  0.00000000000E+00  0.00000000000E+00  0.74505805969E-08  0.10566000000E+00  0.10566000000E+00 0.  1.
     999900   -1    0    0    0    0 -0.00000000000E+00 -0.00000000000E+00 -0.74505805969E-08  0.93827000000E+00  0.93827000000E+00 0. -1.
     999902    2    1    2    0    0  0.87952448340E-02  0.11268755791E-01 -0.19084095684E-01  0.10200858415E+01  0.10198071288E+01 0.  0.
     999903    2    3    3    0    0  0.83751590090E-01 -0.85591041935E-01 -0.48106477353E-01  0.13112995236E+00  0.23252439471E-01 0.  0.
         14    1    1    2    0    0 -0.87952448340E-02 -0.11268755791E-01  0.19084095684E-01  0.23844158547E-01  0.00000000000E+00 0.  1.
     999901    1    3    3    0    0 -0.74956345256E-01  0.96859797726E-01  0.29022381669E-01  0.88895588909E+00  0.88000000000E+00 0.  1.
        -11    1    4    4    0    0  0.44592279942E-01 -0.45682729099E-01 -0.13128801986E-01  0.65176757598E-01  0.51100000000E-03 0. -1.
         11    1    4    4    0    0  0.39159310148E-01 -0.39908312835E-01 -0.34977675367E-01  0.65953194765E-01  0.51100000000E-03 0.  1.
</event>
<event>
 8    1  0.1128298E+005  0.1043930E+01  0.7957747E-01            NaN
         13   -1    0    0    0    0  0.00000000000E+00  0.00000000000E+00  0.74505805969E-08  0.10566000000E+00  0.10566000000E+00 0.  1.
     999900   -1    0    0    0    0 -0.00000000000E+00 -0.00000000000E+00 -0.74505805969E-08  0.93827000000E+00  0.93827000000E+00 0. -1.
     999902    2    1    2    0    0 -0.22772599581E-01  0.52366289316E-02 -0.61122861926E-02  0.10197768715E+01  0.10194908013E+01 0.  0.
     999903    2    3    3    0    0  0.11384385721E-01 -0.87719800241E-03 -0.12858455584E+00  0.13061797941E+00  0.19917199353E-01 0.  0.
         14    1    1    2    0    0  0.22772599581E-01 -0.52366289316E-02  0.61122861926E-02  0.24153128509E-01  0.00000000000E+00 0.  1.
     999901    1    3    3    0    0 -0.34156985303E-01  0.61138269340E-02  0.12247226965E+00  0.88915889208E+00  0.88000000000E+00 0.  1.
        -11    1    4    4    0    0  0.10837158248E-01 -0.93061909601E-02 -0.88841915032E-01  0.89984421856E-01  0.51100000000E-03 0. -1.
         11    1    4    4    0    0  0.54722747354E-03  0.84289929577E-02 -0.39742640812E-01  0.40633557559E-01  0.51100000000E-03 0.  1.
</event>
<event>
 8    1  0.1128298E+005  0.1043930E+01  0.7957747E-01            NaN
         13   -1    0    0    0    0  0.00000000000E+00  0.00000000000E+00  0.74505805969E-08  0.10566000000E+00  0.10566000000E+00 0. -1.
     999900   -1    0    0    0    0 -0.00000000000E+00 -0.00000000000E+00 -0.74505805969E-08  0.93827000000E+00  0.93827000000E+00 0. -1.
     999902    2    1    2    0    0  0.19168184915E-01  0.12305992367E-01 -0.48392139317E-02  0.10206432065E+01  0.10203775185E+01 0.  0.
     999903    2    3    3    0    0  0.12746557967E+00  0.10485627235E-01  0.31535183033E-01  0.13325674264E+00  0.20136268543E-01 0.  0.
         14    1    1    2    0    0 -0.19168184915E-01 -0.12305992367E-01  0.48392139317E-02  0.23286793523E-01  0.00000000000E+00 0. -1.
     999901    1    3    3    0    0 -0.10829739476E+00  0.18203651321E-02 -0.36374396965E-01  0.88738646383E+00  0.88000000000E+00 0.  1.
        -11    1    4    4    0    0  0.27026655897E-01  0.88184845201E-02  0.12289074031E-01  0.30975607496E-01  0.51100000000E-03 0. -1.
         11    1    4    4    0    0  0.10043892378E+00  0.16671427148E-02  0.19246109002E-01  0.10228113515E+00  0.51100000000E-03 0.  1.
</event>
<event>
 8    1  0.1128298E+005  0.1043930E+01  0.7957747E-01            NaN
         13   -1    0    0    0    0  0.00000000000E+00  0.00000000000E+00  0.74505805969E-08  0.10566000000E+00  0.10566000000E+00 0. -1.
     999900   -1    0    0    0    0 -0.00000000000E+00 -0.00000000000E+00 -0.74505805969E-08  0.93827000000E+00  0.93827000000E+00 0.  1.
     999902    2    1    2    0    0  0.17827431631E-01  0.65111593905E-02  0.14260848629E-01  0.10201900691E+01  0.10199138164E+01 0.  0.
     999903    2    3    3    0    0 -0.63342353615E-01  0.11123541703E+00  0.12193174852E-01  0.13026873581E+00  0.20873386280E-01 0.  0.
         14    1    1    2    0    0 -0.17827431631E-01 -0.65111593905E-02 -0.14260848629E-01  0.23739930893E-01  0.00000000000E+00 0.  1.
     999901    1    3    3    0    0  0.81169785246E-01 -0.10472425764E+00  0.20676737772E-02  0.88992133329E+00  0.88000000000E+00 0.  1.
        -11    1    4    4    0    0 -0.49855354530E-01  0.99225176807E-01  0.14748555017E-01  0.11202219907E+00  0.51100000000E-03 0.  1.
         11    1    4    4    0    0 -0.13486999085E-01  0.12010240221E-01 -0.25553801656E-02  0.18246536747E-01  0.51100000000E-03 0. -1.
</event>
<event>
 8    1  0.1128298E+005  0.1043930E+01  0.7957747E-01            NaN
         13   -1    0    0    0    0  0.00000000000E+00  0.00000000000E+00  0.74505805969E-08  0.10566000000E+00  0.10566000000E+00 0.  1.
     999900   -1    0    0    0    0 -0.00000000000E+00 -0.00000000000E+00 -0.74505805969E-08  0.93827000000E+00  0.93827000000E+00 0.  1.
     999902    2    1    2    0    0 -0.22875999119E-01  0.83340941958E-02  0.43197305834E-02  0.10192029190E+01  0.10189029206E+01 0.  0.
     999903    2    3    3    0    0  0.10495175658E+00 -0.15669475308E-01 -0.66427998786E-01  0.12683452665E+00  0.20344887880E-01 0.  0.
         14    1    1    2    0    0  0.22875999119E-01 -0.83340941958E-02 -0.43197305834E-02  0.24727080986E-01  0.00000000000E+00 0.  1.
     999901    1    3    3    0    0 -0.12782775570E+00  0.24003569504E-01  0.70747729369E-01  0.89236839236E+00  0.88000000000E+00 0. -1.
        -11    1    4    4    0    0  0.40005008750E-01  0.38488966812E-02 -0.23129687988E-01  0.46373034386E-01  0.51100000000E-03 0.  1.
         11    1    4    4    0    0  0.64946747830E-01 -0.19518371990E-01 -0.43298310798E-01  0.80461492267E-01  0.51100000000E-03 0. -1.
</event>
<event>
 8    1  0.1128298E+005  0.1043930E+01  0.7957747E-01            NaN
         13   -1    0    0    0    0  0.00000000000E+00  0.00000000000E+00  0.74505805969E-08  0.10566000000E+00  0.10566000000E+00 0. -1.
     999900   -1    0    0    0    0 -0.00000000000E+00 -0.00000000000E+00 -0.74505805969E-08  0.93827000000E+00  0.93827000000E+00 0. -1.
     999902    2    1    2    0    0  0.11482029244E-01  0.14873089021E-01  0.14598189902E-01  0.10201360318E+01  0.10198585052E+01 0.  0.
     999903    2    3    3    0    0 -0.15656535201E-01 -0.12141525487E+00 -0.31705180639E-01  0.12802896624E+00  0.19985157172E-01 0.  0.
         14    1    1    2    0    0 -0.11482029244E-01 -0.14873089021E-01 -0.14598189902E-01  0.23793968164E-01  0.00000000000E+00 0.  1.
     999901    1    3    3    0    0  0.27138564444E-01  0.13628834389E+00  0.46303370541E-01  0.89210706560E+00  0.88000000000E+00 0.  1.
        -11    1    4    4    0    0 -0.81631750403E-02 -0.88573796959E-01 -0.31424917597E-01  0.94338441271E-01  0.51100000000E-03 0. -1.
         11    1    4    4    0    0 -0.74933601602E-02 -0.32841457913E-01 -0.28026304140E-03  0.33690524969E-01  0.51100000000E-03 0.  1.
</event>
<event>
 8    1  0.1128298E+005  0.1043930E+01  0.7957747E-01            NaN
         13   -1    0    0    0    0  0.00000000000E+00  0.00000000000E+00  0.74505805969E-08  0.10566000000E+00  0.10566000000E+00 0.  1.
     999900   -1    0    0    0    0 -0.00000000000E+00 -0.00000000000E+00 -0.74505805969E-08  0.93827000000E+00  0.93827000000E+00 0. -1.
     999902    2    1    2    0    0  0.96057275822E-02  0.12590268990E-01 -0.18444920569E-01  0.10196195090E+01  0.10193296539E+01 0.  0.
     999903    2    3    3    0    0  0.35595227311E-01 -0.93324217894E-01  0.77139608113E-01  0.12775083331E+00  0.19832458743E-01 0.  0.
         14    1    1    2    0    0 -0.96057275822E-02 -0.12590268990E-01  0.18444920569E-01  0.24310490954E-01  0.00000000000E+00 0.  1.
     999901    1    3    3    0    0 -0.25989499729E-01  0.10591448688E+00 -0.95584528682E-01  0.89186867573E+00  0.88000000000E+00 0. -1.
        -11    1    4    4    0    0  0.20917768342E-01 -0.68081103326E-01  0.63892577419E-01  0.95682350686E-01  0.51100000000E-03 0. -1.
         11    1    4    4    0    0  0.14677458969E-01 -0.25243114568E-01  0.13247030693E-01  0.32068482628E-01  0.51100000000E-03 0.  1.
</event>
<event>
 8    1  0.1128298E+005  0.1043930E+01  0.7957747E-01            NaN
         13   -1    0    0    0    0  0.00000000000E+00  0.00000000000E+00  0.74505805969E-08  0.10566000000E+00  0.10566000000E+00 0. -1.
     999900   -1    0    0    0    0 -0.00000000000E+00 -0.00000000000E+00 -0.74505805969E-08  0.93827000000E+00  0.93827000000E+00 0. -1.
     999902    2    1    2    0    0  0.17189098511E-02 -0.74061619547E-02 -0.15267456587E-01  0.10268741765E+01  0.10267325227E+01 0.  0.
     999903    2    3    3    0    0  0.73222773375E-01 -0.11455102502E+00 -0.30177019731E-02  0.13741204648E+00  0.19734541294E-01 0.  0.
         14    1    1    2    0    0 -0.17189098511E-02  0.74061619547E-02  0.15267456587E-01  0.17055823540E-01  0.00000000000E+00 0. -1.
     999901    1    3    3    0    0 -0.71503863524E-01  0.10714486306E+00 -0.12249754614E-01  0.88946212998E+00  0.88000000000E+00 0. -1.
        -11    1    4    4    0    0  0.43676842529E-01 -0.83420017705E-01 -0.62268698702E-02  0.94369491662E-01  0.51100000000E-03 0.  1.
         11    1    4    4    0    0  0.29545930847E-01 -0.31131007310E-01  0.32091678971E-02  0.43042554819E-01  0.51100000000E-03 0. -1.
</event>
<event>
 8    1  0.1128298E+005  0.1043930E+01  0.7957747E-01            NaN
         13   -1    0    0    0    0  0.00000000000E+00  0.00000000000E+00  0.74505805969E-08  0.10566000000E+00  0.10566000000E+00 0.  1.
     999900   -1    0    0    0    0 -0.00000000000E+00 -0.00000000000E+00 -0.74505805969E-08  0.93827000000E+00  0.93827000000E+00 0. -1.
     999902    2    1    2    0    0 -0.62575113891E-02  0.92819119216E-02  0.21147461554E-01  0.10200024956E+01  0.10197218079E+01 0.  0.
     999903    2    3    3    0    0 -0.52583746559E-01  0.11189443766E+00  0.43964724956E-01  0.13253639594E+00  0.18643594735E-01 0.  0.
         14    1    1    2    0    0  0.62575113891E-02 -0.92819119216E-02 -0.21147461554E-01  0.23927504422E-01  0.00000000000E+00 0. -1.
     999901    1    3    3    0    0  0.46326235170E-01 -0.10261252574E+00 -0.22817263402E-01  0.88746609964E+00  0.88000000000E+00 0.  1.
        -11    1    4    4    0    0 -0.20374221232E-01  0.39564568955E-01  0.25274559604E-01  0.51181329522E-01  0.51100000000E-03 0.  1.
         11    1    4    4    0    0 -0.32209525327E-01  0.72329868710E-01  0.18690165352E-01  0.81355066414E-01  0.51100000000E-03 0. -1.
</event>
<event>
 8    1  0.1128298E+005  0.1043930E+01  0.7957747E-01            NaN
         13   -1    0    0    0    0  0.00000000000E+00  0.00000000000E+00  0.74505805969E-08  0.10566000000E+00  0.10566000000E+00 0.  1.
     999900   -1    0    0    0    0 -0.00000000000E+00 -0.00000000000E+00 -0.74505805969E-08  0.93827000000E+00  0.93827000000E+00 0.  1.
     999902    2    1    2    0    0  0.79845617273E-02 -0.20336942907E-01  0.10994624419E-01  0.10194713361E+01  0.10191778937E+01 0.  0.
     999903    2    3    3    0    0  0.12159055086E+00 -0.46480274020E-01  0.10345533795E-02  0.13172756816E+00  0.20159463807E-01 0.  0.
         14    1    1    2    0    0 -0.79845617273E-02  0.20336942907E-01 -0.10994624419E-01  0.24458663882E-01  0.00000000000E+00 0. -1.
     999901    1    3    3    0    0 -0.11360598914E+00  0.26143331113E-01  0.99600710395E-02  0.88774376796E+00  0.88000000000E+00 0. -1.
        -11    1    4    4    0    0  0.46513707207E-01 -0.95279965855E-02  0.62176919058E-02  0.47887665330E-01  0.51100000000E-03 0.  1.
         11    1    4    4    0    0  0.75076843656E-01 -0.36952277435E-01 -0.51831385263E-02  0.83839902832E-01  0.51100000000E-03 0. -1.
</event>
<event>
 8    1  0.1128298E+005  0.1043930E+01  0.7957747E-01            NaN
         13   -1    0    0    0    0  0.00000000000E+00  0.00000000000E+00  0.74505805969E-08  0.10566000000E+00  0.10566000000E+00 0.  1.
     999900   -1    0    0    0    0 -0.00000000000E+00 -0.00000000000E+00 -0.74505805969E-08  0.93827000000E+00  0.93827000000E+00 0. -1.
     999902    2    1    2    0    0  0.22546476529E-01  0.72777367880E-02 -0.25008382642E-02  0.10201064140E+01  0.10198281878E+01 0.  0.
     999903    2    3    3    0    0  0.50206730564E-01 -0.10909123818E+00 -0.47745590283E-01  0.13086296279E+00  0.20587850689E-01 0.  0.
         14    1    1    2    0    0 -0.22546476529E-01 -0.72777367880E-02  0.25008382642E-02  0.23823585974E-01  0.00000000000E+00 0. -1.
     999901    1    3    3    0    0 -0.27660254035E-01  0.11636897497E+00  0.45244752019E-01  0.88924345124E+00  0.88000000000E+00 0.  1.
        -11    1    4    4    0    0  0.41016441156E-01 -0.66105998333E-01 -0.32829041253E-01  0.84441450315E-01  0.51100000000E-03 0.  1.
         11    1    4    4    0    0  0.91902894080E-02 -0.42985239847E-01 -0.14916549030E-01  0.46421512471E-01  0.51100000000E-03 0. -1.
</event>
<event>
 8    1  0.1128298E+005  0.1043930E+01  0.7957747E-01            NaN
         13   -1    0    0    0    0  0.00000000000E+00  0.00000000000E+00  0.74505805969E-08  0.10566000000E+00  0.10566000000E+00 0.  1.
     999900   -1    0    0    0    0 -0.00000000000E+00 -0.00000000000E+00 -0.74505805969E-08  0.93827000000E+00  0.93827000000E+00 0.  1.
     999902    2    1    2    0    0  0.33008252019E-02  0.15095427078E-01 -0.18004530463E-01  0.10202038439E+01  0.10199279154E+01 0.  0.
     999903    2    3    3    0    0 -0.14842506990E-01  0.84301245695E-02  0.12566575280E+00  0.12834356502E+00  0.19718576076E-01 0.  0.
         14    1    1    2    0    0 -0.33008252019E-02 -0.15095427078E-01  0.18004530463E-01  0.23726156092E-01  0.00000000000E+00 0.  1.
     999901    1    3    3    0    0  0.18143332192E-01  0.66653025089E-02 -0.14367028326E+00  0.89186027889E+00  0.88000000000E+00 0.  1.
        -11    1    4    4    0    0 -0.15880386861E-01  0.81475889465E-02  0.58433739593E-01  0.61101006017E-01  0.51100000000E-03 0. -1.
         11    1    4    4    0    0  0.10378798710E-02  0.28253562291E-03  0.67232013206E-01  0.67242559006E-01  0.51100000000E-03 0.  1.
</event>
<event>
 8    1  0.1128298E+005  0.1043930E+01  0.7957747E-01            NaN
         13   -1    0    0    0    0  0.00000000000E+00  0.00000000000E+00  0.74505805969E-08  0.10566000000E+00  0.10566000000E+00 0. -1.
     999900   -1    0    0    0    0 -0.00000000000E+00 -0.00000000000E+00 -0.74505805969E-08  0.93827000000E+00  0.93827000000E+00 0.  1.
     999902    2    1    2    0    0 -0.26493130232E-01  0.21775315541E-02  0.75517692502E-04  0.10173474250E+01  0.10170000736E+01 0.  0.
     999903    2    3    3    0    0  0.19942326584E-01  0.54766546812E-01 -0.11178570384E+00  0.12749643234E+00  0.19032226288E-01 0.  0.
         14    1    1    2    0    0  0.26493130232E-01 -0.21775315541E-02 -0.75517692502E-04  0.26582575046E-01  0.00000000000E+00 0.  1.
     999901    1    3    3    0    0 -0.46435456816E-01 -0.52589015258E-01  0.11186122153E+00  0.88985099261E+00  0.88000000000E+00 0. -1.
        -11    1    4    4    0    0  0.17326688686E-02  0.30711116535E-01 -0.63458257607E-01  0.70522240462E-01  0.51100000000E-03 0. -1.
         11    1    4    4    0    0  0.18209657715E-01  0.24055430277E-01 -0.48327446231E-01  0.56974191878E-01  0.51100000000E-03 0.  1.
</event>
<event>
 8    1  0.1128298E+005  0.1043930E+01  0.7957747E-01            NaN
         13   -1    0    0    0    0  0.00000000000E+00  0.00000000000E+00  0.74505805969E-08  0.10566000000E+00  0.10566000000E+00 0.  1.
     999900   -1    0    0    0    0 -0.00000000000E+00 -0.00000000000E+00 -0.74505805969E-08  0.93827000000E+00  0.93827000000E+00 0. -1.
     999902    2    1    2    0    0  0.16909142439E-01 -0.94117255532E-02  0.57517145404E-02  0.10237413424E+01  0.10235422582E+01 0.  0.
     999903    2    3    3    0    0 -0.11027355265E+00  0.66103727843E-01 -0.16460853166E-01  0.13112080723E+00  0.19792603494E-01 0.  0.
         14    1    1    2    0    0 -0.16909142439E-01  0.94117255532E-02 -0.57517145404E-02  0.20188657609E-01  0.00000000000E+00 0. -1.
     999901    1    3    3    0    0  0.12718269509E+00 -0.75515453397E-01  0.22212567706E-01  0.89262053516E+00  0.88000000000E+00 0. -1.
        -11    1    4    4    0    0 -0.37123839224E-01  0.24379246928E-01 -0.15043229240E-01  0.46894423831E-01  0.51100000000E-03 0. -1.
         11    1    4    4    0    0 -0.73149713422E-01  0.41724480915E-01 -0.14176239254E-02  0.84226383396E-01  0.51100000000E-03 0.  1.
</event>
<event>
 8    1  0.1128298E+005  0.1043930E+01  0.7957747E-01            NaN
         13   -1    0    0    0    0  0.00000000000E+00  0.00000000000E+00  0.74505805969E-08  0.10566000000E+00  0.10566000000E+00 0.  1.
     999900   -1    0    0    0    0 -0.00000000000E+00 -0.00000000000E+00 -0.74505805969E-08  0.93827000000E+00  0.93827000000E+00 0.  1.
     999902    2    1    2    0    0  0.28934706367E-02 -0.17775294854E-01 -0.14040130992E-01  0.10210945329E+01  0.10208391580E+01 0.  0.
     999903    2    3    3    0    0  0.14489450320E-01 -0.51960756423E-01  0.11726610034E+00  0.13062025538E+00  0.20011208080E-01 0.  0.
         14    1    1    2    0    0 -0.28934706367E-02  0.17775294854E-01  0.14040130992E-01  0.22835467101E-01  0.00000000000E+00 0.  1.
     999901    1    3    3    0    0 -0.11595979684E-01  0.34185461569E-01 -0.13130623133E+00  0.89047427751E+00  0.88000000000E+00 0.  1.
        -11    1    4    4    0    0  0.18825966758E-01 -0.35242920379E-01  0.75532067537E-01  0.85450774184E-01  0.51100000000E-03 0.  1.
         11    1    4    4    0    0 -0.43365164380E-02 -0.16717836044E-01  0.41734032804E-01  0.45169481200E-01  0.51100000000E-03 0. -1.
</event>
<event>
 8    1  0.1128298E+005  0.1043930E+01  0.7957747E-01            NaN
         13   -1    0    0    0    0  0.00000000000E+00  0.00000000000E+00  0.74505805969E-08  0.10566000000E+00  0.10566000000E+00 0. -1.
     999900   -1    0    0    0    0 -0.00000000000E+00 -0.00000000000E+00 -0.74505805969E-08  0.93827000000E+00  0.93827000000E+00 0.  1.
     999902    2    1    2    0    0  0.14425662955E-02  0.23127841957E-01 -0.53249050070E-02  0.10201532743E+01  0.10198761544E+01 0.  0.
     999903    2    3    3    0    0  0.83385903621E-01  0.73086783644E-01  0.68438145265E-01  0.13186751288E+00  0.20257698746E-01 0.  0.
         14    1    1    2    0    0 -0.14425662955E-02 -0.23127841957E-01  0.53249050070E-02  0.23776725688E-01  0.00000000000E+00 0. -1.
     999901    1    3    3    0    0 -0.81943337326E-01 -0.49958941687E-01 -0.73763050272E-01  0.88828576144E+00  0.88000000000E+00 0. -1.
        -11    1    4    4    0    0  0.21872620634E-01  0.31248598811E-01  0.19739830642E-01  0.42951233927E-01  0.51100000000E-03 0.  1.
         11    1    4    4    0    0  0.61513282987E-01  0.41838184833E-01  0.48698314622E-01  0.88916278948E-01  0.51100000000E-03 0. -1.
</event>
<event>
 8    1  0.1128298E+005  0.1043930E+01  0.7957747E-01            NaN
         13   -1    0    0    0    0  0.00000000000E+00  0.00000000000E+00  0.74505805969E-08  0.10566000000E+00  0.10566000000E+00 0.  1.
     999900   -1    0    0    0    0 -0.00000000000E+00 -0.00000000000E+00 -0.74505805969E-08  0.93827000000E+00  0.93827000000E+00 0. -1.
     999902    2    1    2    0    0  0.10236962714E-01 -0.21101533527E-01  0.35861840843E-02  0.10202038364E+01  0.10199279077E+01 0.  0.
     999903    2    3    3    0    0  0.78085154786E-01  0.74495262044E-01  0.69730302618E-01  0.12996950270E+00  0.19568368946E-01 0.  0.
         14    1    1    2    0    0 -0.10236962714E-01  0.21101533527E-01 -0.35861840843E-02  0.23726163598E-01  0.00000000000E+00 0. -1.
     999901    1    3    3    0    0 -0.67848192073E-01 -0.95596795570E-01 -0.66144118534E-01  0.89023433371E+00  0.88000000000E+00 0.  1.
        -11    1    4    4    0    0  0.72393051476E-01  0.61963850064E-01  0.65231839186E-01  0.11548041644E+00  0.51100000000E-03 0.  1.
         11    1    4    4    0    0  0.56921033108E-02  0.12531411980E-01  0.44984634321E-02  0.14489086257E-01  0.51100000000E-03 0. -1.
</event>
<event>
 8    1  0.1128298E+005  0.1043930E+01  0.7957747E-01            NaN
         13   -1    0    0    0    0  0.00000000000E+00  0.00000000000E+00  0.74505805969E-08  0.10566000000E+00  0.10566000000E+00 0.  1.
     999900   -1    0    0    0    0 -0.00000000000E+00 -0.00000000000E+00 -0.74505805969E-08  0.93827000000E+00  0.93827000000E+00 0. -1.
     999902    2    1    2    0    0  0.21891547253E-01 -0.87895594292E-02  0.10045851309E-02  0.10203184480E+01  0.10200452098E+01 0.  0.
     999903    2    3    3    0    0 -0.43714027574E-01  0.45829223124E-01 -0.11095546975E+00  0.12912691038E+00  0.18745901339E-01 0.  0.
         14    1    1    2    0    0 -0.21891547253E-01  0.87895594292E-02 -0.10045851309E-02  0.23611551990E-01  0.00000000000E+00 0.  1.
     999901    1    3    3    0    0  0.65605574827E-01 -0.54618782553E-01  0.11196005488E+00  0.89119153763E+00  0.88000000000E+00 0.  1.
        -11    1    4    4    0    0 -0.22502450355E-01  0.31146471056E-01 -0.51017918207E-01  0.63871370977E-01  0.51100000000E-03 0. -1.
         11    1    4    4    0    0 -0.21211577220E-01  0.14682752068E-01 -0.59937551545E-01  0.65255539402E-01  0.51100000000E-03 0.  1.
</event>
<event>
 8    1  0.1128298E+005  0.1043930E+01  0.7957747E-01            NaN
         13   -1    0    0    0    0  0.00000000000E+00  0.00000000000E+00  0.74505805969E-08  0.10566000000E+00  0.10566000000E+00 0. -1.
     999900   -1    0    0    0    0 -0.00000000000E+00 -0.00000000000E+00 -0.74505805969E-08  0.93827000000E+00  0.93827000000E+00 0. -1.
     999902    2    1    2    0    0  0.11199712939E-01  0.64306480955E-02  0.22833548655E-01  0.10176972390E+01  0.10173590873E+01 0.  0.
     999903    2    3    3    0    0 -0.32097526889E-01 -0.66203845468E-01  0.10512283584E+00  0.12982227742E+00  0.19743675243E-01 0.  0.
         14    1    1    2    0    0 -0.11199712939E-01 -0.64306480955E-02 -0.22833548655E-01  0.26232760987E-01  0.00000000000E+00 0.  1.
     999901    1    3    3    0    0  0.43297239828E-01  0.72634493563E-01 -0.82289287190E-01  0.88787496159E+00  0.88000000000E+00 0.  1.
        -11    1    4    4    0    0 -0.16724125834E-01 -0.53784781559E-01  0.80379355907E-01  0.98150909773E-01  0.51100000000E-03 0.  1.
         11    1    4    4    0    0 -0.15373401055E-01 -0.12419063908E-01  0.24743479938E-01  0.31671367650E-01  0.51100000000E-03 0. -1.
</event>
<event>
 8    1  0.1128298E+005  0.1043930E+01  0.7957747E-01            NaN
         13   -1    0    0    0    0  0.00000000000E+00  0.00000000000E+00  0.74505805969E-08  0.10566000000E+00  0.10566000000E+00 0.  1.
     999900   -1    0    0    0    0 -0.00000000000E+00 -0.00000000000E+00 -0.74505805969E-08  0.93827000000E+00  0.93827000000E+00 0. -1.
     999902    2    1    2    0    0 -0.17510563935E-01  0.99159863687E-02  0.11619092177E-01  0.10206931771E+01  0.10204286412E+01 0.  0.
     999903    2    3    3    0    0 -0.61502470555E-01  0.29987412198E-01 -0.10977621364E+00  0.13104438671E+00  0.20976544825E-01 0.  0.
         14    1    1    2    0    0  0.17510563935E-01 -0.99159863687E-02 -0.11619092177E-01  0.23236822890E-01  0.00000000000E+00 0. -1.
     999901    1    3    3    0    0  0.43991906620E-01 -0.20071425829E-01  0.12139530582E+00  0.88964879040E+00  0.88000000000E+00 0.  1.
        -11    1    4    4    0    0 -0.16821748287E-01  0.64191275538E-02 -0.14192387150E-01  0.22931667798E-01  0.51100000000E-03 0.  1.
         11    1    4    4    0    0 -0.44680722269E-01  0.23568284644E-01 -0.95583826490E-01  0.10811271891E+00  0.51100000000E-03 0. -1.
</event>
<event>
 8    1  0.1128298E+005  0.1043930E+01  0.7957747E-01            NaN
         13   -1    0    0    0    0  0.00000000000E+00  0.00000000000E+00  0.74505805969E-08  0.10566000000E+00  0.10566000000E+00 0.  1.
     999900   -1    0    0    0    0 -0.00000000000E+00 -0.00000000000E+00 -0.74505805969E-08  0.93827000000E+00  0.93827000000E+00 0. -1.
     999902    2    1    2    0    0  0.77923687516E-02 -0.22088467700E-01 -0.12091889672E-02  0.10204761399E+01  0.10202065813E+01 0.  0.
     999903    2    3    3    0    0  0.31320565859E-01 -0.12533317230E+00 -0.29044756847E-01  0.13369101150E+00  0.18447404462E-01 0.  0.
         14    1    1    2    0    0 -0.77923687516E-02  0.22088467700E-01  0.12091889672E-02  0.23453860110E-01  0.00000000000E+00 0.  1.
     999901    1    3    3    0    0 -0.23528197107E-01  0.10324470460E+00  0.27835567879E-01  0.88678512839E+00  0.88000000000E+00 0.  1.
        -11    1    4    4    0    0  0.29534949565E-01 -0.11539284705E+00 -0.21415627799E-01  0.12102360361E+00  0.51100000000E-03 0.  1.
         11    1    4    4    0    0  0.17856162937E-02 -0.99403252533E-02 -0.76291290476E-02  0.12667407892E-01  0.51100000000E-03 0. -1.
</event>
<event>
 8    1  0.1128298E+005  0.1043930E+01  0.7957747E-01            NaN
         13   -1    0    0    0    0  0.00000000000E+00  0.00000000000E+00  0.74505805969E-08  0.10566000000E+00  0.10566000000E+00 0. -1.
     999900   -1    0    0    0    0 -0.00000000000E+00 -0.00000000000E+00 -0.74505805969E-08  0.93827000000E+00  0.93827000000E+00 0.  1.
     999902    2    1    2    0    0  0.13651013260E-01  0.18832445557E-01 -0.99174927653E-02  0.10186442761E+01  0.10183303950E+01 0.  0.
     999903    2    3    3    0    0  0.70558543272E-01 -0.39398921849E-01  0.98620308215E-01  0.12824559388E+00  0.13790724602E-01 0.  0.
         14    1    1    2    0    0 -0.13651013260E-01 -0.18832445557E-01  0.99174927653E-02  0.25285723866E-01  0.00000000000E+00 0. -1.
     999901    1    3    3    0    0 -0.56907530012E-01  0.58231367406E-01 -0.10853780098E+00  0.89039868226E+00  0.88000000000E+00 0.  1.
        -11    1    4    4    0    0  0.65738935056E-02 -0.39942889219E-02  0.16943721116E-01  0.18615080609E-01  0.51100000000E-03 0. -1.
         11    1    4    4    0    0  0.63984649766E-01 -0.35404632927E-01  0.81676587099E-01  0.10963051327E+00  0.51100000000E-03 0.  1.
</event>
<event>
 8    1  0.1128298E+005  0.1043930E+01  0.7957747E-01            NaN
         13   -1    0    0    0    0  0.00000000000E+00  0.00000000000E+00  0.74505805969E-08  0.10566000000E+00  0.10566000000E+00 0. -1.
     999900   -1    0    0    0    0 -0.00000000000E+00 -0.00000000000E+00 -0.74505805969E-08  0.93827000000E+00  0.93827000000E+00 0.  1.
     999902    2    1    2    0    0  0.13302404087E-01  0.14985761929E-01 -0.11944699049E-01  0.10206018443E+01  0.10203352006E+01 0.  0.
     999903    2    3    3    0    0  0.50850018766E-01  0.58150227326E-01  0.10406983509E+00  0.13114562466E+00  0.20036739916E-01 0.  0.
         14    1    1    2    0    0 -0.13302404087E-01 -0.14985761929E-01  0.11944699049E-01  0.23328155745E-01  0.00000000000E+00 0.  1.
     999901    1    3    3    0    0 -0.37547614679E-01 -0.43164465396E-01 -0.11601453414E+00  0.88945621959E+00  0.88000000000E+00 0.  1.
        -11    1    4    4    0    0  0.31832178737E-01  0.22986098566E-01  0.59299142892E-01  0.71121711166E-01  0.51100000000E-03 0.  1.
         11    1    4    4    0    0  0.19017840029E-01  0.35164128760E-01  0.44770692194E-01  0.60023913496E-01  0.51100000000E-03 0. -1.
</event>
<event>
 8    1  0.1128298E+005  0.1043930E+01  0.7957747E-01            NaN
         13   -1    0    0    0    0  0.00000000000E+00  0.00000000000E+00  0.74505805969E-08  0.10566000000E+00  0.10566000000E+00 0.  1.
     999900   -1    0    0    0    0 -0.00000000000E+00 -0.00000000000E+00 -0.74505805969E-08  0.93827000000E+00  0.93827000000E+00 0.  1.
     999902    2    1    2    0    0  0.55182642071E-02  0.88205667480E-02  0.20921424390E-01  0.10205642208E+01  0.10202967065E+01 0.  0.
     999903    2    3    3    0    0  0.83051736904E-01 -0.52379200620E-01 -0.81389055428E-01  0.12914721113E+00  0.20338439904E-01 0.  0.
         14    1    1    2    0    0 -0.55182642071E-02 -0.88205667480E-02 -0.20921424390E-01  0.23365779168E-01  0.00000000000E+00 0. -1.
     999901    1    3    3    0    0 -0.77533472697E-01  0.61199767368E-01  0.10231047982E+00  0.89141700971E+00  0.88000000000E+00 0. -1.
        -11    1    4    4    0    0  0.25653252477E-01 -0.14656695795E-01 -0.13209306438E-01  0.32367499005E-01  0.51100000000E-03 0. -1.
         11    1    4    4    0    0  0.57398484426E-01 -0.37722504825E-01 -0.68179748990E-01  0.96779712120E-01  0.51100000000E-03 0.  1.
</event>
<event>
 8    1  0.1128298E+005  0.1043930E+01  0.7957747E-01            NaN
         13   -1    0    0    0    0  0.00000000000E+00  0.00000000000E+00  0.74505805969E-08  0.10566000000E+00  0.10566000000E+00 0.  1.
     999900   -1    0    0    0    0 -0.00000000000E+00 -0.00000000000E+00 -0.74505805969E-08  0.93827000000E+00  0.93827000000E+00 0.  1.
     999902    2    1    2    0    0 -0.24449266023E-01  0.12919252798E-01 -0.44183483726E-02  0.10159265091E+01  0.10155404848E+01 0.  0.
     999903    2    3    3    0    0 -0.84646491046E-01  0.76427916502E-01 -0.59098712876E-01  0.12989772933E+00  0.19352192493E-01 0.  0.
         14    1    1    2    0    0  0.24449266023E-01 -0.12919252798E-01  0.44183483726E-02  0.28003490930E-01  0.00000000000E+00 0.  1.
     999901    1    3    3    0    0  0.60197225023E-01 -0.63508663703E-01  0.54680364504E-01  0.88602877974E+00  0.88000000000E+00 0. -1.
        -11    1    4    4    0    0 -0.65629126417E-01  0.59603169582E-01 -0.54556562915E-01  0.10409802946E+00  0.51100000000E-03 0. -1.
         11    1    4    4    0    0 -0.19017364629E-01  0.16824746919E-01 -0.45421499618E-02  0.25799699874E-01  0.51100000000E-03 0.  1.
</event>
<event>
 8    1  0.1128298E+005  0.1043930E+01  0.7957747E-01            NaN
         13   -1    0    0    0    0  0.00000000000E+00  0.00000000000E+00  0.74505805969E-08  0.10566000000E+00  0.10566000000E+00 0. -1.
     999900   -1    0    0    0    0 -0.00000000000E+00 -0.00000000000E+00 -0.74505805969E-08  0.93827000000E+00  0.93827000000E+00 0. -1.
     999902    2    1    2    0    0  0.17948285933E-01  0.15198033952E-01 -0.91253437302E-03  0.10203937742E+01  0.10201222969E+01 0.  0.
     999903    2    3    3    0    0  0.14407353754E-01  0.42511219636E-02 -0.12868869600E+00  0.13109117076E+00  0.19961730733E-01 0.  0.
         14    1    1    2    0    0 -0.17948285933E-01 -0.15198033952E-01  0.91253437302E-03  0.23536225758E-01  0.00000000000E+00 0. -1.
     999901    1    3    3    0    0  0.35409321798E-02  0.10946911988E-01  0.12777616162E+00  0.88930260348E+00  0.88000000000E+00 0.  1.
        -11    1    4    4    0    0  0.13965806675E-01 -0.54237797801E-02 -0.87598977614E-01  0.88872398095E-01  0.51100000000E-03 0. -1.
         11    1    4    4    0    0  0.44154707856E-03  0.96749017438E-02 -0.41089718382E-01  0.42218772664E-01  0.51100000000E-03 0.  1.
</event>
<event>
 8    1  0.1128298E+005  0.1043930E+01  0.7957747E-01            NaN
         13   -1    0    0    0    0  0.00000000000E+00  0.00000000000E+00  0.74505805969E-08  0.10566000000E+00  0.10566000000E+00 0.  1.
     999900   -1    0    0    0    0 -0.00000000000E+00 -0.00000000000E+00 -0.74505805969E-08  0.93827000000E+00  0.93827000000E+00 0.  1.
     999902    2    1    2    0    0  0.13299066773E-01  0.87588433180E-02  0.17679273482E-01  0.10201363197E+01  0.10198587998E+01 0.  0.
     999903    2    3    3    0    0  0.78679606517E-01  0.31612257140E-02 -0.10119092180E+00  0.12972289230E+00  0.19696504825E-01 0.  0.
         14    1    1    2    0    0 -0.13299066773E-01 -0.87588433180E-02 -0.17679273482E-01  0.23793680341E-01  0.00000000000E+00 0. -1.
     999901    1    3    3    0    0 -0.65380539744E-01  0.55976176041E-02  0.11887019528E+00  0.89041342736E+00  0.88000000000E+00 0. -1.
        -11    1    4    4    0    0  0.51743089522E-01 -0.73006006187E-02 -0.64192078484E-01  0.82773970206E-01  0.51100000000E-03 0. -1.
         11    1    4    4    0    0  0.26936516995E-01  0.10461826333E-01 -0.36998843313E-01  0.46948922092E-01  0.51100000000E-03 0.  1.
</event>
<event>
 8    1  0.1128298E+005  0.1043930E+01  0.7957747E-01            NaN
         13   -1    0    0    0    0  0.00000000000E+00  0.00000000000E+00  0.74505805969E-08  0.10566000000E+00  0.10566000000E+00 0.  1.
     999900   -1    0    0    0    0 -0.00000000000E+00 -0.00000000000E+00 -0.74505805969E-08  0.93827000000E+00  0.93827000000E+00 0.  1.
     999902    2    1    2    0    0  0.21244715572E-01 -0.65548663213E-02  0.55460569954E-02  0.10210157477E+01  0.10207585875E+01 0.  0.
     999903    2    3    3    0    0 -0.74352967842E-01  0.11966068294E-01 -0.10292077561E+00  0.12902527917E+00  0.19577691264E-01 0.  0.
         14    1    1    2    0    0 -0.21244715572E-01  0.65548663213E-02 -0.55460569954E-02  0.22914252343E-01  0.00000000000E+00 0. -1.
     999901    1    3    3    0    0  0.95597683414E-01 -0.18520934615E-01  0.10846683261E+00  0.89199046849E+00  0.88000000000E+00 0. -1.
        -11    1    4    4    0    0 -0.29857824297E-01 -0.37236481712E-02 -0.32860022273E-01  0.44557798557E-01  0.51100000000E-03 0.  1.
         11    1    4    4    0    0 -0.44495143545E-01  0.15689716465E-01 -0.70060753340E-01  0.84467480615E-01  0.51100000000E-03 0. -1.
</event>
<event>
 8    1  0.1128298E+005  0.1043930E+01  0.7957747E-01            NaN
         13   -1    0    0    0    0  0.00000000000E+00  0.00000000000E+00  0.74505805969E-08  0.10566000000E+00  0.10566000000E+00 0. -1.
     999900   -1    0    0    0    0 -0.00000000000E+00 -0.00000000000E+00 -0.74505805969E-08  0.93827000000E+00  0.93827000000E+00 0.  1.
     999902    2    1    2    0    0  0.44473841353E-02 -0.20523611648E-01 -0.11708435721E-01  0.10198865949E+01  0.10196031489E+01 0.  0.
     999903    2    3    3    0    0 -0.33209688690E-01 -0.10379481707E+00  0.70552783299E-01  0.13133774599E+00  0.19891224639E-01 0.  0.
         14    1    1    2    0    0 -0.44473841353E-02  0.20523611648E-01  0.11708435721E-01  0.24043405079E-01  0.00000000000E+00 0. -1.
     999901    1    3    3    0    0  0.37657072826E-01  0.83271205417E-01 -0.82261219020E-01  0.88854884893E+00  0.88000000000E+00 0.  1.
        -11    1    4    4    0    0 -0.22621720589E-01 -0.72149871538E-01  0.37639515257E-01  0.84465024923E-01  0.51100000000E-03 0. -1.
         11    1    4    4    0    0 -0.10587968101E-01 -0.31644945527E-01  0.32913268042E-01  0.46872721066E-01  0.51100000000E-03 0.  1.
</event>
<event>
 8    1  0.1128298E+005  0.1043930E+01  0.7957747E-01            NaN
         13   -1    0    0    0    0  0.00000000000E+00  0.00000000000E+00  0.74505805969E-08  0.10566000000E+00  0.10566000000E+00 0.  1.
     999900   -1    0    0    0    0 -0.00000000000E+00 -0.00000000000E+00 -0.74505805969E-08  0.93827000000E+00  0.93827000000E+00 0. -1.
     999902    2    1    2    0    0  0.79085943492E-04 -0.20145885223E-01 -0.10970372420E-01  0.10209906884E+01  0.10207329591E+01 0.  0.
     999903    2    3    3    0    0  0.70862860116E-01  0.10491899161E+00  0.12088870274E-01  0.12903592789E+00  0.21785090282E-01 0.  0.
         14    1    1    2    0    0 -0.79085943492E-04  0.20145885223E-01  0.10970372420E-01  0.22939311608E-01  0.00000000000E+00 0.  1.
     999901    1    3    3    0    0 -0.70783774172E-01 -0.12506487683E+00 -0.23059242695E-01  0.89195476050E+00  0.88000000000E+00 0. -1.
        -11    1    4    4    0    0  0.57843247105E-01  0.69892708370E-01  0.40857687016E-02  0.90817325141E-01  0.51100000000E-03 0. -1.
         11    1    4    4    0    0  0.13019613011E-01  0.35026283239E-01  0.80031015726E-02  0.38218602752E-01  0.51100000000E-03 0.  1.
</event>
<event>
 8    1  0.1128298E+005  0.1043930E+01  0.7957747E-01            NaN
         13   -1    0    0    0    0  0.00000000000E+00  0.00000000000E+00  0.74505805969E-08  0.10566000000E+00  0.10566000000E+00 0. -1.
     999900   -1    0    0    0    0 -0.00000000000E+00 -0.00000000000E+00 -0.74505805969E-08  0.93827000000E+00  0.93827000000E+00 0. -1.
     999902    2    1    2    0    0 -0.12533787140E-02  0.11846886998E-01  0.20285413232E-01  0.10204051689E+01  0.10201339574E+01 0.  0.
     999903    2    3    3    0    0 -0.44367337505E-01  0.10967944819E+00  0.57777423837E-01  0.13314214455E+00  0.19762539204E-01 0.  0.
         14    1    1    2    0    0  0.12533787140E-02 -0.11846886998E-01 -0.20285413232E-01  0.23524831131E-01  0.00000000000E+00 0.  1.
     999901    1    3    3    0    0  0.43113958791E-01 -0.97832561195E-01 -0.37492010605E-01  0.88726302432E+00  0.88000000000E+00 0.  1.
        -11    1    4    4    0    0 -0.27285915561E-01  0.87148376399E-01  0.39689834185E-01  0.99573614757E-01  0.51100000000E-03 0. -1.
         11    1    4    4    0    0 -0.17081421944E-01  0.22531071794E-01  0.18087589651E-01  0.33568529789E-01  0.51100000000E-03 0.  1.
</event>
<event>
 8    1  0.1128298E+005  0.1043930E+01  0.7957747E-01            NaN
         13   -1    0    0    0    0  0.00000000000E+00  0.00000000000E+00  0.74505805969E-08  0.10566000000E+00  0.10566000000E+00 0.  1.
     999900   -1    0    0    0    0 -0.00000000000E+00 -0.00000000000E+00 -0.74505805969E-08  0.93827000000E+00  0.93827000000E+00 0.  1.
     999902    2    1    2    0    0 -0.19444696857E-01 -0.12191400994E-01 -0.10607309348E-02  0.10209549778E+01  0.10206964363E+01 0.  0.
     999903    2    3    3    0    0  0.12162987901E+00  0.66958389664E-02 -0.36794038798E-01  0.12880273012E+00  0.19941922377E-01 0.  0.
         14    1    1    2    0    0  0.19444696857E-01  0.12191400994E-01  0.10607309348E-02  0.22975022180E-01  0.00000000000E+00 0. -1.
     999901    1    3    3    0    0 -0.14107457586E+00 -0.18887239960E-01  0.35733307864E-01  0.89215224770E+00  0.88000000000E+00 0. -1.
        -11    1    4    4    0    0  0.95733022402E-01  0.90247982327E-03 -0.21335011035E-01  0.98087052483E-01  0.51100000000E-03 0.  1.
         11    1    4    4    0    0  0.25896856605E-01  0.57933591432E-02 -0.15459027763E-01  0.30715677635E-01  0.51100000000E-03 0. -1.
</event>
<event>
 8    1  0.1128298E+005  0.1043930E+01  0.7957747E-01            NaN
         13   -1    0    0    0    0  0.00000000000E+00  0.00000000000E+00  0.74505805969E-08  0.10566000000E+00  0.10566000000E+00 0. -1.
     999900   -1    0    0    0    0 -0.00000000000E+00 -0.00000000000E+00 -0.74505805969E-08  0.93827000000E+00  0.93827000000E+00 0. -1.
     999902    2    1    2    0    0 -0.98283466287E-02 -0.15072791633E-01  0.34811870377E-02  0.10256023131E+01  0.10254385406E+01 0.  0.
     999903    2    3    3    0    0  0.92347889943E-01 -0.80668298477E-01  0.55406157229E-01  0.13574897888E+00  0.17956498876E-01 0.  0.
         14    1    1    2    0    0  0.98283466287E-02  0.15072791633E-01 -0.34811870377E-02  0.18327686931E-01  0.00000000000E+00 0.  1.
     999901    1    3    3    0    0 -0.10217623657E+00  0.65595506844E-01 -0.51924970191E-01  0.88985333419E+00  0.88000000000E+00 0. -1.
        -11    1    4    4    0    0  0.54754112873E-01 -0.36169127263E-01  0.31228610100E-01  0.72675345567E-01  0.51100000000E-03 0. -1.
         11    1    4    4    0    0  0.37593777070E-01 -0.44499171213E-01  0.24177547129E-01  0.63073633312E-01  0.51100000000E-03 0.  1.
</event>
<event>
 8    1  0.1128298E+005  0.1043930E+01  0.7957747E-01            NaN
         13   -1    0    0    0    0  0.00000000000E+00  0.00000000000E+00  0.74505805969E-08  0.10566000000E+00  0.10566000000E+00 0.  1.
     999900   -1    0    0    0    0 -0.00000000000E+00 -0.00000000000E+00 -0.74505805969E-08  0.93827000000E+00  0.93827000000E+00 0.  1.
     999902    2    1    2    0    0  0.63189076443E-02 -0.12245938188E-01 -0.18660096128E-01  0.10207332161E+01  0.10204696015E+01 0.  0.
     999903    2    3    3    0    0  0.28581834978E-01 -0.10638828078E+00  0.68484222457E-01  0.13115323045E+00  0.19382815938E-01 0.  0.
         14    1    1    2    0    0 -0.63189076443E-02  0.12245938188E-01  0.18660096128E-01  0.23196783902E-01  0.00000000000E+00 0.  1.
     999901    1    3    3    0    0 -0.22262927334E-01  0.94142342594E-01 -0.87144318584E-01  0.88957998565E+00  0.88000000000E+00 0.  1.
        -11    1    4    4    0    0  0.64715671104E-02 -0.49463638283E-01  0.22607881925E-01  0.54771435431E-01  0.51100000000E-03 0.  1.
         11    1    4    4    0    0  0.22110267868E-01 -0.56924642499E-01  0.45876340532E-01  0.76381795020E-01  0.51100000000E-03 0. -1.
</event>
<event>
 8    1  0.1128298E+005  0.1043930E+01  0.7957747E-01            NaN
         13   -1    0    0    0    0  0.00000000000E+00  0.00000000000E+00  0.74505805969E-08  0.10566000000E+00  0.10566000000E+00 0.  1.
     999900   -1    0    0    0    0 -0.00000000000E+00 -0.00000000000E+00 -0.74505805969E-08  0.93827000000E+00  0.93827000000E+00 0.  1.
     999902    2    1    2    0    0  0.18518091948E-01  0.58603250838E-02  0.12462013618E-01  0.10208526318E+01  0.10205917553E+01 0.  0.
     999903    2    3    3    0    0  0.10193294498E+00 -0.62013542223E-01  0.56278357572E-01  0.13322389659E+00  0.18583551900E-01 0.  0.
         14    1    1    2    0    0 -0.18518091948E-01 -0.58603250838E-02 -0.12462013618E-01  0.23077368197E-01  0.00000000000E+00 0. -1.
     999901    1    3    3    0    0 -0.83414853034E-01  0.67873867307E-01 -0.43816343954E-01  0.88762873521E+00  0.88000000000E+00 0. -1.
        -11    1    4    4    0    0  0.18800511911E-01 -0.16453540544E-01  0.51441089969E-02  0.25512765881E-01  0.51100000000E-03 0.  1.
         11    1    4    4    0    0  0.83132433071E-01 -0.45560001679E-01  0.51134248575E-01  0.10771113071E+00  0.51100000000E-03 0. -1.
</event>
<event>
 8    1  0.1128298E+005  0.1043930E+01  0.7957747E-01            NaN
         13   -1    0    0    0    0  0.00000000000E+00  0.00000000000E+00  0.74505805969E-08  0.10566000000E+00  0.10566000000E+00 0.  1.
     999900   -1    0    0    0    0 -0.00000000000E+00 -0.00000000000E+00 -0.74505805969E-08  0.93827000000E+00  0.93827000000E+00 0.  1.
     999902    2    1    2    0    0  0.13248128076E-01  0.17933058015E-01  0.14421413479E-01  0.10173765702E+01  0.10170299902E+01 0.  0.
     999903    2    3    3    0    0  0.99011206550E-01  0.14376699256E-01 -0.77877506113E-01  0.12839566834E+00  0.20264086119E-01 0.  0.
         14    1    1    2    0    0 -0.13248128076E-01 -0.17933058015E-01 -0.14421413479E-01  0.26553429798E-01  0.00000000000E+00 0.  1.
     999901    1    3    3    0    0 -0.85763078474E-01  0.35563587593E-02  0.92298919592E-01  0.88898090186E+00  0.88000000000E+00 0. -1.
        -11    1    4    4    0    0  0.17296437384E-01  0.95913040463E-02 -0.10634879097E-01  0.22461559026E-01  0.51100000000E-03 0.  1.
         11    1    4    4    0    0  0.81714769166E-01  0.47853952092E-02 -0.67242627016E-01  0.10593410931E+00  0.51100000000E-03 0. -1.
</event>
<event>
 8    1  0.1128298E+005  0.1043930E+01  0.7957747E-01            NaN
         13   -1    0    0    0    0  0.00000000000E+00  0.00000000000E+00  0.74505805969E-08  0.10566000000E+00  0.10566000000E+00 0. -1.
     999900   -1    0    0    0    0 -0.00000000000E+00 -0.00000000000E+00 -0.74505805969E-08  0.93827000000E+00  0.93827000000E+00 0.  1.
     999902    2    1    2    0    0 -0.13553554021E-01 -0.10606394117E-01 -0.16695034329E-01  0.10199525399E+01  0.10196706650E+01 0.  0.
     999903    2    3    3    0    0  0.50712369185E-01  0.10149870437E+00  0.54427459009E-01  0.12767675793E+00  0.21570230521E-01 0.  0.
         14    1    1    2    0    0  0.13553554021E-01  0.10606394117E-01  0.16695034329E-01  0.23977460124E-01  0.00000000000E+00 0. -1.
     999901    1    3    3    0    0 -0.64265923206E-01 -0.11210509848E+00 -0.71122493338E-01  0.89227578195E+00  0.88000000000E+00 0.  1.
        -11    1    4    4    0    0  0.82325358208E-02  0.79696248390E-02  0.11807177744E-01  0.16460866727E-01  0.51100000000E-03 0.  1.
         11    1    4    4    0    0  0.42479833364E-01  0.93529079527E-01  0.42620281266E-01  0.11121589120E+00  0.51100000000E-03 0. -1.
</event>
<event>
 8    1  0.1128298E+005  0.1043930E+01  0.7957747E-01            NaN
         13   -1    0    0    0    0  0.00000000000E+00  0.00000000000E+00  0.74505805969E-08  0.10566000000E+00  0.10566000000E+00 0.  1.
     999900   -1    0    0    0    0 -0.00000000000E+00 -0.00000000000E+00 -0.74505805969E-08  0.93827000000E+00  0.93827000000E+00 0. -1.
     999902    2    1    2    0    0 -0.23067935809E-01  0.49908819509E-03 -0.10421047267E-01  0.10186124769E+01  0.10182977959E+01 0.  0.
     999903    2    3    3    0    0  0.10408084165E+00  0.59048560154E-02  0.68095663029E-01  0.12599783004E+00  0.19254737816E-01 0.  0.
         14    1    1    2    0    0  0.23067935809E-01 -0.49908819509E-03  0.10421047267E-01  0.25317523135E-01  0.00000000000E+00 0.  1.
     999901    1    3    3    0    0 -0.12714877746E+00 -0.54057678203E-02 -0.78516710296E-01  0.89261464683E+00  0.88000000000E+00 0.  1.
        -11    1    4    4    0    0  0.43584207795E-01  0.10553514146E-01  0.23018536311E-01  0.50409066296E-01  0.51100000000E-03 0.  1.
         11    1    4    4    0    0  0.60496633853E-01 -0.46486581304E-02  0.45077126718E-01  0.75588763742E-01  0.51100000000E-03 0. -1.
</event>
<event>
 8    1  0.1128298E+005  0.1043930E+01  0.7957747E-01            NaN
         13   -1    0    0    0    0  0.00000000000E+00  0.00000000000E+00  0.74505805969E-08  0.10566000000E+00  0.10566000000E+00 0. -1.
     999900   -1    0    0    0    0 -0.00000000000E+00 -0.00000000000E+00 -0.74505805969E-08  0.93827000000E+00  0.93827000000E+00 0.  1.
     999902    2    1    2    0    0  0.18308251060E-01 -0.18878325573E-01  0.42761207964E-02  0.10172866436E+01  0.10169376808E+01 0.  0.
     999903    2    3    3    0    0 -0.54371809227E-02  0.47829306666E-01  0.11620445723E+00  0.12737557708E+00  0.20096174890E-01 0.  0.
         14    1    1    2    0    0 -0.18308251060E-01  0.18878325573E-01 -0.42761207964E-02  0.26643356440E-01  0.00000000000E+00 0. -1.
     999901    1    3    3    0    0  0.23745431983E-01 -0.66707632239E-01 -0.11192833643E+00  0.88991106648E+00  0.88000000000E+00 0.  1.
        -11    1    4    4    0    0  0.64790577673E-03  0.10897296523E-01  0.51289259248E-01  0.52440633945E-01  0.51100000000E-03 0.  1.
         11    1    4    4    0    0 -0.60850866994E-02  0.36932010143E-01  0.64915197981E-01  0.74934943139E-01  0.51100000000E-03 0. -1.
</event>
<event>
 8    1  0.1128298E+005  0.1043930E+01  0.7957747E-01            NaN
         13   -1    0    0    0    0  0.00000000000E+00  0.00000000000E+00  0.74505805969E-08  0.10566000000E+00  0.10566000000E+00 0. -1.
     999900   -1    0    0    0    0 -0.00000000000E+00 -0.00000000000E+00 -0.74505805969E-08  0.93827000000E+00  0.93827000000E+00 0.  1.
     999902    2    1    2    0    0 -0.55242763860E-02 -0.23221311885E-01 -0.52436624901E-02  0.10194914454E+01  0.10191984911E+01 0.  0.
     999903    2    3    3    0    0 -0.11867633313E-01  0.11042322101E+00 -0.59357859552E-01  0.12773506292E+00  0.21418738297E-01 0.  0.
         14    1    1    2    0    0  0.55242763860E-02  0.23221311885E-01  0.52436624901E-02  0.24438554612E-01  0.00000000000E+00 0.  1.
     999901    1    3    3    0    0  0.63433569269E-02 -0.13364453289E+00  0.54114197062E-01  0.89175638247E+00  0.88000000000E+00 0. -1.
        -11    1    4    4    0    0  0.44386155921E-02  0.54333897384E-01 -0.25112650342E-01  0.60023162541E-01  0.51100000000E-03 0.  1.
         11    1    4    4    0    0 -0.16306248905E-01  0.56089323624E-01 -0.34245209210E-01  0.67711900378E-01  0.51100000000E-03 0. -1.
</event>
<event>
 8    1  0.1128298E+005  0.1043930E+01  0.7957747E-01            NaN
         13   -1    0    0    0    0  0.00000000000E+00  0.00000000000E+00  0.74505805969E-08  0.10566000000E+00  0.10566000000E+00 0.  1.
     999900   -1    0    0    0    0 -0.00000000000E+00 -0.00000000000E+00 -0.74505805969E-08  0.93827000000E+00  0.93827000000E+00 0. -1.
     999902    2    1    2    0    0  0.20380476729E-01 -0.74990320154E-02  0.10200371824E-01  0.10199373574E+01  0.10196551212E+01 0.  0.
     999903    2    3    3    0    0 -0.27330769773E-01 -0.10544927743E+00  0.70564115039E-01  0.13116607350E+00  0.18939995243E-01 0.  0.
         14    1    1    2    0    0 -0.20380476729E-01  0.74990320154E-02 -0.10200371824E-01  0.23992642585E-01  0.00000000000E+00 0. -1.
     999901    1    3    3    0    0  0.47711246502E-01  0.97950245410E-01 -0.60363743216E-01  0.88877128392E+00  0.88000000000E+00 0. -1.
        -11    1    4    4    0    0  0.17644588376E-02 -0.23952029448E-01  0.16017572909E-01  0.28872769049E-01  0.51100000000E-03 0. -1.
         11    1    4    4    0    0 -0.29095228611E-01 -0.81497247977E-01  0.54546542131E-01  0.10229330445E+00  0.51100000000E-03 0.  1.
</event>
<event>
 8    1  0.1128298E+005  0.1043930E+01  0.7957747E-01            NaN
         13   -1    0    0    0    0  0.00000000000E+00  0.00000000000E+00  0.74505805969E-08  0.10566000000E+00  0.10566000000E+00 0. -1.
     999900   -1    0    0    0    0 -0.00000000000E+00 -0.00000000000E+00 -0.74505805969E-08  0.93827000000E+00  0.93827000000E+00 0. -1.
     999902    2    1    2    0    0  0.24381302252E-02  0.17551646293E-01  0.17314538374E-01  0.10191550529E+01  0.10188538775E+01 0.  0.
     999903    2    3    3    0    0 -0.78147454118E-01  0.98778787609E-01  0.32509872936E-01  0.13161757023E+00  0.20050423617E-01 0.  0.
         14    1    1    2    0    0 -0.24381302252E-02 -0.17551646293E-01 -0.17314538374E-01  0.24774947138E-01  0.00000000000E+00 0.  1.
     999901    1    3    3    0    0  0.80585584343E-01 -0.81227141316E-01 -0.15195334561E-01  0.88753748264E+00  0.88000000000E+00 0.  1.
        -11    1    4    4    0    0 -0.26340744939E-01  0.45547960503E-01  0.70216717143E-02  0.53084993592E-01  0.51100000000E-03 0. -1.
         11    1    4    4    0    0 -0.51806709179E-01  0.53230827106E-01  0.25488201221E-01  0.78532576634E-01  0.51100000000E-03 0.  1.
</event>
<event>
 8    1  0.1128298E+005  0.1043930E+01  0.7957747E-01            NaN
         13   -1    0    0    0    0  0.00000000000E+00  0.00000000000E+00  0.74505805969E-08  0.10566000000E+00  0.10566000000E+00 0. -1.
     999900   -1    0    0    0    0 -0.00000000000E+00 -0.00000000000E+00 -0.74505805969E-08  0.93827000000E+00  0.93827000000E+00 0. -1.
     999902    2    1    2    0    0  0.19548636836E-01 -0.16254421002E-01  0.10277096973E-01  0.10165078534E+01  0.10161379049E+01 0.  0.
     999903    2    3    3    0    0 -0.51256066684E-01  0.10890315662E+00 -0.23024479703E-01  0.12421489682E+00  0.20301035243E-01 0.  0.
         14    1    1    2    0    0 -0.19548636836E-01  0.16254421002E-01 -0.10277096973E-01  0.27422146642E-01  0.00000000000E+00 0.  1.
     999901    1    3    3    0    0  0.70804703521E-01 -0.12515757763E+00  0.33301576676E-01  0.89229295654E+00  0.88000000000E+00 0.  1.
        -11    1    4    4    0    0 -0.18495544261E-01  0.60976466160E-01 -0.78110064379E-02  0.64198812493E-01  0.51100000000E-03 0. -1.
         11    1    4    4    0    0 -0.32760522423E-01  0.47926690463E-01 -0.15213473265E-01  0.60016084327E-01  0.51100000000E-03 0.  1.
</event>
<event>
 8    1  0.1128298E+005  0.1043930E+01  0.7957747E-01            NaN
         13   -1    0    0    0    0  0.00000000000E+00  0.00000000000E+00  0.74505805969E-08  0.10566000000E+00  0.10566000000E+00 0.  1.
     999900   -1    0    0    0    0 -0.00000000000E+00 -0.00000000000E+00 -0.74505805969E-08  0.93827000000E+00  0.93827000000E+00 0.  1.
     999902    2    1    2    0    0 -0.20184561915E-01  0.15813053723E-02 -0.12087950099E-01  0.10203495928E+01  0.10200770833E+01 0.  0.
     999903    2    3    3    0    0  0.18837987548E-01 -0.11334676158E+00 -0.58339194779E-01  0.13081578367E+00  0.22515538499E-01 0.  0.
         14    1    1    2    0    0  0.20184561915E-01 -0.15813053723E-02  0.12087950099E-01  0.23580407205E-01  0.00000000000E+00 0. -1.
     999901    1    3    3    0    0 -0.39022549463E-01  0.11492806695E+00  0.46251244680E-01  0.88953380912E+00  0.88000000000E+00 0. -1.
        -11    1    4    4    0    0  0.10826952496E-01 -0.17647318966E-01 -0.14277836056E-01  0.25154889992E-01  0.51100000000E-03 0.  1.
         11    1    4    4    0    0  0.80110350523E-02 -0.95699442615E-01 -0.44061358723E-01  0.10566089368E+00  0.51100000000E-03 0. -1.
</event>
<event>
 8    1  0.1128298E+005  0.1043930E+01  0.7957747E-01            NaN
         13   -1    0    0    0    0  0.00000000000E+00  0.00000000000E+00  0.74505805969E-08  0.10566000000E+00  0.10566000000E+00 0. -1.
     999900   -1    0    0    0    0 -0.00000000000E+00 -0.00000000000E+00 -0.74505805969E-08  0.93827000000E+00  0.93827000000E+00 0.  1.
     999902    2    1    2    0    0  0.96295533200E-02  0.21751340964E-01  0.39073357873E-02  0.10198236439E+01  0.10195386939E+01 0.  0.
     999903    2    3    3    0    0  0.19441133785E-01 -0.12140342272E+00 -0.29661047697E-01  0.12757009819E+00  0.16661436690E-01 0.  0.
         14    1    1    2    0    0 -0.96295533200E-02 -0.21751340964E-01 -0.39073357873E-02  0.24106356088E-01  0.00000000000E+00 0.  1.
     999901    1    3    3    0    0 -0.98115804648E-02  0.14315476368E+00  0.33568383484E-01  0.89225354572E+00  0.88000000000E+00 0. -1.
        -11    1    4    4    0    0  0.83893499040E-02 -0.16916596409E-01 -0.25760670334E-02  0.19064355962E-01  0.51100000000E-03 0. -1.
         11    1    4    4    0    0  0.11051783881E-01 -0.10448682631E+00 -0.27084980664E-01  0.10850574223E+00  0.51100000000E-03 0.  1.
</event>
<event>
 8    1  0.1128298E+005  0.1043930E+01  0.7957747E-01            NaN
         13   -1    0    0    0    0  0.00000000000E+00  0.00000000000E+00  0.74505805969E-08  0.10566000000E+00  0.10566000000E+00 0.  1.
     999900   -1    0    0    0    0 -0.00000000000E+00 -0.00000000000E+00 -0.74505805969E-08  0.93827000000E+00  0.93827000000E+00 0.  1.
     999902    2    1    2    0    0 -0.21183591638E-02 -0.23479328450E-01 -0.49619817678E-02  0.10198387656E+01  0.10195541772E+01 0.  0.
     999903    2    3    3    0    0 -0.33552997386E-01  0.57898555591E-01  0.10777138600E+00  0.12836845839E+00  0.19640343618E-01 0.  0.
         14    1    1    2    0    0  0.21183591638E-02  0.23479328450E-01  0.49619817678E-02  0.24091234362E-01  0.00000000000E+00 0. -1.
     999901    1    3    3    0    0  0.31434638222E-01 -0.81377884042E-01 -0.11273336776E+00  0.89147030724E+00  0.88000000000E+00 0.  1.
        -11    1    4    4    0    0 -0.16525570325E-01  0.27899399685E-01  0.70386290074E-01  0.77498141453E-01  0.51100000000E-03 0.  1.
         11    1    4    4    0    0 -0.17027427061E-01  0.29999155906E-01  0.37385095923E-01  0.50870316940E-01  0.51100000000E-03 0. -1.
</event>
<event>
 8    1  0.1128298E+005  0.1043930E+01  0.7957747E-01            NaN
         13   -1    0    0    0    0  0.00000000000E+00  0.00000000000E+00  0.74505805969E-08  0.10566000000E+00  0.10566000000E+00 0.  1.
     999900   -1    0    0    0    0 -0.00000000000E+00 -0.00000000000E+00 -0.74505805969E-08  0.93827000000E+00  0.93827000000E+00 0.  1.
     999902    2    1    2    0    0  0.19830520362E-01 -0.15294750376E-01 -0.15570109824E-03  0.10188859754E+01  0.10185781402E+01 0.  0.
     999903    2    3    3    0    0  0.10760506761E+00 -0.69223435978E-01 -0.27934882354E-01  0.13244119018E+00  0.19737693372E-01 0.  0.
         14    1    1    2    0    0 -0.19830520362E-01  0.15294750376E-01  0.15570109824E-03  0.25044024631E-01  0.00000000000E+00 0.  1.
     999901    1    3    3    0    0 -0.87774547251E-01  0.53928685602E-01  0.27779181256E-01  0.88644478519E+00  0.88000000000E+00 0. -1.
        -11    1    4    4    0    0  0.72774002995E-01 -0.52568182460E-01 -0.27260637662E-01  0.93823626053E-01  0.51100000000E-03 0.  1.
         11    1    4    4    0    0  0.34831064619E-01 -0.16655253518E-01 -0.67424469171E-03  0.38617564127E-01  0.51100000000E-03 0. -1.
</event>
<event>
 8    1  0.1128298E+005  0.1043930E+01  0.7957747E-01            NaN
         13   -1    0    0    0    0  0.00000000000E+00  0.00000000000E+00  0.74505805969E-08  0.10566000000E+00  0.10566000000E+00 0. -1.
     999900   -1    0    0    0    0 -0.00000000000E+00 -0.00000000000E+00 -0.74505805969E-08  0.93827000000E+00  0.93827000000E+00 0.  1.
     999902    2    1    2    0    0 -0.18929179186E-01  0.32759044952E-03 -0.14190569884E-01  0.10202700462E+01  0.10199956734E+01 0.  0.
     999903    2    3    3    0    0  0.38150767262E-01  0.11071762164E+00  0.50647763979E-01  0.12917628637E+00  0.20185246558E-01 0.  0.
         14    1    1    2    0    0  0.18929179186E-01 -0.32759044952E-03  0.14190569884E-01  0.23659953799E-01  0.00000000000E+00 0.  1.
     999901    1    3    3    0    0 -0.57079946449E-01 -0.11039003119E+00 -0.64838333862E-01  0.89109375983E+00  0.88000000000E+00 0. -1.
        -11    1    4    4    0    0  0.13270191426E-01  0.57973702694E-01  0.34085057666E-01  0.68549985132E-01  0.51100000000E-03 0.  1.
         11    1    4    4    0    0  0.24880575837E-01  0.52743918951E-01  0.16562706313E-01  0.60626301237E-01  0.51100000000E-03 0. -1.
</event>
<event>
 8    1  0.1128298E+005  0.1043930E+01  0.7957747E-01            NaN
         13   -1    0    0    0    0  0.00000000000E+00  0.00000000000E+00  0.74505805969E-08  0.10566000000E+00  0.10566000000E+00 0. -1.
     999900   -1    0    0    0    0 -0.00000000000E+00 -0.00000000000E+00 -0.74505805969E-08  0.93827000000E+00  0.93827000000E+00 0. -1.
     999902    2    1    2    0    0 -0.71766422394E-02  0.21224994442E-01  0.78765274736E-02  0.10201803838E+01  0.10199039030E+01 0.  0.
     999903    2    3    3    0    0 -0.11158159824E+00 -0.40332572387E-01 -0.49252678610E-01  0.13003799351E+00  0.20171364431E-01 0.  0.
         14    1    1    2    0    0  0.71766422394E-02 -0.21224994442E-01 -0.78765274736E-02  0.23749616164E-01  0.00000000000E+00 0.  1.
     999901    1    3    3    0    0  0.10440495600E+00  0.61557566830E-01  0.57129206084E-01  0.89014239033E+00  0.88000000000E+00 0.  1.
        -11    1    4    4    0    0 -0.68991620418E-01 -0.33732051313E-01 -0.26102271776E-01  0.81112789907E-01  0.51100000000E-03 0.  1.
         11    1    4    4    0    0 -0.42589977826E-01 -0.66005210739E-02 -0.23150406835E-01  0.48925203600E-01  0.51100000000E-03 0. -1.
</event>
<event>
 8    1  0.1128298E+005  0.1043930E+01  0.7957747E-01            NaN
         13   -1    0    0    0    0  0.00000000000E+00  0.00000000000E+00  0.74505805969E-08  0.10566000000E+00  0.10566000000E+00 0. -1.
     999900   -1    0    0    0    0 -0.00000000000E+00 -0.00000000000E+00 -0.74505805969E-08  0.93827000000E+00  0.93827000000E+00 0. -1.
     999902    2    1    2    0    0 -0.97179884560E-02  0.18749333323E-01 -0.74298260464E-03  0.10227987714E+01  0.10225804604E+01 0.  0.
     999903    2    3    3    0    0 -0.62871675381E-01 -0.10075753223E+00 -0.53014416590E-01  0.13159761106E+00  0.20061779700E-01 0.  0.
         14    1    1    2    0    0  0.97179884560E-02 -0.18749333323E-01  0.74298260464E-03  0.21131228616E-01  0.00000000000E+00 0. -1.
     999901    1    3    3    0    0  0.53153686925E-01  0.11950686555E+00  0.52271433985E-01  0.89120116032E+00  0.88000000000E+00 0. -1.
        -11    1    4    4    0    0 -0.41616839150E-01 -0.50431900245E-01 -0.23357410797E-01  0.69434628416E-01  0.51100000000E-03 0. -1.
         11    1    4    4    0    0 -0.21254836231E-01 -0.50325631985E-01 -0.29657005792E-01  0.62162982646E-01  0.51100000000E-03 0.  1.
</event>
<event>
 8    1  0.1128298E+005  0.1043930E+01  0.7957747E-01            NaN
         13   -1    0    0    0    0  0.00000000000E+00  0.00000000000E+00  0.74505805969E-08  0.10566000000E+00  0.10566000000E+00 0.  1.
     999900   -1    0    0    0    0 -0.00000000000E+00 -0.00000000000E+00 -0.74505805969E-08  0.93827000000E+00  0.93827000000E+00 0.  1.
     999902    2    1    2    0    0  0.20574861884E-01  0.88981356145E-02 -0.54739199813E-02  0.10208547847E+01  0.10205939575E+01 0.  0.
     999903    2    3    3    0    0  0.97843878652E-01 -0.74661386432E-01 -0.46226283525E-01  0.13259049423E+00  0.17193680753E-01 0.  0.
         14    1    1    2    0    0 -0.20574861884E-01 -0.88981356145E-02  0.54739199813E-02  0.23075215252E-01  0.00000000000E+00 0.  1.
     999901    1    3    3    0    0 -0.77269016768E-01  0.83559522047E-01  0.40752363544E-01  0.88826429052E+00  0.88000000000E+00 0. -1.
        -11    1    4    4    0    0  0.47570026798E-01 -0.43428037794E-01 -0.17215400768E-01  0.66674830789E-01  0.51100000000E-03 0. -1.
         11    1    4    4    0    0  0.50273851854E-01 -0.31233348638E-01 -0.29010882757E-01  0.65915663440E-01  0.51100000000E-03 0.  1.
</event>
<event>
 8    1  0.1128298E+005  0.1043930E+01  0.7957747E-01            NaN
         13   -1    0    0    0    0  0.00000000000E+00  0.00000000000E+00  0.74505805969E-08  0.10566000000E+00  0.10566000000E+00 0.  1.
     999900   -1    0    0    0    0 -0.00000000000E+00 -0.00000000000E+00 -0.74505805969E-08  0.93827000000E+00  0.93827000000E+00 0. -1.
     999902    2    1    2    0    0  0.11297115185E-01 -0.18353885744E-01  0.98431989931E-02  0.10202365726E+01  0.10199614138E+01 0.  0.
     999903    2    3    3    0    0  0.10631359387E+00  0.31704770615E-01 -0.65661832077E-01  0.13049784132E+00  0.20259261499E-01 0.  0.
         14    1    1    2    0    0 -0.11297115185E-01  0.18353885744E-01 -0.98431989931E-02  0.23693427355E-01  0.00000000000E+00 0. -1.
     999901    1    3    3    0    0 -0.95016478687E-01 -0.50058656359E-01  0.75505031070E-01  0.88973873132E+00  0.88000000000E+00 0.  1.
        -11    1    4    4    0    0  0.50357260345E-01  0.24346685139E-01 -0.27205523984E-01  0.62201418014E-01  0.51100000000E-03 0.  1.
         11    1    4    4    0    0  0.55956333527E-01  0.73580854763E-02 -0.38456308092E-01  0.68296423309E-01  0.51100000000E-03 0. -1.
</event>
<event>
 8    1  0.1128298E+005  0.1043930E+01  0.7957747E-01            NaN
         13   -1    0    0    0    0  0.00000000000E+00  0.00000000000E+00  0.74505805969E-08  0.10566000000E+00  0.10566000000E+00 0.  1.
     999900   -1    0    0    0    0 -0.00000000000E+00 -0.00000000000E+00 -0.74505805969E-08  0.93827000000E+00  0.93827000000E+00 0.  1.
     999902    2    1    2    0    0 -0.57164564403E-02 -0.73625738795E-02 -0.21954105887E-01  0.10200790433E+01  0.10198001699E+01 0.  0.
     999903    2    3    3    0    0  0.35947009906E-01  0.17825401368E-01 -0.12487381325E+00  0.13274441385E+00  0.20437165141E-01 0.  0.
         14    1    1    2    0    0  0.57164564403E-02  0.73625738795E-02  0.21954105887E-01  0.23850956662E-01  0.00000000000E+00 0.  1.
     999901    1    3    3    0    0 -0.41663466346E-01 -0.25187975248E-01  0.10291970736E+00  0.88733462949E+00  0.88000000000E+00 0. -1.
        -11    1    4    4    0    0  0.12436531578E-01 -0.30530408324E-02 -0.48140795824E-01  0.49817524221E-01  0.51100000000E-03 0.  1.
         11    1    4    4    0    0  0.23510478328E-01  0.20878442201E-01 -0.76733017422E-01  0.82926889629E-01  0.51100000000E-03 0. -1.
</event>
<event>
 8    1  0.1128298E+005  0.1043930E+01  0.7957747E-01            NaN
         13   -1    0    0    0    0  0.00000000000E+00  0.00000000000E+00  0.74505805969E-08  0.10566000000E+00  0.10566000000E+00 0.  1.
     999900   -1    0    0    0    0 -0.00000000000E+00 -0.00000000000E+00 -0.74505805969E-08  0.93827000000E+00  0.93827000000E+00 0. -1.
     999902    2    1    2    0    0 -0.18172735338E-01 -0.48473643102E-02  0.12709974331E-01  0.10212300287E+01  0.10209777092E+01 0.  0.
     999903    2    3    3    0    0 -0.52670390796E-01 -0.59987693132E-01  0.10565248865E+00  0.13394830619E+00  0.20174414004E-01 0.  0.
         14    1    1    2    0    0  0.18172735338E-01  0.48473643102E-02 -0.12709974331E-01  0.22699971320E-01  0.00000000000E+00 0. -1.
     999901    1    3    3    0    0  0.34497655458E-01  0.55140328822E-01 -0.92942514316E-01  0.88728172249E+00  0.88000000000E+00 0. -1.
        -11    1    4    4    0    0 -0.19310816731E-01 -0.33284333365E-01  0.61135889630E-01  0.72239965478E-01  0.51100000000E-03 0. -1.
         11    1    4    4    0    0 -0.33359574065E-01 -0.26703359767E-01  0.44516599017E-01  0.61708340714E-01  0.51100000000E-03 0.  1.
</event>
<event>
 8    1  0.1128298E+005  0.1043930E+01  0.7957747E-01            NaN
         13   -1    0    0    0    0  0.00000000000E+00  0.00000000000E+00  0.74505805969E-08  0.10566000000E+00  0.10566000000E+00 0. -1.
     999900   -1    0    0    0    0 -0.00000000000E+00 -0.00000000000E+00 -0.74505805969E-08  0.93827000000E+00  0.93827000000E+00 0. -1.
     999902    2    1    2    0    0  0.19938588862E-01  0.12308590049E-01 -0.47883436111E-02  0.10200139604E+01  0.10197335449E+01 0.  0.
     999903    2    3    3    0    0  0.12516081862E+00  0.40791889969E-01 -0.50627922537E-02  0.13328790840E+00  0.20268839474E-01 0.  0.
         14    1    1    2    0    0 -0.19938588862E-01 -0.12308590049E-01  0.47883436111E-02  0.23916039583E-01  0.00000000000E+00 0.  1.
     999901    1    3    3    0    0 -0.10522222976E+00 -0.28483299920E-01  0.27444864267E-03  0.88672605202E+00  0.88000000000E+00 0.  1.
        -11    1    4    4    0    0  0.85674107411E-01  0.36952267653E-01 -0.69788959661E-02  0.93565425640E-01  0.51100000000E-03 0. -1.
         11    1    4    4    0    0  0.39486711212E-01  0.38396223168E-02  0.19161037123E-02  0.39722482756E-01  0.51100000000E-03 0.  1.
</event>
<event>
 8    1  0.1128298E+005  0.1043930E+01  0.7957747E-01            NaN
         13   -1    0    0    0    0  0.00000000000E+00  0.00000000000E+00  0.74505805969E-08  0.10566000000E+00  0.10566000000E+00 0. -1.
     999900   -1    0    0    0    0 -0.00000000000E+00 -0.00000000000E+00 -0.74505805969E-08  0.93827000000E+00  0.93827000000E+00 0.  1.
     999902    2    1    2    0    0  0.85636532663E-02 -0.19853544083E-02 -0.21202887238E-01  0.10209769998E+01  0.10207189593E+01 0.  0.
     999903    2    3    3    0    0 -0.78146631665E-01 -0.55164808758E-01  0.82904986727E-01  0.12902118406E+00  0.24963512278E-01 0.  0.
         14    1    1    2    0    0 -0.85636532663E-02  0.19853544083E-02  0.21202887238E-01  0.22953000166E-01  0.00000000000E+00 0. -1.
     999901    1    3    3    0    0  0.86710284931E-01  0.53179454350E-01 -0.10410787396E+00  0.89195581578E+00  0.88000000000E+00 0.  1.
        -11    1    4    4    0    0 -0.55039107876E-01 -0.26462782797E-01  0.42927064469E-01  0.74649690247E-01  0.51100000000E-03 0. -1.
         11    1    4    4    0    0 -0.23107523789E-01 -0.28702025962E-01  0.39977922258E-01  0.54371493809E-01  0.51100000000E-03 0.  1.
</event>
<event>
 8    1  0.1128298E+005  0.1043930E+01  0.7957747E-01            NaN
         13   -1    0    0    0    0  0.00000000000E+00  0.00000000000E+00  0.74505805969E-08  0.10566000000E+00  0.10566000000E+00 0.  1.
     999900   -1    0    0    0    0 -0.00000000000E+00 -0.00000000000E+00 -0.74505805969E-08  0.93827000000E+00  0.93827000000E+00 0. -1.
     999902    2    1    2    0    0  0.15740155123E-01  0.17483144305E-01 -0.32288871763E-02  0.10201847156E+01  0.10199083368E+01 0.  0.
     999903    2    3    3    0    0 -0.96024500573E-01  0.75596079550E-01  0.39774118783E-01  0.13017476622E+00  0.20688578522E-01 0.  0.
         14    1    1    2    0    0 -0.15740155123E-01 -0.17483144305E-01  0.32288871763E-02  0.23745284385E-01  0.00000000000E+00 0. -1.
     999901    1    3    3    0    0  0.11176465570E+00 -0.58112935245E-01 -0.43003005959E-01  0.89000994940E+00  0.88000000000E+00 0.  1.
        -11    1    4    4    0    0 -0.41903970178E-01  0.24366025773E-01  0.78772312313E-02  0.49111687220E-01  0.51100000000E-03 0. -1.
         11    1    4    4    0    0 -0.54120530395E-01  0.51230053777E-01  0.31896887552E-01  0.81063078998E-01  0.51100000000E-03 0.  1.
</event>
<event>
 8    1  0.1128298E+005  0.1043930E+01  0.7957747E-01            NaN
         13   -1    0    0    0    0  0.00000000000E+00  0.00000000000E+00  0.74505805969E-08  0.10566000000E+00  0.10566000000E+00 0. -1.
     999900   -1    0    0    0    0 -0.00000000000E+00 -0.00000000000E+00 -0.74505805969E-08  0.93827000000E+00  0.93827000000E+00 0.  1.
     999902    2    1    2    0    0  0.42455302671E-02 -0.13125474364E-01 -0.24272680706E-01  0.10160110883E+01  0.10156274247E+01 0.  0.
     999903    2    3    3    0    0 -0.27985206713E-01 -0.86735883746E-01 -0.90336976886E-01  0.12988366852E+00  0.20067701184E-01 0.  0.
         14    1    1    2    0    0 -0.42455302671E-02  0.13125474364E-01  0.24272680706E-01  0.27918911747E-01  0.00000000000E+00 0. -1.
     999901    1    3    3    0    0  0.32230736980E-01  0.73610409383E-01  0.66064296180E-01  0.88612741973E+00  0.88000000000E+00 0. -1.
        -11    1    4    4    0    0 -0.82586769566E-02 -0.32858141972E-01 -0.47181879778E-01  0.58088330492E-01  0.51100000000E-03 0.  1.
         11    1    4    4    0    0 -0.19726529757E-01 -0.53877741774E-01 -0.43155097107E-01  0.71795338026E-01  0.51100000000E-03 0. -1.
</event>
<event>
 8    1  0.1128298E+005  0.1043930E+01  0.7957747E-01            NaN
         13   -1    0    0    0    0  0.00000000000E+00  0.00000000000E+00  0.74505805969E-08  0.10566000000E+00  0.10566000000E+00 0. -1.
     999900   -1    0    0    0    0 -0.00000000000E+00 -0.00000000000E+00 -0.74505805969E-08  0.93827000000E+00  0.93827000000E+00 0. -1.
     999902    2    1    2    0    0 -0.18428095720E-01  0.15748024479E-01  0.13237121134E-02  0.10196535258E+01  0.10193644910E+01 0.  0.
     999903    2    3    3    0    0 -0.37541555012E-01 -0.91664301066E-01 -0.80225865868E-01  0.12917440436E+00  0.20931429623E-01 0.  0.
         14    1    1    2    0    0  0.18428095720E-01 -0.15748024479E-01 -0.13237121134E-02  0.24276474221E-01  0.00000000000E+00 0. -1.
     999901    1    3    3    0    0  0.19113459293E-01  0.10741232555E+00  0.81549577981E-01  0.89047912141E+00  0.88000000000E+00 0.  1.
        -11    1    4    4    0    0 -0.20144338048E-01 -0.57166622276E-01 -0.61080638328E-01  0.86051859697E-01  0.51100000000E-03 0. -1.
         11    1    4    4    0    0 -0.17397216965E-01 -0.34497678791E-01 -0.19145227539E-01  0.43122544668E-01  0.51100000000E-03 0.  1.
</event>
<event>
 8    1  0.1128298E+005  0.1043930E+01  0.7957747E-01            NaN
         13   -1    0    0    0    0  0.00000000000E+00  0.00000000000E+00  0.74505805969E-08  0.10566000000E+00  0.10566000000E+00 0.  1.
     999900   -1    0    0    0    0 -0.00000000000E+00 -0.00000000000E+00 -0.74505805969E-08  0.93827000000E+00  0.93827000000E+00 0. -1.
     999902    2    1    2    0    0  0.21857772104E-01 -0.37998781416E-02 -0.86014363219E-02  0.10201353371E+01  0.10198577940E+01 0.  0.
     999903    2    3    3    0    0 -0.32288559309E-01 -0.10171519097E+00 -0.71717998344E-01  0.13080810032E+00  0.24057362441E-01 0.  0.
         14    1    1    2    0    0 -0.21857772104E-01  0.37998781416E-02  0.86014363219E-02  0.23794662890E-01  0.00000000000E+00 0.  1.
     999901    1    3    3    0    0  0.54146331413E-01  0.97915312826E-01  0.63116562022E-01  0.88932723679E+00  0.88000000000E+00 0. -1.
        -11    1    4    4    0    0 -0.15446527287E-01 -0.66172528966E-01 -0.57390153021E-01  0.88945430348E-01  0.51100000000E-03 0. -1.
         11    1    4    4    0    0 -0.16842032022E-01 -0.35542662002E-01 -0.14327845323E-01  0.41862669975E-01  0.51100000000E-03 0.  1.
</event>
<event>
 8    1  0.1128298E+005  0.1043930E+01  0.7957747E-01            NaN
         13   -1    0    0    0    0  0.00000000000E+00  0.00000000000E+00  0.74505805969E-08  0.10566000000E+00  0.10566000000E+00 0.  1.
     999900   -1    0    0    0    0 -0.00000000000E+00 -0.00000000000E+00 -0.74505805969E-08  0.93827000000E+00  0.93827000000E+00 0.  1.
     999902    2    1    2    0    0 -0.11201495596E-01  0.39910943375E-02  0.16553964421E-01  0.10235477510E+01  0.10233447916E+01 0.  0.
     999903    2    3    3    0    0 -0.20872179904E-01  0.63418871112E-01  0.11672281352E+00  0.13582088919E+00  0.19117992527E-01 0.  0.
         14    1    1    2    0    0  0.11201495596E-01 -0.39910943375E-02 -0.16553964421E-01  0.20382249034E-01  0.00000000000E+00 0. -1.
     999901    1    3    3    0    0  0.96706843073E-02 -0.59427776774E-01 -0.10016884910E+00  0.88772686177E+00  0.88000000000E+00 0.  1.
        -11    1    4    4    0    0  0.40054944589E-03  0.17279153569E-01  0.42398031982E-01  0.45788468252E-01  0.51100000000E-03 0.  1.
         11    1    4    4    0    0 -0.21272729349E-01  0.46139717542E-01  0.74324781536E-01  0.90032420940E-01  0.51100000000E-03 0. -1.
</event>
<event>
 8    1  0.1128298E+005  0.1043930E+01  0.7957747E-01            NaN
         13   -1    0    0    0    0  0.00000000000E+00  0.00000000000E+00  0.74505805969E-08  0.10566000000E+00  0.10566000000E+00 0. -1.
     999900   -1    0    0    0    0 -0.00000000000E+00 -0.00000000000E+00 -0.74505805969E-08  0.93827000000E+00  0.93827000000E+00 0.  1.
     999902    2    1    2    0    0 -0.84638429357E-02 -0.16728571268E-01 -0.13741083184E-01  0.10206856652E+01  0.10204209563E+01 0.  0.
     999903    2    3    3    0    0  0.70232914800E-01  0.24470287687E-01 -0.10653463110E+00  0.13135942123E+00  0.19344576018E-01 0.  0.
         14    1    1    2    0    0  0.84638429357E-02  0.16728571268E-01  0.13741083184E-01  0.23244334815E-01  0.00000000000E+00 0. -1.
     999901    1    3    3    0    0 -0.78696757736E-01 -0.41198858955E-01  0.92793547913E-01  0.88932624396E+00  0.88000000000E+00 0. -1.
        -11    1    4    4    0    0  0.51247917984E-01  0.25779106288E-01 -0.73582438136E-01  0.93303524809E-01  0.51100000000E-03 0. -1.
         11    1    4    4    0    0  0.18984996817E-01 -0.13088186017E-02 -0.32952192961E-01  0.38055896419E-01  0.51100000000E-03 0.  1.
</event>
<event>
 8    1  0.1128298E+005  0.1043930E+01  0.7957747E-01            NaN
         13   -1    0    0    0    0  0.00000000000E+00  0.00000000000E+00  0.74505805969E-08  0.10566000000E+00  0.10566000000E+00 0.  1.
     999900   -1    0    0    0    0 -0.00000000000E+00 -0.00000000000E+00 -0.74505805969E-08  0.93827000000E+00  0.93827000000E+00 0.  1.
     999902    2    1    2    0    0 -0.97626528061E-02  0.23969183300E-01  0.44891062617E-02  0.10176624685E+01  0.10173234080E+01 0.  0.
     999903    2    3    3    0    0 -0.91151628877E-03 -0.67369294459E-01 -0.10433214245E+00  0.12622367398E+00  0.22533690959E-01 0.  0.
         14    1    1    2    0    0  0.97626528061E-02 -0.23969183300E-01 -0.44891062617E-02  0.26267531535E-01  0.00000000000E+00 0. -1.
     999901    1    3    3    0    0 -0.88511365173E-02  0.91338477759E-01  0.10882124871E+00  0.89143879448E+00  0.88000000000E+00 0. -1.
        -11    1    4    4    0    0 -0.34333617336E-02  0.15036669165E-03 -0.52225534566E-02  0.62727002592E-02  0.51100000000E-03 0.  1.
         11    1    4    4    0    0  0.25218454448E-02 -0.67519661150E-01 -0.99109588992E-01  0.11995097372E+00  0.51100000000E-03 0. -1.
</event>
<event>
 8    1  0.1128298E+005  0.1043930E+01  0.7957747E-01            NaN
         13   -1    0    0    0    0  0.00000000000E+00  0.00000000000E+00  0.74505805969E-08  0.10566000000E+00  0.10566000000E+00 0.  1.
     999900   -1    0    0    0    0 -0.00000000000E+00 -0.00000000000E+00 -0.74505805969E-08  0.93827000000E+00  0.93827000000E+00 0. -1.
     999902    2    1    2    0    0  0.18547373873E-01 -0.14916979540E-01 -0.61918231936E-02  0.10193360977E+01  0.10190393614E+01 0.  0.
     999903    2    3    3    0    0 -0.72730447736E-01  0.96888523306E-01  0.23543966525E-01  0.12708258642E+00  0.30307778473E-01 0.  0.
         14    1    1    2    0    0 -0.18547373873E-01  0.14916979540E-01  0.61918231936E-02  0.24593902306E-01  0.00000000000E+00 0. -1.
     999901    1    3    3    0    0  0.91277821609E-01 -0.11180550285E+00 -0.29735789719E-01  0.89225351127E+00  0.88000000000E+00 0. -1.
        -11    1    4    4    0    0 -0.11172700174E-01  0.38274802347E-01  0.69341697150E-02  0.40473862609E-01  0.51100000000E-03 0. -1.
         11    1    4    4    0    0 -0.61557747562E-01  0.58613720959E-01  0.16609796810E-01  0.86608723814E-01  0.51100000000E-03 0.  1.
</event>
<event>
 8    1  0.1128298E+005  0.1043930E+01  0.7957747E-01            NaN
         13   -1    0    0    0    0  0.00000000000E+00  0.00000000000E+00  0.74505805969E-08  0.10566000000E+00  0.10566000000E+00 0.  1.
     999900   -1    0    0    0    0 -0.00000000000E+00 -0.00000000000E+00 -0.74505805969E-08  0.93827000000E+00  0.93827000000E+00 0.  1.
     999902    2    1    2    0    0 -0.16137244163E-01  0.66277901610E-02  0.43880683610E-02  0.10259412981E+01  0.10257835804E+01 0.  0.
     999903    2    3    3    0    0 -0.10029369421E+00 -0.68073477342E-01  0.61111545428E-01  0.13696427912E+00  0.18214536916E-01 0.  0.
         14    1    1    2    0    0  0.16137244163E-01 -0.66277901610E-02 -0.43880683610E-02  0.17988701886E-01  0.00000000000E+00 0. -1.
     999901    1    3    3    0    0  0.84156450044E-01  0.74701267503E-01 -0.56723477067E-01  0.88897701899E+00  0.88000000000E+00 0.  1.
        -11    1    4    4    0    0 -0.65558857921E-01 -0.44855823745E-01  0.30176789291E-01  0.84975928996E-01  0.51100000000E-03 0.  1.
         11    1    4    4    0    0 -0.34734836285E-01 -0.23217653597E-01  0.30934756137E-01  0.51988350124E-01  0.51100000000E-03 0. -1.
</event>
<event>
 8    1  0.1128298E+005  0.1043930E+01  0.7957747E-01            NaN
         13   -1    0    0    0    0  0.00000000000E+00  0.00000000000E+00  0.74505805969E-08  0.10566000000E+00  0.10566000000E+00 0.  1.
     999900   -1    0    0    0    0 -0.00000000000E+00 -0.00000000000E+00 -0.74505805969E-08  0.93827000000E+00  0.93827000000E+00 0.  1.
     999902    2    1    2    0    0 -0.10525078937E-01 -0.32613381132E-02  0.20767862806E-01  0.10204200502E+01  0.10201491857E+01 0.  0.
     999903    2    3    3    0    0 -0.72021379569E-01  0.87519872709E-01 -0.60514140419E-01  0.12989785102E+00  0.19096682292E-01 0.  0.
         14    1    1    2    0    0  0.10525078937E-01  0.32613381132E-02 -0.20767862806E-01  0.23509949776E-01  0.00000000000E+00 0. -1.
     999901    1    3    3    0    0  0.61496300633E-01 -0.90781210822E-01  0.81282003225E-01  0.89052219921E+00  0.88000000000E+00 0.  1.
        -11    1    4    4    0    0 -0.26648165521E-01  0.21397606268E-01 -0.12298192415E-01  0.36324770299E-01  0.51100000000E-03 0. -1.
         11    1    4    4    0    0 -0.45373214049E-01  0.66122266441E-01 -0.48215948004E-01  0.93573080719E-01  0.51100000000E-03 0.  1.
</event>
<event>
 8    1  0.1128298E+005  0.1043930E+01  0.7957747E-01            NaN
         13   -1    0    0    0    0  0.00000000000E+00  0.00000000000E+00  0.74505805969E-08  0.10566000000E+00  0.10566000000E+00 0.  1.
     999900   -1    0    0    0    0 -0.00000000000E+00 -0.00000000000E+00 -0.74505805969E-08  0.93827000000E+00  0.93827000000E+00 0. -1.
     999902    2    1    2    0    0  0.39836464864E-02  0.30896916062E-03  0.23037801784E-01  0.10205482718E+01  0.10202803879E+01 0.  0.
     999903    2    3    3    0    0  0.14772103073E-01 -0.54821121053E-01  0.11918557655E+00  0.13353073410E+00  0.20042079496E-01 0.  0.
         14    1    1    2    0    0 -0.39836464864E-02 -0.30896916062E-03 -0.23037801784E-01  0.23381728172E-01  0.00000000000E+00 0. -1.
     999901    1    3    3    0    0 -0.10788456587E-01  0.55130090214E-01 -0.96147774761E-01  0.88701753773E+00  0.88000000000E+00 0. -1.
        -11    1    4    4    0    0 -0.29442651326E-02 -0.43056441652E-02  0.21585252860E-01  0.22212418394E-01  0.51100000000E-03 0.  1.
         11    1    4    4    0    0  0.17716368206E-01 -0.50515476888E-01  0.97600323685E-01  0.11131831571E+00  0.51100000000E-03 0. -1.
</event>
<event>
 8    1  0.1128298E+005  0.1043930E+01  0.7957747E-01            NaN
         13   -1    0    0    0    0  0.00000000000E+00  0.00000000000E+00  0.74505805969E-08  0.10566000000E+00  0.10566000000E+00 0.  1.
     999900   -1    0    0    0    0 -0.00000000000E+00 -0.00000000000E+00 -0.74505805969E-08  0.93827000000E+00  0.93827000000E+00 0. -1.
     999902    2    1    2    0    0  0.15307120879E-01 -0.79030637052E-02  0.16439849869E-01  0.10201175027E+01  0.10198395385E+01 0.  0.
     999903    2    3    3    0    0  0.10983223271E-01 -0.12854182632E+00  0.18583446683E-01  0.13187372861E+00  0.20042542244E-01 0.  0.
         14    1    1    2    0    0 -0.15307120879E-01  0.79030637052E-02 -0.16439849869E-01  0.23812497333E-01  0.00000000000E+00 0. -1.
     999901    1    3    3    0    0  0.43238976080E-02  0.12063876262E+00 -0.21435968135E-02  0.88824377405E+00  0.88000000000E+00 0.  1.
        -11    1    4    4    0    0  0.13303682347E-01 -0.10007639231E+00  0.75065732599E-02  0.10123676222E+00  0.51100000000E-03 0. -1.
         11    1    4    4    0    0 -0.23204590760E-02 -0.28465434014E-01  0.11076873423E-01  0.30636966393E-01  0.51100000000E-03 0.  1.
</event>
<event>
 8    1  0.1128298E+005  0.1043930E+01  0.7957747E-01            NaN
         13   -1    0    0    0    0  0.00000000000E+00  0.00000000000E+00  0.74505805969E-08  0.10566000000E+00  0.10566000000E+00 0.  1.
     999900   -1    0    0    0    0 -0.00000000000E+00 -0.00000000000E+00 -0.74505805969E-08  0.93827000000E+00  0.93827000000E+00 0. -1.
     999902    2    1    2    0    0 -0.37432448138E-02  0.13044453005E-01 -0.18460764915E-01  0.10210177876E+01  0.10207606738E+01 0.  0.
     999903    2    3    3    0    0 -0.47668382158E-02 -0.76932907118E-01  0.10073381788E+00  0.12843483815E+00  0.20169547363E-01 0.  0.
         14    1    1    2    0    0  0.37432448138E-02 -0.13044453005E-01  0.18460764915E-01  0.22912212402E-01  0.00000000000E+00 0.  1.
     999901    1    3    3    0    0  0.10235934020E-02  0.89977360123E-01 -0.11919458280E+00  0.89258294945E+00  0.88000000000E+00 0. -1.
        -11    1    4    4    0    0  0.32168210963E-02 -0.47230385996E-01  0.48226413056E-01  0.67580362063E-01  0.51100000000E-03 0. -1.
         11    1    4    4    0    0 -0.79836593121E-02 -0.29702521121E-01  0.52507404828E-01  0.60854476086E-01  0.51100000000E-03 0.  1.
</event>
<event>
 8    1  0.1128298E+005  0.1043930E+01  0.7957747E-01            NaN
         13   -1    0    0    0    0  0.00000000000E+00  0.00000000000E+00  0.74505805969E-08  0.10566000000E+00  0.10566000000E+00 0.  1.
     999900   -1    0    0    0    0 -0.00000000000E+00 -0.00000000000E+00 -0.74505805969E-08  0.93827000000E+00  0.93827000000E+00 0. -1.
     999902    2    1    2    0    0 -0.51537214227E-02  0.21423582425E-01  0.16938295785E-02  0.10218302311E+01  0.10215912203E+01 0.  0.
     999903    2    3    3    0    0 -0.15381167022E-01 -0.12664760942E+00  0.55742555747E-02  0.12939270596E+00  0.20861513837E-01 0.  0.
         14    1    1    2    0    0  0.51537214227E-02 -0.21423582425E-01 -0.16938295785E-02  0.22099768936E-01  0.00000000000E+00 0. -1.
     999901    1    3    3    0    0  0.10227445600E-01  0.14807119185E+00 -0.38804259962E-02  0.89243752510E+00  0.88000000000E+00 0. -1.
        -11    1    4    4    0    0 -0.20697233719E-02 -0.37470606630E-01 -0.75294829073E-02  0.38279032772E-01  0.51100000000E-03 0. -1.
         11    1    4    4    0    0 -0.13311443651E-01 -0.89177002795E-01  0.13103738482E-01  0.91113673193E-01  0.51100000000E-03 0.  1.
</event>
<event>
 8    1  0.1128298E+005  0.1043930E+01  0.7957747E-01            NaN
         13   -1    0    0    0    0  0.00000000000E+00  0.00000000000E+00  0.74505805969E-08  0.10566000000E+00  0.10566000000E+00 0. -1.
     999900   -1    0    0    0    0 -0.00000000000E+00 -0.00000000000E+00 -0.74505805969E-08  0.93827000000E+00  0.93827000000E+00 0. -1.
     999902    2    1    2    0    0  0.17888484680E-01  0.21694079831E-03  0.21519526286E-01  0.10159454514E+01  0.10155599565E+01 0.  0.
     999903    2    3    3    0    0 -0.25338138788E-02 -0.98440531142E-01 -0.73903798266E-01  0.12507173539E+00  0.22004754288E-01 0.  0.
         14    1    1    2    0    0 -0.17888484680E-01 -0.21694079831E-03 -0.21519526286E-01  0.27984548577E-01  0.00000000000E+00 0.  1.
     999901    1    3    3    0    0  0.20422298559E-01  0.98657471940E-01  0.95423324552E-01  0.89087371603E+00  0.88000000000E+00 0.  1.
        -11    1    4    4    0    0  0.44843559757E-02 -0.69932818117E-01 -0.41947739845E-01  0.81673634040E-01  0.51100000000E-03 0. -1.
         11    1    4    4    0    0 -0.70181698545E-02 -0.28507713025E-01 -0.31956058421E-01  0.43398101351E-01  0.51100000000E-03 0.  1.
</event>
<event>
 8    1  0.1128298E+005  0.1043930E+01  0.7957747E-01            NaN
         13   -1    0    0    0    0  0.00000000000E+00  0.00000000000E+00  0.74505805969E-08  0.10566000000E+00  0.10566000000E+00 0.  1.
     999900   -1    0    0    0    0 -0.00000000000E+00 -0.00000000000E+00 -0.74505805969E-08  0.93827000000E+00  0.93827000000E+00 0. -1.
     999902    2    1    2    0    0  0.15599836272E-02  0.18420968361E-01  0.11987143931E-01  0.10218969057E+01  0.10216593506E+01 0.  0.
     999903    2    3    3    0    0 -0.11207920220E+00  0.46720045142E-01 -0.48088548532E-01  0.13210828411E+00  0.19889194262E-01 0.  0.
         14    1    1    2    0    0 -0.15599836272E-02 -0.18420968361E-01 -0.11987143931E-01  0.22033094288E-01  0.00000000000E+00 0. -1.
     999901    1    3    3    0    0  0.11363918582E+00 -0.28299076781E-01  0.60075692463E-01  0.88978862160E+00  0.88000000000E+00 0.  1.
        -11    1    4    4    0    0 -0.92334467480E-01  0.34697293991E-01 -0.31137427543E-01  0.10343769434E+00  0.51100000000E-03 0. -1.
         11    1    4    4    0    0 -0.19744734717E-01  0.12022751151E-01 -0.16951120988E-01  0.28670589775E-01  0.51100000000E-03 0.  1.
</event>
<event>
 8    1  0.1128298E+005  0.1043930E+01  0.7957747E-01            NaN
         13   -1    0    0    0    0  0.00000000000E+00  0.00000000000E+00  0.74505805969E-08  0.10566000000E+00  0.10566000000E+00 0. -1.
     999900   -1    0    0    0    0 -0.00000000000E+00 -0.00000000000E+00 -0.74505805969E-08  0.93827000000E+00  0.93827000000E+00 0.  1.
     999902    2    1    2    0    0  0.32090454980E-02  0.19840013821E-01 -0.97581268831E-02  0.10215884432E+01  0.10213441154E+01 0.  0.
     999903    2    3    3    0    0  0.10934737125E+00 -0.45927430507E-02 -0.70668345114E-01  0.13278455114E+00  0.25686205113E-01 0.  0.
         14    1    1    2    0    0 -0.32090454980E-02 -0.19840013821E-01  0.97581268831E-02  0.22341556832E-01  0.00000000000E+00 0. -1.
     999901    1    3    3    0    0 -0.10613832575E+00  0.24432756871E-01  0.60910218231E-01  0.88880389203E+00  0.88000000000E+00 0. -1.
        -11    1    4    4    0    0  0.77447990259E-01 -0.59671793376E-02 -0.35889991098E-01  0.85569568226E-01  0.51100000000E-03 0.  1.
         11    1    4    4    0    0  0.31899380986E-01  0.13744362869E-02 -0.34778354016E-01  0.47214982913E-01  0.51100000000E-03 0. -1.
</event>
<event>
 8    1  0.1128298E+005  0.1043930E+01  0.7957747E-01            NaN
         13   -1    0    0    0    0  0.00000000000E+00  0.00000000000E+00  0.74505805969E-08  0.10566000000E+00  0.10566000000E+00 0. -1.
     999900   -1    0    0    0    0 -0.00000000000E+00 -0.00000000000E+00 -0.74505805969E-08  0.93827000000E+00  0.93827000000E+00 0. -1.
     999902    2    1    2    0    0  0.69249084587E-02  0.21191194263E-02  0.22300548847E-01  0.10204830492E+01  0.10202136512E+01 0.  0.
     999903    2    3    3    0    0  0.78719180732E-01 -0.72384021852E-01 -0.70480052500E-01  0.12957711947E+00  0.19663063209E-01 0.  0.
         14    1    1    2    0    0 -0.69249084587E-02 -0.21191194263E-02 -0.22300548847E-01  0.23446950829E-01  0.00000000000E+00 0.  1.
     999901    1    3    3    0    0 -0.71794272273E-01  0.74503141279E-01  0.92780601347E-01  0.89090592970E+00  0.88000000000E+00 0.  1.
        -11    1    4    4    0    0  0.27684766790E-01 -0.19175812629E-01 -0.31786609102E-01  0.46312069069E-01  0.51100000000E-03 0.  1.
         11    1    4    4    0    0  0.51034413942E-01 -0.53208209223E-01 -0.38693443398E-01  0.83265050400E-01  0.51100000000E-03 0. -1.
</event>
<event>
 8    1  0.1128298E+005  0.1043930E+01  0.7957747E-01            NaN
         13   -1    0    0    0    0  0.00000000000E+00  0.00000000000E+00  0.74505805969E-08  0.10566000000E+00  0.10566000000E+00 0. -1.
     999900   -1    0    0    0    0 -0.00000000000E+00 -0.00000000000E+00 -0.74505805969E-08  0.93827000000E+00  0.93827000000E+00 0.  1.
     999902    2    1    2    0    0 -0.18851147046E-01  0.13018101089E-01  0.31925081983E-02  0.10207993102E+01  0.10205372129E+01 0.  0.
     999903    2    3    3    0    0  0.27454538362E-01  0.98139774520E-01  0.81796903815E-01  0.13199755123E+00  0.18640092173E-01 0.  0.
         14    1    1    2    0    0  0.18851147046E-01 -0.13018101089E-01 -0.31925081983E-02  0.23130689776E-01  0.00000000000E+00 0.  1.
     999901    1    3    3    0    0 -0.46305685408E-01 -0.85121673431E-01 -0.78604395617E-01  0.88880175900E+00  0.88000000000E+00 0.  1.
        -11    1    4    4    0    0  0.23050112339E-01  0.57266453753E-01  0.56757764571E-01  0.83859760102E-01  0.51100000000E-03 0.  1.
         11    1    4    4    0    0  0.44044260228E-02  0.40873320767E-01  0.25039139244E-01  0.48137791123E-01  0.51100000000E-03 0. -1.
</event>
<event>
 8    1  0.1345882E+005  0.1043930E+01  0.7957747E-01            NaN
         13   -1    0    0    0    0  0.00000000000E+00  0.00000000000E+00  0.74505805969E-08  0.10566000000E+00  0.10566000000E+00 0. -1.
     999900   -1    0    0    0    0 -0.00000000000E+00 -0.00000000000E+00 -0.74505805969E-08  0.93827000000E+00  0.93827000000E+00 0.  1.
     999902    2    1    2    0    0 -0.15212203963E-01 -0.10343117832E-01  0.14581700789E-01  0.10204562437E+01  0.10201862223E+01 0.  0.
     999903    2    3    3    0    0  0.46257472968E-02 -0.26203348918E-02 -0.12728764342E+00  0.12883968011E+00  0.19216017006E-01 0.  0.
         14    1    1    2    0    0  0.15212203963E-01  0.10343117832E-01 -0.14581700789E-01  0.23473756278E-01  0.00000000000E+00 0. -1.
     999901    1    3    3    0    0 -0.19837951260E-01 -0.77227829400E-02  0.14186934421E+00  0.89161656362E+00  0.88000000000E+00 0. -1.
        -11    1    4    4    0    0  0.64560640731E-02 -0.10146751808E-01 -0.69807576354E-01  0.70837815982E-01  0.51100000000E-03 0.  1.
         11    1    4    4    0    0 -0.18303167763E-02  0.75264169166E-02 -0.57480067066E-01  0.58001864125E-01  0.51100000000E-03 0. -1.
</event>
<event>
 8    1  0.1128298E+005  0.1043930E+01  0.7957747E-01            NaN
         13   -1    0    0    0    0  0.00000000000E+00  0.00000000000E+00  0.74505805969E-08  0.10566000000E+00  0.10566000000E+00 0. -1.
     999900   -1    0    0    0    0 -0.00000000000E+00 -0.00000000000E+00 -0.74505805969E-08  0.93827000000E+00  0.93827000000E+00 0.  1.
     999902    2    1    2    0    0 -0.17945612874E-01 -0.13054231349E-01 -0.90637177414E-02  0.10199589976E+01  0.10196772763E+01 0.  0.
     999903    2    3    3    0    0  0.10613427443E+00 -0.34382040568E-01 -0.62194396923E-01  0.12941222007E+00  0.20803143305E-01 0.  0.
         14    1    1    2    0    0  0.17945612874E-01  0.13054231349E-01  0.90637177414E-02  0.23971002416E-01  0.00000000000E+00 0. -1.
     999901    1    3    3    0    0 -0.12407988730E+00  0.21327809219E-01  0.53130679182E-01  0.89054677752E+00  0.88000000000E+00 0. -1.
        -11    1    4    4    0    0  0.70613055654E-01 -0.17825321056E-01 -0.30301828512E-01  0.78882239013E-01  0.51100000000E-03 0.  1.
         11    1    4    4    0    0  0.35521218775E-01 -0.16556719512E-01 -0.31892568411E-01  0.50529981052E-01  0.51100000000E-03 0. -1.
</event>
<event>
 8    1  0.1128298E+005  0.1043930E+01  0.7957747E-01            NaN
         13   -1    0    0    0    0  0.00000000000E+00  0.00000000000E+00  0.74505805969E-08  0.10566000000E+00  0.10566000000E+00 0. -1.
     999900   -1    0    0    0    0 -0.00000000000E+00 -0.00000000000E+00 -0.74505805969E-08  0.93827000000E+00  0.93827000000E+00 0.  1.
     999902    2    1    2    0    0  0.11523084451E-01 -0.13310514494E-01 -0.14478805246E-01  0.10211355473E+01  0.10208810993E+01 0.  0.
     999903    2    3    3    0    0  0.60178806512E-01  0.54514786298E-01  0.97974895288E-01  0.13006120392E+00  0.26897694690E-01 0.  0.
         14    1    1    2    0    0 -0.11523084451E-01  0.13310514494E-01  0.14478805246E-01  0.22794452674E-01  0.00000000000E+00 0. -1.
     999901    1    3    3    0    0 -0.48655722061E-01 -0.67825300792E-01 -0.11245370053E+00  0.89107434341E+00  0.88000000000E+00 0.  1.
        -11    1    4    4    0    0  0.51395967757E-02  0.12519902604E-01  0.56812747700E-02  0.14686777054E-01  0.51100000000E-03 0. -1.
         11    1    4    4    0    0  0.55039209736E-01  0.41994883694E-01  0.92293620518E-01  0.11537442686E+00  0.51100000000E-03 0.  1.
</event>
<event>
 8    1  0.1128298E+005  0.1043930E+01  0.7957747E-01            NaN
         13   -1    0    0    0    0  0.00000000000E+00  0.00000000000E+00  0.74505805969E-08  0.10566000000E+00  0.10566000000E+00 0. -1.
     999900   -1    0    0    0    0 -0.00000000000E+00 -0.00000000000E+00 -0.74505805969E-08  0.93827000000E+00  0.93827000000E+00 0.  1.
     999902    2    1    2    0    0 -0.71855818440E-02 -0.22257254959E-01  0.65952490882E-02  0.10196294795E+01  0.10193398649E+01 0.  0.
     999903    2    3    3    0    0 -0.96952365145E-01  0.18481589732E-01 -0.81614995529E-01  0.12974253384E+00  0.20755416774E-01 0.  0.
         14    1    1    2    0    0  0.71855818440E-02  0.22257254959E-01 -0.65952490882E-02  0.24300520473E-01  0.00000000000E+00 0. -1.
     999901    1    3    3    0    0  0.89766783301E-01 -0.40738844691E-01  0.88210244617E-01  0.88988694569E+00  0.88000000000E+00 0.  1.
        -11    1    4    4    0    0 -0.43325925226E-01  0.18594202301E-01 -0.40729191083E-01  0.62305764446E-01  0.51100000000E-03 0.  1.
         11    1    4    4    0    0 -0.53626439919E-01 -0.11261256860E-03 -0.40885804446E-01  0.67436769393E-01  0.51100000000E-03 0. -1.
</event>
<event>
 8    1  0.1128298E+005  0.1043930E+01  0.7957747E-01            NaN
         13   -1    0    0    0    0  0.00000000000E+00  0.00000000000E+00  0.74505805969E-08  0.10566000000E+00  0.10566000000E+00 0.  1.
     999900   -1    0    0    0    0 -0.00000000000E+00 -0.00000000000E+00 -0.74505805969E-08  0.93827000000E+00  0.93827000000E+00 0. -1.
     999902    2    1    2    0    0  0.12127623682E-02 -0.67794899070E-02 -0.22338768403E-01  0.10205536690E+01  0.10202859102E+01 0.  0.
     999903    2    3    3    0    0 -0.64245058388E-01  0.19158483718E-01  0.10805550371E+00  0.12816352398E+00  0.15981926406E-01 0.  0.
         14    1    1    2    0    0 -0.12127623682E-02  0.67794899070E-02  0.22338768403E-01  0.23376330973E-01  0.00000000000E+00 0.  1.
     999901    1    3    3    0    0  0.65457820756E-01 -0.25937973625E-01 -0.13039427211E+00  0.89239014505E+00  0.88000000000E+00 0. -1.
        -11    1    4    4    0    0 -0.30889196389E-01  0.17211865973E-01  0.51494087122E-01  0.62468335286E-01  0.51100000000E-03 0. -1.
         11    1    4    4    0    0 -0.33355861999E-01  0.19466177455E-02  0.56561416589E-01  0.65695188696E-01  0.51100000000E-03 0.  1.
</event>
<event>
 8    1  0.1128298E+005  0.1043930E+01  0.7957747E-01            NaN
         13   -1    0    0    0    0  0.00000000000E+00  0.00000000000E+00  0.74505805969E-08  0.10566000000E+00  0.10566000000E+00 0. -1.
     999900   -1    0    0    0    0 -0.00000000000E+00 -0.00000000000E+00 -0.74505805969E-08  0.93827000000E+00  0.93827000000E+00 0. -1.
     999902    2    1    2    0    0  0.19825356207E-01  0.22971131197E-02  0.13332396304E-01  0.10199284528E+01  0.10196460045E+01 0.  0.
     999903    2    3    3    0    0  0.96427042207E-01 -0.77768819816E-01 -0.38863430022E-01  0.13144503921E+00  0.20524822422E-01 0.  0.
         14    1    1    2    0    0 -0.19825356207E-01 -0.22971131197E-02 -0.13332396304E-01  0.24001547213E-01  0.00000000000E+00 0.  1.
     999901    1    3    3    0    0 -0.76601686001E-01  0.80065932936E-01  0.52195826326E-01  0.88848341358E+00  0.88000000000E+00 0. -1.
        -11    1    4    4    0    0  0.26609102507E-01 -0.11224195340E-01 -0.12363473435E-01  0.31418839788E-01  0.51100000000E-03 0.  1.
         11    1    4    4    0    0  0.69817939700E-01 -0.66544624477E-01 -0.26499956588E-01  0.10002619942E+00  0.51100000000E-03 0. -1.
</event>
<event>
 7    1  0.1128298E+005  0.1043930E+01  0.7957747E-01            NaN
         13   -1    0    0    0    0  0.00000000000E+00  0.00000000000E+00  0.74505805969E-08  0.10566000000E+00  0.10566000000E+00 0.  1.
     999900   -1    0    0    0    0 -0.00000000000E+00 -0.00000000000E+00 -0.74505805969E-08  0.93827000000E+00  0.93827000000E+00 0.  1.
     999902    2    1    2    0    0  0.20480778121E-01  0.36930210632E-02 -0.14004160895E-01  0.10188457978E+01  0.10185369618E+01 0.  0.
         14    1    1    2    0    0 -0.20480778121E-01 -0.36930210632E-02  0.14004160895E-01  0.25084202187E-01  0.00000000000E+00 0.  1.
     999901    1    3    3    0    0  0.13270408361E+00 -0.14254039321E-01  0.32561915726E-01  0.89065921081E+00  0.88000000000E+00 0.  1.
        -11    1    3    3    0    0 -0.98116229023E-01  0.19079928986E-01 -0.26114608168E-01  0.10331056078E+00  0.51100000000E-03 0. -1.
         11    1    3    3    0    0 -0.14107076470E-01 -0.11328686024E-02 -0.20451468452E-01  0.24876026223E-01  0.51100000000E-03 0.  1.
</event>
<event>
 8    1  0.1128298E+005  0.1043930E+01  0.7957747E-01            NaN
         13   -1    0    0    0    0  0.00000000000E+00  0.00000000000E+00  0.74505805969E-08  0.10566000000E+00  0.10566000000E+00 0. -1.
     999900   -1    0    0    0    0 -0.00000000000E+00 -0.00000000000E+00 -0.74505805969E-08  0.93827000000E+00  0.93827000000E+00 0. -1.
     999902    2    1    2    0    0 -0.13970703998E-01  0.25493664607E-01 -0.25854794886E-02  0.10147445206E+01  0.10143247260E+01 0.  0.
     999903    2    3    3    0    0  0.59538030569E-01  0.11101715239E+00 -0.35319175300E-02  0.12754741915E+00  0.19654121280E-01 0.  0.
         14    1    1    2    0    0  0.13970703998E-01 -0.25493664607E-01  0.25854794886E-02  0.29185479429E-01  0.00000000000E+00 0. -1.
     999901    1    3    3    0    0 -0.73508734567E-01 -0.85523487778E-01  0.94643804135E-03  0.88719710142E+00  0.88000000000E+00 0.  1.
        -11    1    4    4    0    0  0.20760778877E-01  0.57774487096E-01 -0.55806443036E-02  0.61646622053E-01  0.51100000000E-03 0. -1.
         11    1    4    4    0    0  0.38777251692E-01  0.53242665290E-01  0.20487267737E-02  0.65900797100E-01  0.51100000000E-03 0.  1.
</event>
<event>
 8    1  0.1128298E+005  0.1043930E+01  0.7957747E-01            NaN
         13   -1    0    0    0    0  0.00000000000E+00  0.00000000000E+00  0.74505805969E-08  0.10566000000E+00  0.10566000000E+00 0.  1.
     999900   -1    0    0    0    0 -0.00000000000E+00 -0.00000000000E+00 -0.74505805969E-08  0.93827000000E+00  0.93827000000E+00 0. -1.
     999902    2    1    2    0    0 -0.38699404434E-02  0.22471812252E-01  0.48362372095E-02  0.10206201743E+01  0.10203539544E+01 0.  0.
     999903    2    3    3    0    0  0.10835186455E-01 -0.25294144313E-01 -0.12498362665E+00  0.12969311530E+00  0.21028604888E-01 0.  0.
         14    1    1    2    0    0  0.38699404434E-02 -0.22471812252E-01 -0.48362372095E-02  0.23309825723E-01  0.00000000000E+00 0.  1.
     999901    1    3    3    0    0 -0.14705126899E-01  0.47765956565E-01  0.12981986386E+00  0.89092705898E+00  0.88000000000E+00 0.  1.
        -11    1    4    4    0    0  0.66252141776E-02 -0.25355037671E-01 -0.73477603615E-01  0.78012760189E-01  0.51100000000E-03 0. -1.
         11    1    4    4    0    0  0.42099722775E-02  0.60893357677E-04 -0.51506023035E-01  0.51680355112E-01  0.51100000000E-03 0.  1.
</event>
<event>
 8    1  0.1128298E+005  0.1043930E+01  0.7957747E-01            NaN
         13   -1    0    0    0    0  0.00000000000E+00  0.00000000000E+00  0.74505805969E-08  0.10566000000E+00  0.10566000000E+00 0.  1.
     999900   -1    0    0    0    0 -0.00000000000E+00 -0.00000000000E+00 -0.74505805969E-08  0.93827000000E+00  0.93827000000E+00 0. -1.
     999902    2    1    2    0    0  0.86026076642E-02 -0.89375326027E-02  0.19842889391E-01  0.10205286195E+01  0.10202602799E+01 0.  0.
     999903    2    3    3    0    0 -0.12771898505E+00  0.30652903749E-02  0.11749631792E-01  0.12991470476E+00  0.20450953976E-01 0.  0.
         14    1    1    2    0    0 -0.86026076642E-02  0.89375326027E-02 -0.19842889391E-01  0.23401380451E-01  0.00000000000E+00 0. -1.
     999901    1    3    3    0    0  0.13632159271E+00 -0.12002822978E-01  0.80932575990E-02  0.89061391479E+00  0.88000000000E+00 0. -1.
        -11    1    4    4    0    0 -0.10500542659E+00 -0.46871381621E-02  0.63094166790E-02  0.10530042136E+00  0.51100000000E-03 0. -1.
         11    1    4    4    0    0 -0.22713558455E-01  0.77524285370E-02  0.54402151129E-02  0.24614283402E-01  0.51100000000E-03 0.  1.
</event>
<event>
 8    1  0.1128298E+005  0.1043930E+01  0.7957747E-01            NaN
         13   -1    0    0    0    0  0.00000000000E+00  0.00000000000E+00  0.74505805969E-08  0.10566000000E+00  0.10566000000E+00 0.  1.
     999900   -1    0    0    0    0 -0.00000000000E+00 -0.00000000000E+00 -0.74505805969E-08  0.93827000000E+00  0.93827000000E+00 0.  1.
     999902    2    1    2    0    0 -0.11085664763E-01 -0.11322426661E-02 -0.19412673544E-01  0.10215463937E+01  0.10213011352E+01 0.  0.
     999903    2    3    3    0    0 -0.61202168751E-01  0.11304853104E+00  0.21572299646E-01  0.13181121901E+00  0.19574409679E-01 0.  0.
         14    1    1    2    0    0  0.11085664763E-01  0.11322426661E-02  0.19412673544E-01  0.22383606296E-01  0.00000000000E+00 0.  1.
     999901    1    3    3    0    0  0.50116503988E-01 -0.11418077371E+00 -0.40984973190E-01  0.88973517469E+00  0.88000000000E+00 0. -1.
        -11    1    4    4    0    0 -0.50337747868E-01  0.78228441287E-01  0.20803926207E-01  0.95323881337E-01  0.51100000000E-03 0. -1.
         11    1    4    4    0    0 -0.10864420883E-01  0.34820089757E-01  0.76837343916E-03  0.36487337675E-01  0.51100000000E-03 0.  1.
</event>
<event>
 8    1  0.1128298E+005  0.1043930E+01  0.7957747E-01            NaN
         13   -1    0    0    0    0  0.00000000000E+00  0.00000000000E+00  0.74505805969E-08  0.10566000000E+00  0.10566000000E+00 0. -1.
     999900   -1    0    0    0    0 -0.00000000000E+00 -0.00000000000E+00 -0.74505805969E-08  0.93827000000E+00  0.93827000000E+00 0. -1.
     999902    2    1    2    0    0  0.11642383905E-01 -0.20001455878E-01 -0.55072773320E-02  0.10201406443E+01  0.10198632265E+01 0.  0.
     999903    2    3    3    0    0 -0.23768757797E-01 -0.12304474082E+00  0.38224366003E-01  0.13234318760E+00  0.18672307206E-01 0.  0.
         14    1    1    2    0    0 -0.11642383905E-01  0.20001455878E-01  0.55072773320E-02  0.23789355684E-01  0.00000000000E+00 0. -1.
     999901    1    3    3    0    0  0.35411141702E-01  0.10304328494E+00 -0.43731643335E-01  0.88779745672E+00  0.88000000000E+00 0. -1.
        -11    1    4    4    0    0 -0.18408223797E-01 -0.68795559365E-01  0.13513533443E-01  0.72488401822E-01  0.51100000000E-03 0. -1.
         11    1    4    4    0    0 -0.53605340000E-02 -0.54249181455E-01  0.24710832560E-01  0.59854785775E-01  0.51100000000E-03 0.  1.
</event>
<event>
 8    1  0.1128298E+005  0.1043930E+01  0.7957747E-01            NaN
         13   -1    0    0    0    0  0.00000000000E+00  0.00000000000E+00  0.74505805969E-08  0.10566000000E+00  0.10566000000E+00 0. -1.
     999900   -1    0    0    0    0 -0.00000000000E+00 -0.00000000000E+00 -0.74505805969E-08  0.93827000000E+00  0.93827000000E+00 0. -1.
     999902    2    1    2    0    0  0.89212497032E-02 -0.20749310984E-01 -0.76083407285E-02  0.10200970511E+01  0.10198186036E+01 0.  0.
     999903    2    3    3    0    0  0.48851937488E-01  0.86430545436E-01 -0.81075396527E-01  0.12965929940E+00  0.19533638089E-01 0.  0.
         14    1    1    2    0    0 -0.89212497032E-02  0.20749310984E-01  0.76083407285E-02  0.23832948857E-01  0.00000000000E+00 0.  1.
     999901    1    3    3    0    0 -0.39930687785E-01 -0.10717985642E+00  0.73467055798E-01  0.89043775175E+00  0.88000000000E+00 0.  1.
        -11    1    4    4    0    0  0.21667947940E-01  0.57517866015E-01 -0.47715085239E-01  0.77812565562E-01  0.51100000000E-03 0. -1.
         11    1    4    4    0    0  0.27183989547E-01  0.28912679421E-01 -0.33360311288E-01  0.51846733834E-01  0.51100000000E-03 0.  1.
</event>
<event>
 8    1  0.1128298E+005  0.1043930E+01  0.7957747E-01            NaN
         13   -1    0    0    0    0  0.00000000000E+00  0.00000000000E+00  0.74505805969E-08  0.10566000000E+00  0.10566000000E+00 0. -1.
     999900   -1    0    0    0    0 -0.00000000000E+00 -0.00000000000E+00 -0.74505805969E-08  0.93827000000E+00  0.93827000000E+00 0. -1.
     999902    2    1    2    0    0  0.51953137958E-03 -0.19744487714E-01 -0.16356476225E-01  0.10182853315E+01  0.10179623605E+01 0.  0.
     999903    2    3    3    0    0  0.12508151795E+00  0.10663039067E-02 -0.25528808841E-01  0.12922239265E+00  0.20004588135E-01 0.  0.
         14    1    1    2    0    0 -0.51953137958E-03  0.19744487714E-01  0.16356476225E-01  0.25644668499E-01  0.00000000000E+00 0. -1.
     999901    1    3    3    0    0 -0.12456198657E+00 -0.20810791621E-01  0.91723326155E-02  0.88906293885E+00  0.88000000000E+00 0.  1.
        -11    1    4    4    0    0  0.97090819745E-01 -0.75157693361E-02 -0.18885156512E-01  0.99196896751E-01  0.51100000000E-03 0. -1.
         11    1    4    4    0    0  0.27990698201E-01  0.85820732428E-02 -0.66436523285E-02  0.30025495903E-01  0.51100000000E-03 0.  1.
</event>
<event>
 8    1  0.1128298E+005  0.1043930E+01  0.7957747E-01            NaN
         13   -1    0    0    0    0  0.00000000000E+00  0.00000000000E+00  0.74505805969E-08  0.10566000000E+00  0.10566000000E+00 0.  1.
     999900   -1    0    0    0    0 -0.00000000000E+00 -0.00000000000E+00 -0.74505805969E-08  0.93827000000E+00  0.93827000000E+00 0. -1.
     999902    2    1    2    0    0  0.76630377406E-03  0.19417240761E-01  0.15498003409E-01  0.10190743252E+01  0.10187711596E+01 0.  0.
     999903    2    3    3    0    0  0.11255306671E+00 -0.20824939447E-02  0.62693137149E-01  0.13048786367E+00  0.20594259221E-01 0.  0.
         14    1    1    2    0    0 -0.76630377406E-03 -0.19417240761E-01 -0.15498003409E-01  0.24855674803E-01  0.00000000000E+00 0. -1.
     999901    1    3    3    0    0 -0.11178676294E+00  0.21499734705E-01 -0.47195133739E-01  0.88858646153E+00  0.88000000000E+00 0. -1.
        -11    1    4    4    0    0  0.36027418094E-01 -0.90247916198E-02  0.15065345367E-01  0.40083007251E-01  0.51100000000E-03 0. -1.
         11    1    4    4    0    0  0.76525648616E-01  0.69422976751E-02  0.47627791782E-01  0.90404856419E-01  0.51100000000E-03 0.  1.
</event>
<event>
 8    1  0.1128298E+005  0.1043930E+01  0.7957747E-01            NaN
         13   -1    0    0    0    0  0.00000000000E+00  0.00000000000E+00  0.74505805969E-08  0.10566000000E+00  0.10566000000E+00 0.  1.
     999900   -1    0    0    0    0 -0.00000000000E+00 -0.00000000000E+00 -0.74505805969E-08  0.93827000000E+00  0.93827000000E+00 0. -1.
     999902    2    1    2    0    0 -0.24373113568E-02 -0.10416673081E-02 -0.26906848039E-01  0.10168929138E+01  0.10165334201E+01 0.  0.
     999903    2    3    3    0    0 -0.12581752832E+00  0.78303086508E-02 -0.10459605076E-01  0.12808927876E+00  0.20151819517E-01 0.  0.
         14    1    1    2    0    0  0.24373113568E-02  0.10416673081E-02  0.26906848039E-01  0.27037086175E-01  0.00000000000E+00 0.  1.
     999901    1    3    3    0    0  0.12338021696E+00 -0.88719759589E-02 -0.16447242963E-01  0.88880363506E+00  0.88000000000E+00 0.  1.
        -11    1    4    4    0    0 -0.38452927083E-01  0.11719899820E-01 -0.38863664452E-02  0.40389956898E-01  0.51100000000E-03 0. -1.
         11    1    4    4    0    0 -0.87364601238E-01 -0.38895911689E-02 -0.65732386307E-02  0.87699321867E-01  0.51100000000E-03 0.  1.
</event>
<event>
 8    1  0.1128298E+005  0.1043930E+01  0.7957747E-01            NaN
         13   -1    0    0    0    0  0.00000000000E+00  0.00000000000E+00  0.74505805969E-08  0.10566000000E+00  0.10566000000E+00 0.  1.
     999900   -1    0    0    0    0 -0.00000000000E+00 -0.00000000000E+00 -0.74505805969E-08  0.93827000000E+00  0.93827000000E+00 0. -1.
     999902    2    1    2    0    0  0.70955885303E-05  0.13315109774E-02  0.24143760903E-01  0.10197495500E+01  0.10194628245E+01 0.  0.
     999903    2    3    3    0    0 -0.10986542439E+00  0.29560440985E-01 -0.56817226858E-01  0.12878180385E+00  0.20305777190E-01 0.  0.
         14    1    1    2    0    0 -0.70955885303E-05 -0.13315109774E-02 -0.24143760903E-01  0.24180450003E-01  0.00000000000E+00 0. -1.
     999901    1    3    3    0    0  0.10987251998E+00 -0.28228930007E-01  0.80960987760E-01  0.89096774615E+00  0.88000000000E+00 0.  1.
        -11    1    4    4    0    0 -0.52417686077E-01  0.18478232439E-01 -0.17430354350E-01  0.58250641726E-01  0.51100000000E-03 0.  1.
         11    1    4    4    0    0 -0.57447738313E-01  0.11082208545E-01 -0.39386872507E-01  0.70531162123E-01  0.51100000000E-03 0. -1.
</event>
<event>
 8    1  0.1128298E+005  0.1043930E+01  0.7957747E-01            NaN
         13   -1    0    0    0    0  0.00000000000E+00  0.00000000000E+00  0.74505805969E-08  0.10566000000E+00  0.10566000000E+00 0. -1.
     999900   -1    0    0    0    0 -0.00000000000E+00 -0.00000000000E+00 -0.74505805969E-08  0.93827000000E+00  0.93827000000E+00 0. -1.
     999902    2    1    2    0    0  0.18375727711E-01 -0.13520778375E-01 -0.10090207462E-01  0.10189842368E+01  0.10186788423E+01 0.  0.
     999903    2    3    3    0    0  0.74532547135E-01 -0.12751642090E-01  0.10295339608E+00  0.12997746725E+00  0.24021558446E-01 0.  0.
         14    1    1    2    0    0 -0.18375727711E-01  0.13520778375E-01  0.10090207462E-01  0.24945763235E-01  0.00000000000E+00 0.  1.
     999901    1    3    3    0    0 -0.56156819424E-01 -0.76913628507E-03 -0.11304360354E+00  0.88900676951E+00  0.88000000000E+00 0. -1.
        -11    1    4    4    0    0  0.20464464238E-01 -0.12430371106E-01  0.43173679268E-01  0.49371409996E-01  0.51100000000E-03 0.  1.
         11    1    4    4    0    0  0.54068082897E-01 -0.32127098325E-03  0.59779716813E-01  0.80606057256E-01  0.51100000000E-03 0. -1.
</event>
<event>
 8    1  0.1128298E+005  0.1043930E+01  0.7957747E-01            NaN
         13   -1    0    0    0    0  0.00000000000E+00  0.00000000000E+00  0.74505805969E-08  0.10566000000E+00  0.10566000000E+00 0. -1.
     999900   -1    0    0    0    0 -0.00000000000E+00 -0.00000000000E+00 -0.74505805969E-08  0.93827000000E+00  0.93827000000E+00 0.  1.
     999902    2    1    2    0    0  0.13101362152E-01  0.19933576531E-01  0.12966319961E-02  0.10200412073E+01  0.10197614378E+01 0.  0.
     999903    2    3    3    0    0  0.39757269227E-01 -0.97168145264E-01  0.72180248483E-01  0.12905981705E+00  0.20595125535E-01 0.  0.
         14    1    1    2    0    0 -0.13101362152E-01 -0.19933576531E-01 -0.12966319961E-02  0.23888792730E-01  0.00000000000E+00 0.  1.
     999901    1    3    3    0    0 -0.26655907075E-01  0.11710172180E+00 -0.70883616487E-01  0.89098139022E+00  0.88000000000E+00 0.  1.
        -11    1    4    4    0    0  0.16262589580E-01 -0.35219193262E-01  0.38804198431E-01  0.54871580356E-01  0.51100000000E-03 0.  1.
         11    1    4    4    0    0  0.23494679647E-01 -0.61948952003E-01  0.33376050051E-01  0.74188236695E-01  0.51100000000E-03 0. -1.
</event>
<event>
 8    1  0.1128298E+005  0.1043930E+01  0.7957747E-01            NaN
         13   -1    0    0    0    0  0.00000000000E+00  0.00000000000E+00  0.74505805969E-08  0.10566000000E+00  0.10566000000E+00 0.  1.
     999900   -1    0    0    0    0 -0.00000000000E+00 -0.00000000000E+00 -0.74505805969E-08  0.93827000000E+00  0.93827000000E+00 0. -1.
     999902    2    1    2    0    0  0.36087080378E-02 -0.12680136185E-01  0.20303668970E-01  0.10197215800E+01  0.10194341828E+01 0.  0.
     999903    2    3    3    0    0 -0.11682543479E+00 -0.33082019167E-01  0.42050231682E-01  0.13101829281E+00  0.25592359426E-01 0.  0.
         14    1    1    2    0    0 -0.36087080378E-02  0.12680136185E-01 -0.20303668970E-01  0.24208420044E-01  0.00000000000E+00 0. -1.
     999901    1    3    3    0    0  0.12043414283E+00  0.20401882982E-01 -0.21746562712E-01  0.88870328714E+00  0.88000000000E+00 0.  1.
        -11    1    4    4    0    0 -0.42220966911E-01 -0.23757120192E-01  0.21963759999E-01  0.53194724184E-01  0.51100000000E-03 0. -1.
         11    1    4    4    0    0 -0.74604467880E-01 -0.93248989746E-02  0.20086471683E-01  0.77823568630E-01  0.51100000000E-03 0.  1.
</event>
<event>
 8    1  0.1128298E+005  0.1043930E+01  0.7957747E-01            NaN
         13   -1    0    0    0    0  0.00000000000E+00  0.00000000000E+00  0.74505805969E-08  0.10566000000E+00  0.10566000000E+00 0.  1.
     999900   -1    0    0    0    0 -0.00000000000E+00 -0.00000000000E+00 -0.74505805969E-08  0.93827000000E+00  0.93827000000E+00 0.  1.
     999902    2    1    2    0    0 -0.46251284764E-02 -0.20552573264E-01 -0.51274307782E-02  0.10222484265E+01  0.10220184709E+01 0.  0.
     999903    2    3    3    0    0 -0.96970622142E-01  0.50679294881E-01 -0.71311806366E-01  0.13208999075E+00  0.19766118515E-01 0.  0.
         14    1    1    2    0    0  0.46251284764E-02  0.20552573264E-01  0.51274307782E-02  0.21681573457E-01  0.00000000000E+00 0.  1.
     999901    1    3    3    0    0  0.92345493666E-01 -0.71231868145E-01  0.66184375588E-01  0.89015843579E+00  0.88000000000E+00 0.  1.
        -11    1    4    4    0    0 -0.78448061604E-01  0.33454488069E-01 -0.49009185045E-01  0.98363928760E-01  0.51100000000E-03 0.  1.
         11    1    4    4    0    0 -0.18522560538E-01  0.17224806813E-01 -0.22302621321E-01  0.33726061991E-01  0.51100000000E-03 0. -1.
</event>
<event>
 8    1  0.1128298E+005  0.1043930E+01  0.7957747E-01            NaN
         13   -1    0    0    0    0  0.00000000000E+00  0.00000000000E+00  0.74505805969E-08  0.10566000000E+00  0.10566000000E+00 0. -1.
     999900   -1    0    0    0    0 -0.00000000000E+00 -0.00000000000E+00 -0.74505805969E-08  0.93827000000E+00  0.93827000000E+00 0.  1.
     999902    2    1    2    0    0 -0.15757778120E-01  0.14928563315E-01  0.13984067170E-01  0.10181090064E+01  0.10177815214E+01 0.  0.
     999903    2    3    3    0    0 -0.79479205803E-01 -0.52616592972E-01  0.86400183422E-01  0.13026506611E+00  0.20458390508E-01 0.  0.
         14    1    1    2    0    0  0.15757778120E-01 -0.14928563315E-01 -0.13984067170E-01  0.25820993562E-01  0.00000000000E+00 0.  1.
     999901    1    3    3    0    0  0.63721427683E-01  0.67545156287E-01 -0.72416116253E-01  0.88784394033E+00  0.88000000000E+00 0.  1.
        -11    1    4    4    0    0 -0.11458510754E-01 -0.37936780705E-04  0.89363254750E-02  0.14540218083E-01  0.51100000000E-03 0.  1.
         11    1    4    4    0    0 -0.68020695049E-01 -0.52578656191E-01  0.77463857947E-01  0.11572484803E+00  0.51100000000E-03 0. -1.
</event>
<event>
 8    1  0.1128298E+005  0.1043930E+01  0.7957747E-01            NaN
         13   -1    0    0    0    0  0.00000000000E+00  0.00000000000E+00  0.74505805969E-08  0.10566000000E+00  0.10566000000E+00 0.  1.
     999900   -1    0    0    0    0 -0.00000000000E+00 -0.00000000000E+00 -0.74505805969E-08  0.93827000000E+00  0.93827000000E+00 0. -1.
     999902    2    1    2    0    0  0.24116806112E-01 -0.16465337617E-02  0.28810675204E-03  0.10197553352E+01  0.10194687486E+01 0.  0.
     999903    2    3    3    0    0  0.63846654120E-01 -0.48211446072E-01 -0.10235193237E+00  0.13167778823E+00  0.21503094626E-01 0.  0.
         14    1    1    2    0    0 -0.24116806112E-01  0.16465337617E-02 -0.28810675204E-03  0.24174664754E-01  0.00000000000E+00 0. -1.
     999901    1    3    3    0    0 -0.39729848008E-01  0.46564912311E-01  0.10264003912E+00  0.88807754702E+00  0.88000000000E+00 0.  1.
        -11    1    4    4    0    0  0.25463744495E-01 -0.28695336520E-01 -0.60416493471E-01  0.71569815048E-01  0.51100000000E-03 0.  1.
         11    1    4    4    0    0  0.38382909625E-01 -0.19516109552E-01 -0.41935438901E-01  0.60107973183E-01  0.51100000000E-03 0. -1.
</event>
<event>
 8    1  0.1128298E+005  0.1043930E+01  0.7957747E-01            NaN
         13   -1    0    0    0    0  0.00000000000E+00  0.00000000000E+00  0.74505805969E-08  0.10566000000E+00  0.10566000000E+00 0.  1.
     999900   -1    0    0    0    0 -0.00000000000E+00 -0.00000000000E+00 -0.74505805969E-08  0.93827000000E+00  0.93827000000E+00 0. -1.
     999902    2    1    2    0    0 -0.16223804918E-01  0.16998628285E-01 -0.29734222892E-02  0.10202444253E+01  0.10199694509E+01 0.  0.
     999903    2    3    3    0    0 -0.78875500070E-01  0.33035998682E-01 -0.99584945827E-01  0.13259797616E+00  0.18770725263E-01 0.  0.
         14    1    1    2    0    0  0.16223804918E-01 -0.16998628285E-01  0.29734222892E-02  0.23685574717E-01  0.00000000000E+00 0. -1.
     999901    1    3    3    0    0  0.62651695152E-01 -0.16037370397E-01  0.96611523538E-01  0.88764644912E+00  0.88000000000E+00 0.  1.
        -11    1    4    4    0    0 -0.64296965877E-01  0.18896478287E-01 -0.72345561519E-01  0.98617027461E-01  0.51100000000E-03 0.  1.
         11    1    4    4    0    0 -0.14578534192E-01  0.14139520396E-01 -0.27239384308E-01  0.33980948702E-01  0.51100000000E-03 0. -1.
</event>
<event>
 8    1  0.1128298E+005  0.1043930E+01  0.7957747E-01            NaN
         13   -1    0    0    0    0  0.00000000000E+00  0.00000000000E+00  0.74505805969E-08  0.10566000000E+00  0.10566000000E+00 0.  1.
     999900   -1    0    0    0    0 -0.00000000000E+00 -0.00000000000E+00 -0.74505805969E-08  0.93827000000E+00  0.93827000000E+00 0. -1.
     999902    2    1    2    0    0  0.12599152366E-01 -0.53703896025E-02 -0.19178621072E-01  0.10203630903E+01  0.10200908964E+01 0.  0.
     999903    2    3    3    0    0  0.17189741530E-01  0.21753278585E-01 -0.12862193920E+00  0.13315702252E+00  0.20457200667E-01 0.  0.
         14    1    1    2    0    0 -0.12599152366E-01  0.53703896025E-02  0.19178621072E-01  0.23566909663E-01  0.00000000000E+00 0.  1.
     999901    1    3    3    0    0 -0.45905891641E-02 -0.27123668187E-01  0.10944331813E+00  0.88720606782E+00  0.88000000000E+00 0.  1.
        -11    1    4    4    0    0  0.18683184779E-01  0.85037896019E-02 -0.65623923968E-01  0.68761445222E-01  0.51100000000E-03 0. -1.
         11    1    4    4    0    0 -0.14934432489E-02  0.13249488983E-01 -0.62998015237E-01  0.64395577300E-01  0.51100000000E-03 0.  1.
</event>
<event>
 8    1  0.1128298E+005  0.1043930E+01  0.7957747E-01            NaN
         13   -1    0    0    0    0  0.00000000000E+00  0.00000000000E+00  0.74505805969E-08  0.10566000000E+00  0.10566000000E+00 0.  1.
     999900   -1    0    0    0    0 -0.00000000000E+00 -0.00000000000E+00 -0.74505805969E-08  0.93827000000E+00  0.93827000000E+00 0. -1.
     999902    2    1    2    0    0 -0.73598225211E-02  0.21136132041E-01 -0.64018772029E-02  0.10206515315E+01  0.10203860356E+01 0.  0.
     999903    2    3    3    0    0  0.21797827920E-01  0.46433092194E-01  0.11844784254E+00  0.13100128711E+00  0.22366682129E-01 0.  0.
         14    1    1    2    0    0  0.73598225211E-02 -0.21136132041E-01  0.64018772029E-02  0.23278468526E-01  0.00000000000E+00 0.  1.
     999901    1    3    3    0    0 -0.29157650441E-01 -0.25296960153E-01 -0.12484971974E+00  0.88965024436E+00  0.88000000000E+00 0. -1.
        -11    1    4    4    0    0  0.17047687704E-01  0.41266606683E-01  0.11457631233E+00  0.12296970746E+00  0.51100000000E-03 0. -1.
         11    1    4    4    0    0  0.47501402156E-02  0.51664855114E-02  0.38715302097E-02  0.80315796561E-02  0.51100000000E-03 0.  1.
</event>
<event>
 8    1  0.1128298E+005  0.1043930E+01  0.7957747E-01            NaN
         13   -1    0    0    0    0  0.00000000000E+00  0.00000000000E+00  0.74505805969E-08  0.10566000000E+00  0.10566000000E+00 0. -1.
     999900   -1    0    0    0    0 -0.00000000000E+00 -0.00000000000E+00 -0.74505805969E-08  0.93827000000E+00  0.93827000000E+00 0. -1.
     999902    2    1    2    0    0 -0.51629680895E-02 -0.86485219153E-02 -0.22203980184E-01  0.10195482464E+01  0.10192566688E+01 0.  0.
     999903    2    3    3    0    0  0.12983836189E-01 -0.77532338847E-01  0.10100804344E+00  0.12811373426E+00  0.55371921106E-02 0.  0.
         14    1    1    2    0    0  0.51629680895E-02  0.86485219153E-02  0.22203980184E-01  0.24381753564E-01  0.00000000000E+00 0. -1.
     999901    1    3    3    0    0 -0.18146804279E-01  0.68883816931E-01 -0.12321202362E+00  0.89143451218E+00  0.88000000000E+00 0. -1.
        -11    1    4    4    0    0  0.59603131253E-02 -0.43209177619E-01  0.59885817496E-01  0.74088667293E-01  0.51100000000E-03 0. -1.
         11    1    4    4    0    0  0.70235230640E-02 -0.34323161228E-01  0.41122225943E-01  0.54025066964E-01  0.51100000000E-03 0.  1.
</event>
<event>
 8    1  0.1128298E+005  0.1043930E+01  0.7957747E-01            NaN
         13   -1    0    0    0    0  0.00000000000E+00  0.00000000000E+00  0.74505805969E-08  0.10566000000E+00  0.10566000000E+00 0. -1.
     999900   -1    0    0    0    0 -0.00000000000E+00 -0.00000000000E+00 -0.74505805969E-08  0.93827000000E+00  0.93827000000E+00 0. -1.
     999902    2    1    2    0    0 -0.11292921667E-01 -0.18985706489E-01  0.97416372968E-02  0.10197869549E+01  0.10195011264E+01 0.  0.
     999903    2    3    3    0    0  0.12149630791E+00 -0.40235531718E-01 -0.15061887613E-03  0.12951598978E+00  0.19852407220E-01 0.  0.
         14    1    1    2    0    0  0.11292921667E-01  0.18985706489E-01 -0.97416372968E-02  0.24143045124E-01  0.00000000000E+00 0.  1.
     999901    1    3    3    0    0 -0.13278922958E+00  0.21249825229E-01  0.98922561729E-02  0.89027096510E+00  0.88000000000E+00 0.  1.
        -11    1    4    4    0    0  0.55548531565E-01 -0.27395622285E-01 -0.50834910854E-02  0.62147103569E-01  0.51100000000E-03 0.  1.
         11    1    4    4    0    0  0.65947776349E-01 -0.12839909433E-01  0.49328722093E-02  0.67368886208E-01  0.51100000000E-03 0. -1.
</event>
<event>
 8    1  0.1128298E+005  0.1043930E+01  0.7957747E-01            NaN
         13   -1    0    0    0    0  0.00000000000E+00  0.00000000000E+00  0.74505805969E-08  0.10566000000E+00  0.10566000000E+00 0.  1.
     999900   -1    0    0    0    0 -0.00000000000E+00 -0.00000000000E+00 -0.74505805969E-08  0.93827000000E+00  0.93827000000E+00 0. -1.
     999902    2    1    2    0    0 -0.11650854471E-01  0.18236347467E-01 -0.87509061164E-02  0.10205872252E+01  0.10203202434E+01 0.  0.
     999903    2    3    3    0    0 -0.79747849125E-01  0.56743730265E-01 -0.88279967333E-01  0.13354444673E+00  0.21475480324E-01 0.  0.
         14    1    1    2    0    0  0.11650854471E-01 -0.18236347467E-01  0.87509061164E-02  0.23342774828E-01  0.00000000000E+00 0.  1.
     999901    1    3    3    0    0  0.68096994654E-01 -0.38507382799E-01  0.79529061216E-01  0.88704277844E+00  0.88000000000E+00 0.  1.
        -11    1    4    4    0    0 -0.26097652538E-01  0.22307725319E-01 -0.18412185303E-01  0.38961413803E-01  0.51100000000E-03 0.  1.
         11    1    4    4    0    0 -0.53650196587E-01  0.34436004946E-01 -0.69867782030E-01  0.94583032925E-01  0.51100000000E-03 0. -1.
</event>
<event>
 8    1  0.1128298E+005  0.1043930E+01  0.7957747E-01            NaN
         13   -1    0    0    0    0  0.00000000000E+00  0.00000000000E+00  0.74505805969E-08  0.10566000000E+00  0.10566000000E+00 0. -1.
     999900   -1    0    0    0    0 -0.00000000000E+00 -0.00000000000E+00 -0.74505805969E-08  0.93827000000E+00  0.93827000000E+00 0.  1.
     999902    2    1    2    0    0 -0.21697243389E-01 -0.98524817187E-02  0.15480280236E-02  0.10200503401E+01  0.10197707871E+01 0.  0.
     999903    2    3    3    0    0 -0.18773777222E-01 -0.50313780960E-01  0.11801455056E+00  0.13145025329E+00  0.21628769717E-01 0.  0.
         14    1    1    2    0    0  0.21697243389E-01  0.98524817187E-02 -0.15480280236E-02  0.23879659911E-01  0.00000000000E+00 0. -1.
     999901    1    3    3    0    0 -0.29234661676E-02  0.40461299241E-01 -0.11646652254E+00  0.88860008680E+00  0.88000000000E+00 0.  1.
        -11    1    4    4    0    0 -0.94042263879E-02 -0.26155499625E-01  0.36285561308E-01  0.45710531773E-01  0.51100000000E-03 0.  1.
         11    1    4    4    0    0 -0.93695508337E-02 -0.24158281335E-01  0.81728989254E-01  0.85739721514E-01  0.51100000000E-03 0. -1.
</event>
<event>
 8    1  0.1271497E+005  0.1043930E+01  0.7957747E-01            NaN
         13   -1    0    0    0    0  0.00000000000E+00  0.00000000000E+00  0.74505805969E-08  0.10566000000E+00  0.10566000000E+00 0. -1.
     999900   -1    0    0    0    0 -0.00000000000E+00 -0.00000000000E+00 -0.74505805969E-08  0.93827000000E+00  0.93827000000E+00 0. -1.
     999902    2    1    2    0    0 -0.19005214427E-01 -0.10395930172E-01  0.11289712030E-01  0.10195019191E+01  0.10192092189E+01 0.  0.
     999903    2    3    3    0    0  0.10362107130E-01  0.51142653918E-01  0.11782381634E+00  0.13045807748E+00  0.20344875772E-01 0.  0.
         14    1    1    2    0    0  0.19005214427E-01  0.10395930172E-01 -0.11289712030E-01  0.24428080917E-01  0.00000000000E+00 0. -1.
     999901    1    3    3    0    0 -0.29367321557E-01 -0.61538584091E-01 -0.10653410431E+00  0.88904384160E+00  0.88000000000E+00 0. -1.
        -11    1    4    4    0    0  0.72726537283E-02  0.19330421409E-01  0.69601595993E-01  0.72603030032E-01  0.51100000000E-03 0. -1.
         11    1    4    4    0    0  0.30894534018E-02  0.31812232509E-01  0.48222220345E-01  0.57855047451E-01  0.51100000000E-03 0.  1.
</event>
<event>
 8    1  0.1128298E+005  0.1043930E+01  0.7957747E-01            NaN
         13   -1    0    0    0    0  0.00000000000E+00  0.00000000000E+00  0.74505805969E-08  0.10566000000E+00  0.10566000000E+00 0.  1.
     999900   -1    0    0    0    0 -0.00000000000E+00 -0.00000000000E+00 -0.74505805969E-08  0.93827000000E+00  0.93827000000E+00 0.  1.
     999902    2    1    2    0    0 -0.14893019943E-01 -0.10511858742E-01  0.15656806117E-01  0.10199000854E+01  0.10196169611E+01 0.  0.
     999903    2    3    3    0    0  0.92708784750E-01 -0.35665652542E-01 -0.78043549517E-01  0.12805333941E+00  0.20973902143E-01 0.  0.
         14    1    1    2    0    0  0.14893019943E-01  0.10511858742E-01 -0.15656806117E-01  0.24029914586E-01  0.00000000000E+00 0. -1.
     999901    1    3    3    0    0 -0.10760180469E+00  0.25153793799E-01  0.93700355635E-01  0.89184674601E+00  0.88000000000E+00 0. -1.
        -11    1    4    4    0    0  0.53508562899E-01 -0.94482707225E-02 -0.40455312900E-01  0.67744590825E-01  0.51100000000E-03 0.  1.
         11    1    4    4    0    0  0.39200221851E-01 -0.26217381819E-01 -0.37588236617E-01  0.60308748582E-01  0.51100000000E-03 0. -1.
</event>
<event>
 8    1  0.1128298E+005  0.1043930E+01  0.7957747E-01            NaN
         13   -1    0    0    0    0  0.00000000000E+00  0.00000000000E+00  0.74505805969E-08  0.10566000000E+00  0.10566000000E+00 0. -1.
     999900   -1    0    0    0    0 -0.00000000000E+00 -0.00000000000E+00 -0.74505805969E-08  0.93827000000E+00  0.93827000000E+00 0. -1.
     999902    2    1    2    0    0  0.18431770330E-01 -0.18231049249E-01  0.47650097975E-02  0.10175708150E+01  0.10172293532E+01 0.  0.
     999903    2    3    3    0    0  0.86394278655E-01 -0.64146168013E-01  0.71807068726E-01  0.13121775990E+00  0.21980517242E-01 0.  0.
         14    1    1    2    0    0 -0.18431770330E-01  0.18231049249E-01 -0.47650097975E-02  0.26359184976E-01  0.00000000000E+00 0. -1.
     999901    1    3    3    0    0 -0.67962508325E-01  0.45915118764E-01 -0.67042058929E-01  0.88635305513E+00  0.88000000000E+00 0. -1.
        -11    1    4    4    0    0  0.15729153398E-01 -0.23423233789E-02  0.92529728553E-02  0.18405742938E-01  0.51100000000E-03 0. -1.
         11    1    4    4    0    0  0.70665125257E-01 -0.61803844634E-01  0.62554095871E-01  0.11281201696E+00  0.51100000000E-03 0.  1.
</event>
<event>
 8    1  0.1128298E+005  0.1043930E+01  0.7957747E-01            NaN
         13   -1    0    0    0    0  0.00000000000E+00  0.00000000000E+00  0.74505805969E-08  0.10566000000E+00  0.10566000000E+00 0. -1.
     999900   -1    0    0    0    0 -0.00000000000E+00 -0.00000000000E+00 -0.74505805969E-08  0.93827000000E+00  0.93827000000E+00 0. -1.
     999902    2    1    2    0    0 -0.12119895829E-01 -0.35966442247E-02  0.20029883708E-01  0.10202440555E+01  0.10199690725E+01 0.  0.
     999903    2    3    3    0    0  0.13180598135E-01 -0.12688667485E+00  0.21297979507E-01  0.13128840156E+00  0.22562890587E-01 0.  0.
         14    1    1    2    0    0  0.12119895829E-01  0.35966442247E-02 -0.20029883708E-01  0.23685944480E-01  0.00000000000E+00 0.  1.
     999901    1    3    3    0    0 -0.25300493964E-01  0.12329003062E+00 -0.12680957996E-02  0.88895565396E+00  0.88000000000E+00 0. -1.
        -11    1    4    4    0    0  0.34815037350E-02 -0.10943637777E+00  0.19724464001E-01  0.11125536953E+00  0.51100000000E-03 0.  1.
         11    1    4    4    0    0  0.96990944000E-02 -0.17450297074E-01  0.15735155061E-02  0.20033032027E-01  0.51100000000E-03 0. -1.
</event>
<event>
 8    1  0.1128298E+005  0.1043930E+01  0.7957747E-01            NaN
         13   -1    0    0    0    0  0.00000000000E+00  0.00000000000E+00  0.74505805969E-08  0.10566000000E+00  0.10566000000E+00 0. -1.
     999900   -1    0    0    0    0 -0.00000000000E+00 -0.00000000000E+00 -0.74505805969E-08  0.93827000000E+00  0.93827000000E+00 0.  1.
     999902    2    1    2    0    0 -0.18611420156E-01 -0.10459931962E-01  0.11550379439E-01  0.10196564258E+01  0.10193674609E+01 0.  0.
     999903    2    3    3    0    0  0.42244328439E-01  0.11411592198E+00  0.35872525653E-01  0.12846950252E+00  0.20261985224E-01 0.  0.
         14    1    1    2    0    0  0.18611420156E-01  0.10459931962E-01 -0.11550379439E-01  0.24273574151E-01  0.00000000000E+00 0.  1.
     999901    1    3    3    0    0 -0.60855748596E-01 -0.12457585394E+00 -0.24322146215E-01  0.89118692333E+00  0.88000000000E+00 0.  1.
        -11    1    4    4    0    0  0.14819184476E-01  0.66248589944E-01  0.24250658410E-01  0.72089107724E-01  0.51100000000E-03 0. -1.
         11    1    4    4    0    0  0.27425143963E-01  0.47867332037E-01  0.11621867243E-01  0.56380394792E-01  0.51100000000E-03 0.  1.
</event>
<event>
 8    1  0.1128298E+005  0.1043930E+01  0.7957747E-01            NaN
         13   -1    0    0    0    0  0.00000000000E+00  0.00000000000E+00  0.74505805969E-08  0.10566000000E+00  0.10566000000E+00 0.  1.
     999900   -1    0    0    0    0 -0.00000000000E+00 -0.00000000000E+00 -0.74505805969E-08  0.93827000000E+00  0.93827000000E+00 0. -1.
     999902    2    1    2    0    0 -0.22416333437E-01  0.74663831251E-02 -0.21870221858E-02  0.10202019165E+01  0.10199259426E+01 0.  0.
     999903    2    3    3    0    0 -0.57380834511E-01 -0.11515201263E+00 -0.14623331099E-01  0.13092555387E+00  0.19367825385E-01 0.  0.
         14    1    1    2    0    0  0.22416333437E-01 -0.74663831251E-02  0.21870221858E-02  0.23728083525E-01  0.00000000000E+00 0.  1.
     999901    1    3    3    0    0  0.34964501075E-01  0.12261839576E+00  0.12436308913E-01  0.88927636261E+00  0.88000000000E+00 0. -1.
        -11    1    4    4    0    0 -0.20474993696E-01 -0.57591935277E-01 -0.61770036543E-03  0.61128545300E-01  0.51100000000E-03 0.  1.
         11    1    4    4    0    0 -0.36905840816E-01 -0.57560077357E-01 -0.14005630733E-01  0.69797008567E-01  0.51100000000E-03 0. -1.
</event>
<event>
 8    1  0.1128298E+005  0.1043930E+01  0.7957747E-01            NaN
         13   -1    0    0    0    0  0.00000000000E+00  0.00000000000E+00  0.74505805969E-08  0.10566000000E+00  0.10566000000E+00 0.  1.
     999900   -1    0    0    0    0 -0.00000000000E+00 -0.00000000000E+00 -0.74505805969E-08  0.93827000000E+00  0.93827000000E+00 0.  1.
     999902    2    1    2    0    0  0.82390649574E-02 -0.19878511011E-01  0.97722084616E-02  0.10202966877E+01  0.10200229397E+01 0.  0.
     999903    2    3    3    0    0  0.10341049574E+00  0.45392758109E-01 -0.61196430940E-01  0.12992907398E+00  0.19553209103E-01 0.  0.
         14    1    1    2    0    0 -0.82390649574E-02  0.19878511011E-01 -0.97722084616E-02  0.23633312286E-01  0.00000000000E+00 0. -1.
     999901    1    3    3    0    0 -0.95171430787E-01 -0.65271269120E-01  0.70968639402E-01  0.89036761374E+00  0.88000000000E+00 0.  1.
        -11    1    4    4    0    0  0.29458770162E-01  0.21980789357E-01 -0.15452912622E-01  0.39875153539E-01  0.51100000000E-03 0.  1.
         11    1    4    4    0    0  0.73951725582E-01  0.23411968752E-01 -0.45743518318E-01  0.90053920440E-01  0.51100000000E-03 0. -1.
</event>
<event>
 8    1  0.1128298E+005  0.1043930E+01  0.7957747E-01            NaN
         13   -1    0    0    0    0  0.00000000000E+00  0.00000000000E+00  0.74505805969E-08  0.10566000000E+00  0.10566000000E+00 0.  1.
     999900   -1    0    0    0    0 -0.00000000000E+00 -0.00000000000E+00 -0.74505805969E-08  0.93827000000E+00  0.93827000000E+00 0. -1.
     999902    2    1    2    0    0 -0.17664401978E-01  0.87479422892E-02  0.15034780032E-01  0.10191388281E+01  0.10188372534E+01 0.  0.
     999903    2    3    3    0    0  0.97001961329E-01 -0.48740733003E-01  0.66012219467E-01  0.12837958907E+00  0.18402886057E-01 0.  0.
         14    1    1    2    0    0  0.17664401978E-01 -0.87479422892E-02 -0.15034780032E-01  0.24791171859E-01  0.00000000000E+00 0. -1.
     999901    1    3    3    0    0 -0.11466636331E+00  0.57488675292E-01 -0.50977439436E-01  0.89075923907E+00  0.88000000000E+00 0. -1.
        -11    1    4    4    0    0  0.24742414780E-01 -0.65664133798E-02  0.22438399277E-01  0.34044790452E-01  0.51100000000E-03 0. -1.
         11    1    4    4    0    0  0.72259546548E-01 -0.42174319623E-01  0.43573820191E-01  0.94334798617E-01  0.51100000000E-03 0.  1.
</event>
<event>
 8    1  0.1128298E+005  0.1043930E+01  0.7957747E-01            NaN
         13   -1    0    0    0    0  0.00000000000E+00  0.00000000000E+00  0.74505805969E-08  0.10566000000E+00  0.10566000000E+00 0. -1.
     999900   -1    0    0    0    0 -0.00000000000E+00 -0.00000000000E+00 -0.74505805969E-08  0.93827000000E+00  0.93827000000E+00 0.  1.
     999902    2    1    2    0    0 -0.20956222759E-01  0.72817920759E-02  0.64505176158E-02  0.10208259539E+01  0.10205644670E+01 0.  0.
     999903    2    3    3    0    0 -0.11604840345E+00  0.63951230348E-01  0.31949905576E-02  0.13388483607E+00  0.18919554901E-01 0.  0.
         14    1    1    2    0    0  0.20956222759E-01 -0.72817920759E-02 -0.64505176158E-02  0.23104046089E-01  0.00000000000E+00 0.  1.
     999901    1    3    3    0    0  0.95092180694E-01 -0.56669438272E-01  0.32555270582E-02  0.88694111784E+00  0.88000000000E+00 0.  1.
        -11    1    4    4    0    0 -0.46533820228E-01  0.34648576973E-01  0.64401176616E-02  0.58375136383E-01  0.51100000000E-03 0.  1.
         11    1    4    4    0    0 -0.69514583225E-01  0.29302653374E-01 -0.32451271040E-02  0.75509699686E-01  0.51100000000E-03 0. -1.
</event>
<event>
 8    1  0.1128298E+005  0.1043930E+01  0.7957747E-01            NaN
         13   -1    0    0    0    0  0.00000000000E+00  0.00000000000E+00  0.74505805969E-08  0.10566000000E+00  0.10566000000E+00 0.  1.
     999900   -1    0    0    0    0 -0.00000000000E+00 -0.00000000000E+00 -0.74505805969E-08  0.93827000000E+00  0.93827000000E+00 0. -1.
     999902    2    1    2    0    0 -0.18850595049E-01 -0.11907671453E-01 -0.11976927689E-01  0.10186202317E+01  0.10183057459E+01 0.  0.
     999903    2    3    3    0    0 -0.12149480672E+00  0.41836414453E-01  0.14888545047E-01  0.13061909739E+00  0.18121981020E-01 0.  0.
         14    1    1    2    0    0  0.18850595049E-01  0.11907671453E-01  0.11976927689E-01  0.25309768273E-01  0.00000000000E+00 0.  1.
     999901    1    3    3    0    0  0.10264421167E+00 -0.53744085906E-01 -0.26865472735E-01  0.88800113434E+00  0.88000000000E+00 0.  1.
        -11    1    4    4    0    0 -0.98116952179E-01  0.28483471675E-01  0.17143888404E-01  0.10359738652E+00  0.51100000000E-03 0. -1.
         11    1    4    4    0    0 -0.23377854537E-01  0.13352942777E-01 -0.22553433571E-02  0.27021710868E-01  0.51100000000E-03 0.  1.
</event>
<event>
 8    1  0.1128298E+005  0.1043930E+01  0.7957747E-01            NaN
         13   -1    0    0    0    0  0.00000000000E+00  0.00000000000E+00  0.74505805969E-08  0.10566000000E+00  0.10566000000E+00 0.  1.
     999900   -1    0    0    0    0 -0.00000000000E+00 -0.00000000000E+00 -0.74505805969E-08  0.93827000000E+00  0.93827000000E+00 0. -1.
     999902    2    1    2    0    0 -0.47396457767E-02  0.23261740036E-01 -0.51524039625E-02  0.10196376132E+01  0.10193481947E+01 0.  0.
     999903    2    3    3    0    0 -0.10533011533E+00 -0.71402147570E-01 -0.61259550205E-02  0.12886230929E+00  0.19371823847E-01 0.  0.
         14    1    1    2    0    0  0.47396457767E-02 -0.23261740036E-01  0.51524039625E-02  0.24292386836E-01  0.00000000000E+00 0. -1.
     999901    1    3    3    0    0  0.10059046955E+00  0.94663887606E-01  0.97355105799E-03  0.89077530387E+00  0.88000000000E+00 0. -1.
        -11    1    4    4    0    0 -0.97661028181E-02 -0.14483060824E-01 -0.30546440011E-03  0.17478279223E-01  0.51100000000E-03 0.  1.
         11    1    4    4    0    0 -0.95564012510E-01 -0.56919086746E-01 -0.58204906204E-02  0.11138403007E+00  0.51100000000E-03 0. -1.
</event>
<event>
 8    1  0.1128298E+005  0.1043930E+01  0.7957747E-01            NaN
         13   -1    0    0    0    0  0.00000000000E+00  0.00000000000E+00  0.74505805969E-08  0.10566000000E+00  0.10566000000E+00 0. -1.
     999900   -1    0    0    0    0 -0.00000000000E+00 -0.00000000000E+00 -0.74505805969E-08  0.93827000000E+00  0.93827000000E+00 0.  1.
     999902    2    1    2    0    0 -0.10894663001E-02  0.12721559927E-02 -0.23597227327E-01  0.10202734057E+01  0.10199991117E+01 0.  0.
     999903    2    3    3    0    0  0.81091132246E-01  0.97298155918E-01  0.22012209130E-01  0.13007406612E+00  0.19799556887E-01 0.  0.
         14    1    1    2    0    0  0.10894663001E-02 -0.12721559927E-02  0.23597227327E-01  0.23656594329E-01  0.00000000000E+00 0. -1.
     999901    1    3    3    0    0 -0.82180598546E-01 -0.96025999926E-01 -0.45609436457E-01  0.89019933955E+00  0.88000000000E+00 0. -1.
        -11    1    4    4    0    0  0.81216702121E-01  0.92913664111E-01  0.23041046412E-01  0.12553984476E+00  0.51100000000E-03 0.  1.
         11    1    4    4    0    0 -0.12556987543E-03  0.43844918075E-02 -0.10288372814E-02  0.45342213615E-02  0.51100000000E-03 0. -1.
</event>
<event>
 8    1  0.1128298E+005  0.1043930E+01  0.7957747E-01            NaN
         13   -1    0    0    0    0  0.00000000000E+00  0.00000000000E+00  0.74505805969E-08  0.10566000000E+00  0.10566000000E+00 0. -1.
     999900   -1    0    0    0    0 -0.00000000000E+00 -0.00000000000E+00 -0.74505805969E-08  0.93827000000E+00  0.93827000000E+00 0.  1.
     999902    2    1    2    0    0  0.20506309382E-01  0.72416337981E-02  0.14256608746E-01  0.10179261373E+01  0.10175939367E+01 0.  0.
     999903    2    3    3    0    0 -0.65048676296E-01  0.81095662022E-01  0.73217155410E-01  0.12874088146E+00  0.20140159560E-01 0.  0.
         14    1    1    2    0    0 -0.20506309382E-01 -0.72416337981E-02 -0.14256608746E-01  0.26003862742E-01  0.00000000000E+00 0.  1.
     999901    1    3    3    0    0  0.85554985679E-01 -0.73854028224E-01 -0.58960546664E-01  0.88918525579E+00  0.88000000000E+00 0.  1.
        -11    1    4    4    0    0 -0.27442871401E-01  0.49544439384E-01  0.42776381671E-01  0.70977761408E-01  0.51100000000E-03 0. -1.
         11    1    4    4    0    0 -0.37605804895E-01  0.31551222638E-01  0.30440773739E-01  0.57763120056E-01  0.51100000000E-03 0.  1.
</event>
<event>
 8    1  0.1128298E+005  0.1043930E+01  0.7957747E-01            NaN
         13   -1    0    0    0    0  0.00000000000E+00  0.00000000000E+00  0.74505805969E-08  0.10566000000E+00  0.10566000000E+00 0.  1.
     999900   -1    0    0    0    0 -0.00000000000E+00 -0.00000000000E+00 -0.74505805969E-08  0.93827000000E+00  0.93827000000E+00 0.  1.
     999902    2    1    2    0    0 -0.52743182037E-02  0.87483840077E-02 -0.21652035496E-01  0.10199891709E+01  0.10197081668E+01 0.  0.
     999903    2    3    3    0    0 -0.25373140250E-01  0.22006898889E-01  0.12203017943E+00  0.12801140790E+00  0.19169142300E-01 0.  0.
         14    1    1    2    0    0  0.52743182037E-02 -0.87483840077E-02  0.21652035496E-01  0.23940829066E-01  0.00000000000E+00 0.  1.
     999901    1    3    3    0    0  0.20098822047E-01 -0.13258514881E-01 -0.14368221492E+00  0.89197776304E+00  0.88000000000E+00 0.  1.
        -11    1    4    4    0    0 -0.15421072372E-01  0.37672506891E-02  0.73861656498E-01  0.75550030262E-01  0.51100000000E-03 0. -1.
         11    1    4    4    0    0 -0.99520678784E-02  0.18239648200E-01  0.48168522928E-01  0.52461377637E-01  0.51100000000E-03 0.  1.
</event>
<event>
 8    1  0.1128298E+005  0.1043930E+01  0.7957747E-01            NaN
         13   -1    0    0    0    0  0.00000000000E+00  0.00000000000E+00  0.74505805969E-08  0.10566000000E+00  0.10566000000E+00 0.  1.
     999900   -1    0    0    0    0 -0.00000000000E+00 -0.00000000000E+00 -0.74505805969E-08  0.93827000000E+00  0.93827000000E+00 0.  1.
     999902    2    1    2    0    0  0.14348308281E-01 -0.22658620294E-02  0.77609075568E-02  0.10274606416E+01  0.10273286379E+01 0.  0.
     999903    2    3    3    0    0 -0.28365267915E-01  0.13136643006E+00 -0.99052757556E-02  0.13617273459E+00  0.19574774244E-01 0.  0.
         14    1    1    2    0    0 -0.14348308281E-01  0.22658620294E-02 -0.77609075568E-02  0.16469358439E-01  0.00000000000E+00 0. -1.
     999901    1    3    3    0    0  0.42713576197E-01 -0.13363229209E+00  0.17666183312E-01  0.89128790697E+00  0.88000000000E+00 0.  1.
        -11    1    4    4    0    0 -0.54791538042E-02  0.57812108170E-01 -0.11122191653E-01  0.59128886728E-01  0.51100000000E-03 0. -1.
         11    1    4    4    0    0 -0.22886114111E-01  0.73554321892E-01  0.12169158979E-02  0.77043847862E-01  0.51100000000E-03 0.  1.
</event>
<event>
 8    1  0.1128298E+005  0.1043930E+01  0.7957747E-01            NaN
         13   -1    0    0    0    0  0.00000000000E+00  0.00000000000E+00  0.74505805969E-08  0.10566000000E+00  0.10566000000E+00 0.  1.
     999900   -1    0    0    0    0 -0.00000000000E+00 -0.00000000000E+00 -0.74505805969E-08  0.93827000000E+00  0.93827000000E+00 0. -1.
     999902    2    1    2    0    0 -0.46489532169E-02 -0.14033562221E-01  0.21036116669E-01  0.10182186827E+01  0.10178940092E+01 0.  0.
     999903    2    3    3    0    0 -0.20025726976E-01 -0.11248454949E+00 -0.56825115757E-01  0.12917908086E+00  0.20108145982E-01 0.  0.
         14    1    1    2    0    0  0.46489532169E-02  0.14033562221E-01 -0.21036116669E-01  0.25711317336E-01  0.00000000000E+00 0. -1.
     999901    1    3    3    0    0  0.15376773760E-01  0.98450987271E-01  0.77861232426E-01  0.88903960181E+00  0.88000000000E+00 0.  1.
        -11    1    4    4    0    0 -0.88796710329E-03 -0.62109268197E-01 -0.30699074681E-01  0.69289566233E-01  0.51100000000E-03 0. -1.
         11    1    4    4    0    0 -0.19137759873E-01 -0.50375281296E-01 -0.26126041076E-01  0.59889514624E-01  0.51100000000E-03 0.  1.
</event>
<event>
 8    1  0.1128298E+005  0.1043930E+01  0.7957747E-01            NaN
         13   -1    0    0    0    0  0.00000000000E+00  0.00000000000E+00  0.74505805969E-08  0.10566000000E+00  0.10566000000E+00 0.  1.
     999900   -1    0    0    0    0 -0.00000000000E+00 -0.00000000000E+00 -0.74505805969E-08  0.93827000000E+00  0.93827000000E+00 0.  1.
     999902    2    1    2    0    0  0.95513685201E-02 -0.11313874853E-02 -0.21267088333E-01  0.10205890976E+01  0.10203221591E+01 0.  0.
     999903    2    3    3    0    0  0.12429807622E+00 -0.71518930873E-02  0.36504384007E-01  0.13124068645E+00  0.19758198319E-01 0.  0.
         14    1    1    2    0    0 -0.95513685201E-02  0.11313874853E-02  0.21267088333E-01  0.23340902391E-01  0.00000000000E+00 0.  1.
     999901    1    3    3    0    0 -0.11474670770E+00  0.60205056020E-02 -0.57771472340E-01  0.88934841116E+00  0.88000000000E+00 0.  1.
        -11    1    4    4    0    0  0.11782841397E+00 -0.10432598982E-01  0.37026711209E-01  0.12395004124E+00  0.51100000000E-03 0. -1.
         11    1    4    4    0    0  0.64696622524E-02  0.32807058942E-02 -0.52232720245E-03  0.72906452068E-02  0.51100000000E-03 0.  1.
</event>
<event>
 8    1  0.1128298E+005  0.1043930E+01  0.7957747E-01            NaN
         13   -1    0    0    0    0  0.00000000000E+00  0.00000000000E+00  0.74505805969E-08  0.10566000000E+00  0.10566000000E+00 0. -1.
     999900   -1    0    0    0    0 -0.00000000000E+00 -0.00000000000E+00 -0.74505805969E-08  0.93827000000E+00  0.93827000000E+00 0.  1.
     999902    2    1    2    0    0 -0.10642205923E-01 -0.29757054947E-02  0.20554844809E-01  0.10205930547E+01  0.10203262078E+01 0.  0.
     999903    2    3    3    0    0  0.12192732906E+00 -0.31845088767E-01 -0.20766947667E-01  0.12923700160E+00  0.19762419281E-01 0.  0.
         14    1    1    2    0    0  0.10642205923E-01  0.29757054947E-02 -0.20554844809E-01  0.23336945284E-01  0.00000000000E+00 0.  1.
     999901    1    3    3    0    0 -0.13256953498E+00  0.28869383273E-01  0.41321792475E-01  0.89135605312E+00  0.88000000000E+00 0. -1.
        -11    1    4    4    0    0  0.59939584252E-01 -0.21096870973E-01 -0.18890116340E-01  0.66294263262E-01  0.51100000000E-03 0.  1.
         11    1    4    4    0    0  0.61987744810E-01 -0.10748217795E-01 -0.18768313273E-02  0.62942738336E-01  0.51100000000E-03 0. -1.
</event>
<event>
 8    1  0.1128298E+005  0.1043930E+01  0.7957747E-01            NaN
         13   -1    0    0    0    0  0.00000000000E+00  0.00000000000E+00  0.74505805969E-08  0.10566000000E+00  0.10566000000E+00 0. -1.
     999900   -1    0    0    0    0 -0.00000000000E+00 -0.00000000000E+00 -0.74505805969E-08  0.93827000000E+00  0.93827000000E+00 0. -1.
     999902    2    1    2    0    0 -0.21725024328E-02 -0.22305149967E-01  0.71478754042E-02  0.10204069984E+01  0.10201358296E+01 0.  0.
     999903    2    3    3    0    0  0.57852268036E-01 -0.11809202045E+00 -0.64429986798E-02  0.13307233239E+00  0.19342264757E-01 0.  0.
         14    1    1    2    0    0  0.21725024328E-02  0.22305149967E-01 -0.71478754042E-02  0.23523001608E-01  0.00000000000E+00 0.  1.
     999901    1    3    3    0    0 -0.60024770469E-01  0.95786870482E-01  0.13590874084E-01  0.88733466600E+00  0.88000000000E+00 0. -1.
        -11    1    4    4    0    0  0.26874829446E-01 -0.34698884078E-01 -0.40378982011E-02  0.44077599264E-01  0.51100000000E-03 0. -1.
         11    1    4    4    0    0  0.30977438590E-01 -0.83393136370E-01 -0.24051004787E-02  0.88994733128E-01  0.51100000000E-03 0.  1.
</event>
<event>
 8    1  0.1128298E+005  0.1043930E+01  0.7957747E-01            NaN
         13   -1    0    0    0    0  0.00000000000E+00  0.00000000000E+00  0.74505805969E-08  0.10566000000E+00  0.10566000000E+00 0.  1.
     999900   -1    0    0    0    0 -0.00000000000E+00 -0.00000000000E+00 -0.74505805969E-08  0.93827000000E+00  0.93827000000E+00 0. -1.
     999902    2    1    2    0    0  0.12228006131E-01 -0.14068921175E-01  0.16818921183E-02  0.10252140325E+01  0.10250431821E+01 0.  0.
     999903    2    3    3    0    0 -0.42571494970E-01  0.87091595783E-01 -0.89136464417E-01  0.13309049323E+00  0.19248165058E-01 0.  0.
         14    1    1    2    0    0 -0.12228006131E-01  0.14068921175E-01 -0.16818921183E-02  0.18715967462E-01  0.00000000000E+00 0.  1.
     999901    1    3    3    0    0  0.54799501101E-01 -0.10116051696E+00  0.90818356535E-01  0.89212353931E+00  0.88000000000E+00 0.  1.
        -11    1    4    4    0    0 -0.16305903618E-01  0.54764451090E-01 -0.49832239205E-01  0.75819132026E-01  0.51100000000E-03 0.  1.
         11    1    4    4    0    0 -0.26265591352E-01  0.32327144693E-01 -0.39304225212E-01  0.57271361199E-01  0.51100000000E-03 0. -1.
</event>
<event>
 8    1  0.1128298E+005  0.1043930E+01  0.7957747E-01            NaN
         13   -1    0    0    0    0  0.00000000000E+00  0.00000000000E+00  0.74505805969E-08  0.10566000000E+00  0.10566000000E+00 0.  1.
     999900   -1    0    0    0    0 -0.00000000000E+00 -0.00000000000E+00 -0.74505805969E-08  0.93827000000E+00  0.93827000000E+00 0.  1.
     999902    2    1    2    0    0  0.10247995509E-01 -0.21510097193E-01  0.83438045820E-02  0.10186847080E+01  0.10183718425E+01 0.  0.
     999903    2    3    3    0    0  0.91700745617E-01  0.67453077304E-01 -0.55456479750E-01  0.12816829984E+00  0.19817859477E-01 0.  0.
         14    1    1    2    0    0 -0.10247995509E-01  0.21510097193E-01 -0.83438045820E-02  0.25245291999E-01  0.00000000000E+00 0. -1.
     999901    1    3    3    0    0 -0.81452750108E-01 -0.88963174496E-01  0.63800284332E-01  0.89051640816E+00  0.88000000000E+00 0. -1.
        -11    1    4    4    0    0  0.10183655707E-01  0.76947353855E-03 -0.52650474881E-02  0.11501338146E-01  0.51100000000E-03 0.  1.
         11    1    4    4    0    0  0.81517089910E-01  0.66683603765E-01 -0.50191432262E-01  0.11666696170E+00  0.51100000000E-03 0. -1.
</event>
<event>
 8    1  0.1128298E+005  0.1043930E+01  0.7957747E-01            NaN
         13   -1    0    0    0    0  0.00000000000E+00  0.00000000000E+00  0.74505805969E-08  0.10566000000E+00  0.10566000000E+00 0. -1.
     999900   -1    0    0    0    0 -0.00000000000E+00 -0.00000000000E+00 -0.74505805969E-08  0.93827000000E+00  0.93827000000E+00 0.  1.
     999902    2    1    2    0    0 -0.28186458941E-02  0.17351517707E-01  0.15930085202E-01  0.10202068563E+01  0.10199309987E+01 0.  0.
     999903    2    3    3    0    0  0.88323229182E-01  0.94328424165E-01 -0.14773147078E-01  0.13162654257E+00  0.20210304680E-01 0.  0.
         14    1    1    2    0    0  0.28186458941E-02 -0.17351517707E-01 -0.15930085202E-01  0.23723143678E-01  0.00000000000E+00 0.  1.
     999901    1    3    3    0    0 -0.91141875076E-01 -0.76976906458E-01  0.30703232280E-01  0.88858031375E+00  0.88000000000E+00 0. -1.
        -11    1    4    4    0    0  0.55396811952E-01  0.69394946972E-01 -0.37453923647E-02  0.88874937551E-01  0.51100000000E-03 0.  1.
         11    1    4    4    0    0  0.32926417230E-01  0.24933477193E-01 -0.11027754713E-01  0.42751605017E-01  0.51100000000E-03 0. -1.
</event>
<event>
 8    1  0.1128298E+005  0.1043930E+01  0.7957747E-01            NaN
         13   -1    0    0    0    0  0.00000000000E+00  0.00000000000E+00  0.74505805969E-08  0.10566000000E+00  0.10566000000E+00 0. -1.
     999900   -1    0    0    0    0 -0.00000000000E+00 -0.00000000000E+00 -0.74505805969E-08  0.93827000000E+00  0.93827000000E+00 0. -1.
     999902    2    1    2    0    0  0.16364203895E-01  0.13327608983E-01 -0.96513510196E-02  0.10207230849E+01  0.10204592374E+01 0.  0.
     999903    2    3    3    0    0 -0.73460700545E-02  0.12893098431E+00 -0.17393693552E-01  0.13281190619E+00  0.25676806442E-01 0.  0.
         14    1    1    2    0    0 -0.16364203895E-01 -0.13327608983E-01  0.96513510196E-02  0.23206915065E-01  0.00000000000E+00 0.  1.
     999901    1    3    3    0    0  0.23710273950E-01 -0.11560337533E+00  0.77423425320E-02  0.88791117875E+00  0.88000000000E+00 0. -1.
        -11    1    4    4    0    0  0.48096861673E-02  0.29042827697E-01 -0.12731515195E-01  0.32077585973E-01  0.51100000000E-03 0. -1.
         11    1    4    4    0    0 -0.12155756222E-01  0.99888156614E-01 -0.46621783562E-02  0.10073432021E+00  0.51100000000E-03 0.  1.
</event>
<event>
 7    1  0.1128298E+005  0.1043930E+01  0.7957747E-01            NaN
         13   -1    0    0    0    0  0.00000000000E+00  0.00000000000E+00  0.74505805969E-08  0.10566000000E+00  0.10566000000E+00 0. -1.
     999900   -1    0    0    0    0 -0.00000000000E+00 -0.00000000000E+00 -0.74505805969E-08  0.93827000000E+00  0.93827000000E+00 0. -1.
     999903    2    1    2    0    0 -0.65630380906E-01 -0.12177130186E-01 -0.42063879574E-01  0.81363152912E-01  0.19873683342E-01 0.  0.
         14    1    1    2    0    0 -0.48355222924E-01  0.51753311589E-01 -0.15375798697E-01  0.72477914085E-01  0.00000000000E+00 0. -1.
     999901    1    1    2    0    0  0.11398560383E+00 -0.39576181403E-01  0.57439678271E-01  0.89008893300E+00  0.88000000000E+00 0. -1.
        -11    1    3    3    0    0 -0.63983258354E-01 -0.72132572776E-02 -0.38794985550E-01  0.75174466776E-01  0.51100000000E-03 0.  1.
         11    1    3    3    0    0 -0.16471225512E-02 -0.49638729087E-02 -0.32688940244E-02  0.61886861364E-02  0.51100000000E-03 0. -1.
</event>
<event>
 8    1  0.1128298E+005  0.1043930E+01  0.7957747E-01            NaN
         13   -1    0    0    0    0  0.00000000000E+00  0.00000000000E+00  0.74505805969E-08  0.10566000000E+00  0.10566000000E+00 0.  1.
     999900   -1    0    0    0    0 -0.00000000000E+00 -0.00000000000E+00 -0.74505805969E-08  0.93827000000E+00  0.93827000000E+00 0.  1.
     999902    2    1    2    0    0 -0.30241733383E-02  0.22302045213E-01 -0.55045943334E-02  0.10207604639E+01  0.10204974754E+01 0.  0.
     999903    2    3    3    0    0  0.90017959581E-01  0.73515640583E-01 -0.60956930764E-01  0.13264187244E+00  0.19244127924E-01 0.  0.
         14    1    1    2    0    0  0.30241733383E-02 -0.22302045213E-01  0.55045943334E-02  0.23169536116E-01  0.00000000000E+00 0. -1.
     999901    1    3    3    0    0 -0.93042132919E-01 -0.51213595370E-01  0.55452336430E-01  0.88811859144E+00  0.88000000000E+00 0.  1.
        -11    1    4    4    0    0  0.16397664236E-01  0.11649312943E-01 -0.29482011628E-02  0.20335754117E-01  0.51100000000E-03 0. -1.
         11    1    4    4    0    0  0.73620295345E-01  0.61866327640E-01 -0.58008729601E-01  0.11230611833E+00  0.51100000000E-03 0.  1.
</event>
<event>
 8    1  0.1128298E+005  0.1043930E+01  0.7957747E-01            NaN
         13   -1    0    0    0    0  0.00000000000E+00  0.00000000000E+00  0.74505805969E-08  0.10566000000E+00  0.10566000000E+00 0.  1.
     999900   -1    0    0    0    0 -0.00000000000E+00 -0.00000000000E+00 -0.74505805969E-08  0.93827000000E+00  0.93827000000E+00 0.  1.
     999902    2    1    2    0    0 -0.10606923711E-01 -0.54118207958E-02  0.19588916029E-01  0.10210057712E+01  0.10207483845E+01 0.  0.
     999903    2    3    3    0    0  0.50713673568E-01  0.10096001778E+00 -0.58838139239E-01  0.12902707936E+00  0.20524587751E-01 0.  0.
         14    1    1    2    0    0  0.10606923711E-01  0.54118207958E-02 -0.19588916029E-01  0.22924228801E-01  0.00000000000E+00 0. -1.
     999901    1    3    3    0    0 -0.61320597279E-01 -0.10637183858E+00  0.78427055268E-01  0.89197869184E+00  0.88000000000E+00 0. -1.
        -11    1    4    4    0    0  0.16840691496E-01  0.19897995854E-01 -0.69140588619E-02  0.26974144286E-01  0.51100000000E-03 0. -1.
         11    1    4    4    0    0  0.33872982073E-01  0.81062021928E-01 -0.51924080377E-01  0.10205293508E+00  0.51100000000E-03 0.  1.
</event>
<event>
 8    1  0.1128298E+005  0.1043930E+01  0.7957747E-01            NaN
         13   -1    0    0    0    0  0.00000000000E+00  0.00000000000E+00  0.74505805969E-08  0.10566000000E+00  0.10566000000E+00 0.  1.
     999900   -1    0    0    0    0 -0.00000000000E+00 -0.00000000000E+00 -0.74505805969E-08  0.93827000000E+00  0.93827000000E+00 0. -1.
     999902    2    1    2    0    0 -0.99106131489E-02  0.11038650379E-01  0.17846520034E-01  0.10207228819E+01  0.10204590297E+01 0.  0.
     999903    2    3    3    0    0  0.27175126588E-01  0.15412436856E-01  0.12773663452E+00  0.13310228759E+00  0.20580098401E-01 0.  0.
         14    1    1    2    0    0  0.99106131489E-02 -0.11038650379E-01 -0.17846520034E-01  0.23207118143E-01  0.00000000000E+00 0. -1.
     999901    1    3    3    0    0 -0.37085739737E-01 -0.43737864778E-02 -0.10989011448E+00  0.88762059426E+00  0.88000000000E+00 0. -1.
        -11    1    4    4    0    0  0.10139537525E-01  0.17436914169E-01  0.64930156231E-01  0.67992959239E-01  0.51100000000E-03 0. -1.
         11    1    4    4    0    0  0.17035589064E-01 -0.20244773131E-02  0.62806478286E-01  0.65109328355E-01  0.51100000000E-03 0.  1.
</event>
<event>
 8    1  0.1128298E+005  0.1043930E+01  0.7957747E-01            NaN
         13   -1    0    0    0    0  0.00000000000E+00  0.00000000000E+00  0.74505805969E-08  0.10566000000E+00  0.10566000000E+00 0. -1.
     999900   -1    0    0    0    0 -0.00000000000E+00 -0.00000000000E+00 -0.74505805969E-08  0.93827000000E+00  0.93827000000E+00 0.  1.
     999902    2    1    2    0    0 -0.97882062830E-02 -0.20902348855E-01 -0.46009984899E-02  0.10203952096E+01  0.10201237658E+01 0.  0.
     999903    2    3    3    0    0  0.89082169972E-01  0.33478524841E-01 -0.85452143471E-01  0.12951388289E+00  0.20379705692E-01 0.  0.
         14    1    1    2    0    0  0.97882062830E-02  0.20902348855E-01  0.46009984899E-02  0.23534790354E-01  0.00000000000E+00 0. -1.
     999901    1    3    3    0    0 -0.98870376255E-01 -0.54380873696E-01  0.80851144981E-01  0.89088132676E+00  0.88000000000E+00 0.  1.
        -11    1    4    4    0    0  0.70801624151E-01  0.17960961572E-01 -0.68536151650E-01  0.10016452130E+00  0.51100000000E-03 0. -1.
         11    1    4    4    0    0  0.18280545821E-01  0.15517563269E-01 -0.16915991821E-01  0.29349361587E-01  0.51100000000E-03 0.  1.
</event>
<event>
 8    1  0.1128298E+005  0.1043930E+01  0.7957747E-01            NaN
         13   -1    0    0    0    0  0.00000000000E+00  0.00000000000E+00  0.74505805969E-08  0.10566000000E+00  0.10566000000E+00 0. -1.
     999900   -1    0    0    0    0 -0.00000000000E+00 -0.00000000000E+00 -0.74505805969E-08  0.93827000000E+00  0.93827000000E+00 0.  1.
     999902    2    1    2    0    0  0.10433329621E-01  0.62614539870E-02 -0.20126858454E-01  0.10204108460E+01  0.10201397669E+01 0.  0.
     999903    2    3    3    0    0 -0.16472185843E-01 -0.12439282547E+00  0.23155841549E-01  0.12930600391E+00  0.20950935868E-01 0.  0.
         14    1    1    2    0    0 -0.10433329621E-01 -0.62614539870E-02  0.20126858454E-01  0.23519153987E-01  0.00000000000E+00 0. -1.
     999901    1    3    3    0    0  0.26905515463E-01  0.13065427946E+00 -0.43282700003E-01  0.89110484210E+00  0.88000000000E+00 0. -1.
        -11    1    4    4    0    0  0.41520223204E-02 -0.15835017534E-01 -0.12806014730E-03  0.16378784755E-01  0.51100000000E-03 0. -1.
         11    1    4    4    0    0 -0.20624208163E-01 -0.10855780794E+00  0.23283901696E-01  0.11292721915E+00  0.51100000000E-03 0.  1.
</event>
<event>
 8    1  0.1128298E+005  0.1043930E+01  0.7957747E-01            NaN
         13   -1    0    0    0    0  0.00000000000E+00  0.00000000000E+00  0.74505805969E-08  0.10566000000E+00  0.10566000000E+00 0. -1.
     999900   -1    0    0    0    0 -0.00000000000E+00 -0.00000000000E+00 -0.74505805969E-08  0.93827000000E+00  0.93827000000E+00 0. -1.
     999902    2    1    2    0    0  0.81982444599E-02 -0.12398526925E-03  0.21873620993E-01  0.10205701652E+01  0.10203027885E+01 0.  0.
     999903    2    3    3    0    0  0.39549917674E-01 -0.14761876184E-01 -0.12005617245E+00  0.12852685826E+00  0.17987767332E-01 0.  0.
         14    1    1    2    0    0 -0.81982444599E-02  0.12398526925E-03 -0.21873620993E-01  0.23359834758E-01  0.00000000000E+00 0.  1.
     999901    1    3    3    0    0 -0.31351673214E-01  0.14637890915E-01  0.14192979345E+00  0.89204330698E+00  0.88000000000E+00 0.  1.
        -11    1    4    4    0    0  0.19986721271E-01 -0.11943561912E-01 -0.86487112699E-01  0.89567848486E-01  0.51100000000E-03 0.  1.
         11    1    4    4    0    0  0.19563196402E-01 -0.28183142713E-02 -0.33569059754E-01  0.38959009774E-01  0.51100000000E-03 0. -1.
</event>
<event>
 8    1  0.1128298E+005  0.1043930E+01  0.7957747E-01            NaN
         13   -1    0    0    0    0  0.00000000000E+00  0.00000000000E+00  0.74505805969E-08  0.10566000000E+00  0.10566000000E+00 0.  1.
     999900   -1    0    0    0    0 -0.00000000000E+00 -0.00000000000E+00 -0.74505805969E-08  0.93827000000E+00  0.93827000000E+00 0.  1.
     999902    2    1    2    0    0  0.47969873517E-02  0.20523357535E-01  0.11683886285E-01  0.10198316081E+01  0.10195468486E+01 0.  0.
     999903    2    3    3    0    0 -0.10059686662E+00  0.54660699022E-01 -0.58478009149E-01  0.13011484752E+00  0.20066748576E-01 0.  0.
         14    1    1    2    0    0 -0.47969873517E-02 -0.20523357535E-01 -0.11683886285E-01  0.24098391873E-01  0.00000000000E+00 0. -1.
     999901    1    3    3    0    0  0.10539385397E+00 -0.34137341487E-01  0.70161895434E-01  0.88971676061E+00  0.88000000000E+00 0. -1.
        -11    1    4    4    0    0 -0.50363464888E-01  0.33659862654E-01 -0.40099743239E-01  0.72647886949E-01  0.51100000000E-03 0.  1.
         11    1    4    4    0    0 -0.50233401735E-01  0.21000836368E-01 -0.18378265911E-01  0.57466960568E-01  0.51100000000E-03 0. -1.
</event>
<event>
 8    1  0.1128298E+005  0.1043930E+01  0.7957747E-01            NaN
         13   -1    0    0    0    0  0.00000000000E+00  0.00000000000E+00  0.74505805969E-08  0.10566000000E+00  0.10566000000E+00 0.  1.
     999900   -1    0    0    0    0 -0.00000000000E+00 -0.00000000000E+00 -0.74505805969E-08  0.93827000000E+00  0.93827000000E+00 0.  1.
     999902    2    1    2    0    0  0.20009134752E-01  0.23535381954E-02 -0.12954445079E-01  0.10199774999E+01  0.10196962185E+01 0.  0.
     999903    2    3    3    0    0 -0.76899815118E-01 -0.80872643218E-01  0.58214025455E-01  0.12791085827E+00  0.22767277351E-01 0.  0.
         14    1    1    2    0    0 -0.20009134752E-01 -0.23535381954E-02  0.12954445079E-01  0.23952500138E-01  0.00000000000E+00 0.  1.
     999901    1    3    3    0    0  0.96908949871E-01  0.83226181414E-01 -0.71168470534E-01  0.89206664159E+00  0.88000000000E+00 0. -1.
        -11    1    4    4    0    0 -0.51576503048E-01 -0.43684192108E-01  0.44292904157E-01  0.80811922304E-01  0.51100000000E-03 0.  1.
         11    1    4    4    0    0 -0.25323312071E-01 -0.37188451110E-01  0.13921121298E-01  0.47098935969E-01  0.51100000000E-03 0. -1.
</event>
<event>
 8    1  0.1128298E+005  0.1043930E+01  0.7957747E-01            NaN
         13   -1    0    0    0    0  0.00000000000E+00  0.00000000000E+00  0.74505805969E-08  0.10566000000E+00  0.10566000000E+00 0.  1.
     999900   -1    0    0    0    0 -0.00000000000E+00 -0.00000000000E+00 -0.74505805969E-08  0.93827000000E+00  0.93827000000E+00 0.  1.
     999902    2    1    2    0    0 -0.20441444602E-01  0.15051183641E-01  0.49258110681E-02  0.10180716474E+01  0.10177432018E+01 0.  0.
     999903    2    3    3    0    0  0.10942479368E+00  0.48590158558E-01  0.38451447979E-01  0.12727757968E+00  0.19653993433E-01 0.  0.
         14    1    1    2    0    0  0.20441444602E-01 -0.15051183641E-01 -0.49258110681E-02  0.25858352637E-01  0.00000000000E+00 0. -1.
     999901    1    3    3    0    0 -0.12986623828E+00 -0.33538974917E-01 -0.33525636911E-01  0.89079406768E+00  0.88000000000E+00 0.  1.
        -11    1    4    4    0    0  0.32889158618E-01  0.23668085769E-01  0.17231734041E-01  0.44034859119E-01  0.51100000000E-03 0.  1.
         11    1    4    4    0    0  0.76535635061E-01  0.24922072789E-01  0.21219713939E-01  0.83242720564E-01  0.51100000000E-03 0. -1.
</event>
<event>
 8    1  0.1128298E+005  0.1043930E+01  0.7957747E-01            NaN
         13   -1    0    0    0    0  0.00000000000E+00  0.00000000000E+00  0.74505805969E-08  0.10566000000E+00  0.10566000000E+00 0.  1.
     999900   -1    0    0    0    0 -0.00000000000E+00 -0.00000000000E+00 -0.74505805969E-08  0.93827000000E+00  0.93827000000E+00 0. -1.
     999902    2    1    2    0    0  0.63603079988E-03 -0.18506234582E-01 -0.17131303750E-01  0.10187036879E+01  0.10183912985E+01 0.  0.
     999903    2    3    3    0    0  0.11069972418E+00  0.16332962777E-01  0.58212889443E-01  0.12797110530E+00  0.21602515779E-01 0.  0.
         14    1    1    2    0    0 -0.63603079988E-03  0.18506234582E-01  0.17131303750E-01  0.25226312093E-01  0.00000000000E+00 0.  1.
     999901    1    3    3    0    0 -0.11006369338E+00 -0.34839197360E-01 -0.75344193193E-01  0.89073258261E+00  0.88000000000E+00 0.  1.
        -11    1    4    4    0    0  0.50934806745E-01  0.11628746316E-01  0.15979153395E-01  0.54636770981E-01  0.51100000000E-03 0.  1.
         11    1    4    4    0    0  0.59764917433E-01  0.47042164613E-02  0.42233736047E-01  0.73334334317E-01  0.51100000000E-03 0. -1.
</event>
<event>
 8    1  0.1128298E+005  0.1043930E+01  0.7957747E-01            NaN
         13   -1    0    0    0    0  0.00000000000E+00  0.00000000000E+00  0.74505805969E-08  0.10566000000E+00  0.10566000000E+00 0. -1.
     999900   -1    0    0    0    0 -0.00000000000E+00 -0.00000000000E+00 -0.74505805969E-08  0.93827000000E+00  0.93827000000E+00 0.  1.
     999902    2    1    2    0    0  0.19976230014E-01 -0.11652151117E-01 -0.54157244412E-02  0.10201781061E+01  0.10199015716E+01 0.  0.
     999903    2    3    3    0    0 -0.97275819518E-01 -0.51860046369E-01 -0.64983791057E-01  0.12949686544E+00  0.19861912944E-01 0.  0.
         14    1    1    2    0    0 -0.19976230014E-01  0.11652151117E-01  0.54157244412E-02  0.23751893871E-01  0.00000000000E+00 0. -1.
     999901    1    3    3    0    0  0.11725204953E+00  0.40207895252E-01  0.59568066616E-01  0.89068124069E+00  0.88000000000E+00 0. -1.
        -11    1    4    4    0    0 -0.73469871814E-01 -0.28958150440E-01 -0.45534296352E-01  0.91159364887E-01  0.51100000000E-03 0.  1.
         11    1    4    4    0    0 -0.23805947704E-01 -0.22901895929E-01 -0.19449494705E-01  0.38337500551E-01  0.51100000000E-03 0. -1.
</event>
<event>
 8    1  0.1128298E+005  0.1043930E+01  0.7957747E-01            NaN
         13   -1    0    0    0    0  0.00000000000E+00  0.00000000000E+00  0.74505805969E-08  0.10566000000E+00  0.10566000000E+00 0.  1.
     999900   -1    0    0    0    0 -0.00000000000E+00 -0.00000000000E+00 -0.74505805969E-08  0.93827000000E+00  0.93827000000E+00 0.  1.
     999902    2    1    2    0    0  0.92919541774E-02  0.16570426317E-01 -0.12762925860E-01  0.10210430667E+01  0.10207865263E+01 0.  0.
     999903    2    3    3    0    0 -0.46617652487E-01 -0.79640314682E-01  0.86910174954E-01  0.12845294919E+00  0.20760452750E-01 0.  0.
         14    1    1    2    0    0 -0.92919541774E-02 -0.16570426317E-01  0.12762925860E-01  0.22886933330E-01  0.00000000000E+00 0.  1.
     999901    1    3    3    0    0  0.55909606664E-01  0.96210740999E-01 -0.99673100814E-01  0.89259011748E+00  0.88000000000E+00 0.  1.
        -11    1    4    4    0    0 -0.26618319231E-01 -0.48871285779E-01  0.65550688355E-01  0.85988902523E-01  0.51100000000E-03 0. -1.
         11    1    4    4    0    0 -0.19999333256E-01 -0.30769028903E-01  0.21359486599E-01  0.42464046664E-01  0.51100000000E-03 0.  1.
</event>
<event>
 8    1  0.1128298E+005  0.1043930E+01  0.7957747E-01            NaN
         13   -1    0    0    0    0  0.00000000000E+00  0.00000000000E+00  0.74505805969E-08  0.10566000000E+00  0.10566000000E+00 0. -1.
     999900   -1    0    0    0    0 -0.00000000000E+00 -0.00000000000E+00 -0.74505805969E-08  0.93827000000E+00  0.93827000000E+00 0.  1.
     999902    2    1    2    0    0 -0.22189458467E-01  0.47687793549E-04 -0.31708669669E-02  0.10215150778E+01  0.10212691249E+01 0.  0.
     999903    2    3    3    0    0  0.42966470064E-01  0.10166442570E+00  0.66722006615E-01  0.13052895542E+00  0.20104950444E-01 0.  0.
         14    1    1    2    0    0  0.22189458467E-01 -0.47687793549E-04  0.31708669669E-02  0.22414922229E-01  0.00000000000E+00 0.  1.
     999901    1    3    3    0    0 -0.65155928532E-01 -0.10161673791E+00 -0.69892873582E-01  0.89098612235E+00  0.88000000000E+00 0. -1.
        -11    1    4    4    0    0  0.27897956748E-01  0.82291757033E-01  0.45533229008E-01  0.98100791695E-01  0.51100000000E-03 0. -1.
         11    1    4    4    0    0  0.15068513317E-01  0.19372668672E-01  0.21188777607E-01  0.32428163724E-01  0.51100000000E-03 0.  1.
</event>
<event>
 8    1  0.1128298E+005  0.1043930E+01  0.7957747E-01            NaN
         13   -1    0    0    0    0  0.00000000000E+00  0.00000000000E+00  0.74505805969E-08  0.10566000000E+00  0.10566000000E+00 0. -1.
     999900   -1    0    0    0    0 -0.00000000000E+00 -0.00000000000E+00 -0.74505805969E-08  0.93827000000E+00  0.93827000000E+00 0.  1.
     999902    2    1    2    0    0 -0.94063370055E-02  0.82213147632E-02  0.19794084149E-01  0.10205232711E+01  0.10202548073E+01 0.  0.
     999903    2    3    3    0    0 -0.10751431070E+00  0.34700299695E-01 -0.63099734622E-01  0.13080550888E+00  0.19106722403E-01 0.  0.
         14    1    1    2    0    0  0.94063370055E-02 -0.82213147632E-02 -0.19794084149E-01  0.23406728938E-01  0.00000000000E+00 0.  1.
     999901    1    3    3    0    0  0.98107973693E-01 -0.26478984931E-01  0.82893818771E-01  0.88971776218E+00  0.88000000000E+00 0.  1.
        -11    1    4    4    0    0 -0.22365158729E-01  0.10563920787E-01 -0.22465496812E-01  0.33417905610E-01  0.51100000000E-03 0. -1.
         11    1    4    4    0    0 -0.85149151969E-01  0.24136378908E-01 -0.40634237810E-01  0.97387603273E-01  0.51100000000E-03 0.  1.
</event>
<event>
 8    1  0.1128298E+005  0.1043930E+01  0.7957747E-01            NaN
         13   -1    0    0    0    0  0.00000000000E+00  0.00000000000E+00  0.74505805969E-08  0.10566000000E+00  0.10566000000E+00 0. -1.
     999900   -1    0    0    0    0 -0.00000000000E+00 -0.00000000000E+00 -0.74505805969E-08  0.93827000000E+00  0.93827000000E+00 0. -1.
     999902    2    1    2    0    0  0.12513841358E-01  0.97290146344E-03  0.19184079250E-01  0.10210046503E+01  0.10207472382E+01 0.  0.
     999903    2    3    3    0    0 -0.90905702668E-01  0.69262829677E-01 -0.56663386513E-01  0.12908988169E+00  0.19805853447E-01 0.  0.
         14    1    1    2    0    0 -0.12513841358E-01 -0.97290146344E-03 -0.19184079250E-01  0.22925349713E-01  0.00000000000E+00 0.  1.
     999901    1    3    3    0    0  0.10341954403E+00 -0.68289928214E-01  0.75847465763E-01  0.89191476860E+00  0.88000000000E+00 0. -1.
        -11    1    4    4    0    0 -0.19213688057E-01  0.24804322282E-01 -0.19183930246E-01  0.36779131492E-01  0.51100000000E-03 0.  1.
         11    1    4    4    0    0 -0.71692014611E-01  0.44458507396E-01 -0.37479456267E-01  0.92310750196E-01  0.51100000000E-03 0. -1.
</event>
<event>
 8    1  0.1128298E+005  0.1043930E+01  0.7957747E-01            NaN
         13   -1    0    0    0    0  0.00000000000E+00  0.00000000000E+00  0.74505805969E-08  0.10566000000E+00  0.10566000000E+00 0.  1.
     999900   -1    0    0    0    0 -0.00000000000E+00 -0.00000000000E+00 -0.74505805969E-08  0.93827000000E+00  0.93827000000E+00 0. -1.
     999902    2    1    2    0    0 -0.11837023848E-01 -0.13848340865E-01 -0.15697373485E-01  0.10198821474E+01  0.10195985953E+01 0.  0.
     999903    2    3    3    0    0  0.24230481119E-01 -0.90352838795E-01  0.86477922399E-01  0.12994192799E+00  0.25607067241E-01 0.  0.
         14    1    1    2    0    0  0.11837023848E-01  0.13848340865E-01  0.15697373485E-01  0.24047852557E-01  0.00000000000E+00 0.  1.
     999901    1    3    3    0    0 -0.36067504967E-01  0.76504497931E-01 -0.10217529588E+00  0.88994021946E+00  0.88000000000E+00 0. -1.
        -11    1    4    4    0    0 -0.56991373489E-03 -0.44807662318E-01  0.34924963606E-01  0.56816068220E-01  0.51100000000E-03 0. -1.
         11    1    4    4    0    0  0.24800394854E-01 -0.45545176477E-01  0.51552958793E-01  0.73125859766E-01  0.51100000000E-03 0.  1.
</event>
<event>
 7    1  0.1128298E+005  0.1043930E+01  0.7957747E-01            NaN
         13   -1    0    0    0    0  0.00000000000E+00  0.00000000000E+00  0.74505805969E-08  0.10566000000E+00  0.10566000000E+00 0. -1.
     999900   -1    0    0    0    0 -0.00000000000E+00 -0.00000000000E+00 -0.74505805969E-08  0.93827000000E+00  0.93827000000E+00 0.  1.
     999903    2    1    2    0    0  0.11691400411E+00 -0.11971357424E-01 -0.18740651453E-02  0.11911866386E+00  0.19327343439E-01 0.  0.
         14    1    1    2    0    0 -0.25090813326E-01  0.18930981847E-01  0.24288709114E-01  0.39722441736E-01  0.00000000000E+00 0. -1.
     999901    1    1    2    0    0 -0.91823190781E-01 -0.69596244225E-02 -0.22414643968E-01  0.88508889441E+00  0.88000000000E+00 0. -1.
        -11    1    3    3    0    0  0.75600624333E-01  0.15828558210E-02 -0.15205395060E-02  0.75634205181E-01  0.51100000000E-03 0. -1.
         11    1    3    3    0    0  0.41313379774E-01 -0.13554213245E-01 -0.35352563930E-03  0.43484458677E-01  0.51100000000E-03 0.  1.
</event>
<event>
 8    1  0.1128298E+005  0.1043930E+01  0.7957747E-01            NaN
         13   -1    0    0    0    0  0.00000000000E+00  0.00000000000E+00  0.74505805969E-08  0.10566000000E+00  0.10566000000E+00 0.  1.
     999900   -1    0    0    0    0 -0.00000000000E+00 -0.00000000000E+00 -0.74505805969E-08  0.93827000000E+00  0.93827000000E+00 0. -1.
     999902    2    1    2    0    0 -0.10990307526E-01 -0.10006867371E-01  0.62651509465E-02  0.10278000164E+01  0.10276734391E+01 0.  0.
     999903    2    3    3    0    0 -0.40532261816E-01 -0.13073373829E+00 -0.12019259159E-01  0.13887818404E+00  0.20211700471E-01 0.  0.
         14    1    1    2    0    0  0.10990307526E-01  0.10006867371E-01 -0.62651509465E-02  0.16129983586E-01  0.00000000000E+00 0. -1.
     999901    1    3    3    0    0  0.29541954289E-01  0.12072687092E+00  0.18284410105E-01  0.88892183238E+00  0.88000000000E+00 0. -1.
        -11    1    4    4    0    0 -0.44326328317E-02 -0.18648466275E-01  0.52052175382E-02  0.19868793090E-01  0.51100000000E-03 0.  1.
         11    1    4    4    0    0 -0.36099628984E-01 -0.11208527201E+00 -0.17224476697E-01  0.11900939095E+00  0.51100000000E-03 0. -1.
</event>
<event>
 8    1  0.1128298E+005  0.1043930E+01  0.7957747E-01            NaN
         13   -1    0    0    0    0  0.00000000000E+00  0.00000000000E+00  0.74505805969E-08  0.10566000000E+00  0.10566000000E+00 0. -1.
     999900   -1    0    0    0    0 -0.00000000000E+00 -0.00000000000E+00 -0.74505805969E-08  0.93827000000E+00  0.93827000000E+00 0.  1.
     999902    2    1    2    0    0 -0.22878224969E-01  0.46231378906E-03  0.13158599627E-02  0.10210093019E+01  0.10207519955E+01 0.  0.
     999903    2    3    3    0    0 -0.36622959368E-01 -0.52996678728E-02 -0.12503464378E+00  0.13185995119E+00  0.19597371022E-01 0.  0.
         14    1    1    2    0    0  0.22878224969E-01 -0.46231378906E-03 -0.13158599627E-02  0.22920698053E-01  0.00000000000E+00 0. -1.
     999901    1    3    3    0    0  0.13744734399E-01  0.57619816618E-02  0.12635050374E+00  0.88914935076E+00  0.88000000000E+00 0. -1.
        -11    1    4    4    0    0 -0.19274709135E-01 -0.12591389421E-01 -0.66789236775E-01  0.70647864580E-01  0.51100000000E-03 0.  1.
         11    1    4    4    0    0 -0.17348250233E-01  0.72917215481E-02 -0.58245407003E-01  0.61212086610E-01  0.51100000000E-03 0. -1.
</event>
<event>
 8    1  0.1128298E+005  0.1043930E+01  0.7957747E-01            NaN
         13   -1    0    0    0    0  0.00000000000E+00  0.00000000000E+00  0.74505805969E-08  0.10566000000E+00  0.10566000000E+00 0.  1.
     999900   -1    0    0    0    0 -0.00000000000E+00 -0.00000000000E+00 -0.74505805969E-08  0.93827000000E+00  0.93827000000E+00 0. -1.
     999902    2    1    2    0    0  0.17421772477E-01 -0.12356507712E-01 -0.96893097793E-02  0.10204761269E+01  0.10202065680E+01 0.  0.
     999903    2    3    3    0    0  0.84067235091E-01  0.66883715622E-02 -0.10088736775E+00  0.13305209585E+00  0.20311693898E-01 0.  0.
         14    1    1    2    0    0 -0.17421772477E-01  0.12356507712E-01  0.96893097793E-02  0.23453873093E-01  0.00000000000E+00 0.  1.
     999901    1    3    3    0    0 -0.66645462614E-01 -0.19044879274E-01  0.91198057973E-01  0.88742403105E+00  0.88000000000E+00 0.  1.
        -11    1    4    4    0    0  0.81074283853E-01  0.30145762471E-02 -0.98815991822E-01  0.12785534222E+00  0.51100000000E-03 0. -1.
         11    1    4    4    0    0  0.29929512381E-02  0.36737953150E-02 -0.20713759301E-02  0.51967536380E-02  0.51100000000E-03 0.  1.
</event>
<event>
 8    1  0.1128298E+005  0.1043930E+01  0.7957747E-01            NaN
         13   -1    0    0    0    0  0.00000000000E+00  0.00000000000E+00  0.74505805969E-08  0.10566000000E+00  0.10566000000E+00 0. -1.
     999900   -1    0    0    0    0 -0.00000000000E+00 -0.00000000000E+00 -0.74505805969E-08  0.93827000000E+00  0.93827000000E+00 0.  1.
     999902    2    1    2    0    0  0.15948881163E-01  0.22184293393E-02  0.12921814520E-01  0.10232838980E+01  0.10230755956E+01 0.  0.
     999903    2    3    3    0    0  0.91584770870E-01  0.37280022832E-01  0.90949527262E-01  0.13590662357E+00  0.20523729251E-01 0.  0.
         14    1    1    2    0    0 -0.15948881163E-01 -0.22184293393E-02 -0.12921814520E-01  0.20646102043E-01  0.00000000000E+00 0.  1.
     999901    1    3    3    0    0 -0.75635889707E-01 -0.35061593492E-01 -0.78027712742E-01  0.88737727439E+00  0.88000000000E+00 0. -1.
        -11    1    4    4    0    0  0.41517246686E-01  0.23226254124E-01  0.32207978177E-01  0.57452203023E-01  0.51100000000E-03 0.  1.
         11    1    4    4    0    0  0.50067524184E-01  0.14053768708E-01  0.58741549085E-01  0.78454420543E-01  0.51100000000E-03 0. -1.
</event>
<event>
 8    1  0.1128298E+005  0.1043930E+01  0.7957747E-01            NaN
         13   -1    0    0    0    0  0.00000000000E+00  0.00000000000E+00  0.74505805969E-08  0.10566000000E+00  0.10566000000E+00 0. -1.
     999900   -1    0    0    0    0 -0.00000000000E+00 -0.00000000000E+00 -0.74505805969E-08  0.93827000000E+00  0.93827000000E+00 0. -1.
     999902    2    1    2    0    0 -0.26954842343E-02  0.17280323144E-01 -0.43298823260E-02  0.10259127004E+01  0.10257544764E+01 0.  0.
     999903    2    3    3    0    0 -0.95700885896E-01 -0.57282189597E-01 -0.73545993463E-01  0.13518241403E+00  0.20624332793E-01 0.  0.
         14    1    1    2    0    0  0.26954842343E-02 -0.17280323144E-01  0.43298823260E-02  0.18017299580E-01  0.00000000000E+00 0. -1.
     999901    1    3    3    0    0  0.93005401662E-01  0.74562512741E-01  0.69216111137E-01  0.89073028639E+00  0.88000000000E+00 0. -1.
        -11    1    4    4    0    0 -0.49881504376E-01 -0.37703729968E-01 -0.50036850199E-01  0.80085474532E-01  0.51100000000E-03 0. -1.
         11    1    4    4    0    0 -0.45819381521E-01 -0.19578459629E-01 -0.23509143264E-01  0.55096939501E-01  0.51100000000E-03 0.  1.
</event>
<event>
 8    1  0.1128298E+005  0.1043930E+01  0.7957747E-01            NaN
         13   -1    0    0    0    0  0.00000000000E+00  0.00000000000E+00  0.74505805969E-08  0.10566000000E+00  0.10566000000E+00 0. -1.
     999900   -1    0    0    0    0 -0.00000000000E+00 -0.00000000000E+00 -0.74505805969E-08  0.93827000000E+00  0.93827000000E+00 0. -1.
     999902    2    1    2    0    0  0.20413046745E-01 -0.13804736420E-01  0.86656777976E-02  0.10178080323E+01  0.10174727679E+01 0.  0.
     999903    2    3    3    0    0  0.19992609185E-01  0.87993078410E-01  0.89002857698E-01  0.12830421873E+00  0.19949375821E-01 0.  0.
         14    1    1    2    0    0 -0.20413046745E-01  0.13804736420E-01 -0.86656777976E-02  0.26121967704E-01  0.00000000000E+00 0.  1.
     999901    1    3    3    0    0  0.42043756032E-03 -0.10179781483E+00 -0.80337179901E-01  0.88950381356E+00  0.88000000000E+00 0. -1.
        -11    1    4    4    0    0  0.47973515241E-02  0.62161566106E-01  0.62761957844E-01  0.88466939338E-01  0.51100000000E-03 0.  1.
         11    1    4    4    0    0  0.15195257661E-01  0.25831512304E-01  0.26240899854E-01  0.39837279393E-01  0.51100000000E-03 0. -1.
</event>
<event>
 8    1  0.1128298E+005  0.1043930E+01  0.7957747E-01            NaN
         13   -1    0    0    0    0  0.00000000000E+00  0.00000000000E+00  0.74505805969E-08  0.10566000000E+00  0.10566000000E+00 0.  1.
     999900   -1    0    0    0    0 -0.00000000000E+00 -0.00000000000E+00 -0.74505805969E-08  0.93827000000E+00  0.93827000000E+00 0. -1.
     999902    2    1    2    0    0 -0.57333643105E-02 -0.22803306498E-01  0.53740235706E-02  0.10198106637E+01  0.10195254030E+01 0.  0.
     999903    2    3    3    0    0 -0.29543708765E-01  0.36469512186E-01 -0.11846158037E+00  0.12884744543E+00  0.19122293859E-01 0.  0.
         14    1    1    2    0    0  0.57333643105E-02  0.22803306498E-01 -0.53740235706E-02  0.24119336287E-01  0.00000000000E+00 0.  1.
     999901    1    3    3    0    0  0.23810344455E-01 -0.59272818684E-01  0.12383560394E+00  0.89096321829E+00  0.88000000000E+00 0.  1.
        -11    1    4    4    0    0 -0.16913489914E-01  0.72010564768E-02 -0.51467285190E-01  0.54654038472E-01  0.51100000000E-03 0.  1.
         11    1    4    4    0    0 -0.12630218851E-01  0.29268455709E-01 -0.66994295180E-01  0.74193406954E-01  0.51100000000E-03 0. -1.
</event>
<event>
 8    1  0.1128298E+005  0.1043930E+01  0.7957747E-01            NaN
         13   -1    0    0    0    0  0.00000000000E+00  0.00000000000E+00  0.74505805969E-08  0.10566000000E+00  0.10566000000E+00 0. -1.
     999900   -1    0    0    0    0 -0.00000000000E+00 -0.00000000000E+00 -0.74505805969E-08  0.93827000000E+00  0.93827000000E+00 0.  1.
     999902    2    1    2    0    0  0.23212015926E-01  0.19880993815E-02 -0.24409307703E-02  0.10205054751E+01  0.10202365982E+01 0.  0.
     999903    2    3    3    0    0 -0.10970016470E+00  0.55781827715E-01  0.29275494122E-01  0.12833657600E+00  0.21621372370E-01 0.  0.
         14    1    1    2    0    0 -0.23212015926E-01 -0.19880993815E-02  0.24409307703E-02  0.23424524873E-01  0.00000000000E+00 0.  1.
     999901    1    3    3    0    0  0.13291218063E+00 -0.53793728333E-01 -0.31716424893E-01  0.89216889913E+00  0.88000000000E+00 0.  1.
        -11    1    4    4    0    0 -0.47388365318E-01  0.23669033118E-01  0.16822460358E-02  0.52999729896E-01  0.51100000000E-03 0.  1.
         11    1    4    4    0    0 -0.62311799386E-01  0.32112794596E-01  0.27593248087E-01  0.75336846101E-01  0.51100000000E-03 0. -1.
</event>
<event>
 8    1  0.1128298E+005  0.1043930E+01  0.7957747E-01            NaN
         13   -1    0    0    0    0  0.00000000000E+00  0.00000000000E+00  0.74505805969E-08  0.10566000000E+00  0.10566000000E+00 0.  1.
     999900   -1    0    0    0    0 -0.00000000000E+00 -0.00000000000E+00 -0.74505805969E-08  0.93827000000E+00  0.93827000000E+00 0. -1.
     999902    2    1    2    0    0  0.84022263898E-02  0.97682244438E-02  0.19749065391E-01  0.10203494741E+01  0.10200769619E+01 0.  0.
     999903    2    3    3    0    0 -0.11262713924E-01 -0.12270380229E+00  0.40430039522E-01  0.12997693948E+00  0.87375557621E-02 0.  0.
         14    1    1    2    0    0 -0.84022263898E-02 -0.97682244438E-02 -0.19749065391E-01  0.23580525883E-01  0.00000000000E+00 0. -1.
     999901    1    3    3    0    0  0.19664940314E-01  0.13247202673E+00 -0.20680974131E-01  0.89037253464E+00  0.88000000000E+00 0. -1.
        -11    1    4    4    0    0 -0.52384975006E-02 -0.25153876600E-01  0.10486236294E-01  0.27755749615E-01  0.51100000000E-03 0. -1.
         11    1    4    4    0    0 -0.60242164232E-02 -0.97549925686E-01  0.29943803228E-01  0.10222118987E+00  0.51100000000E-03 0.  1.
</event>
<event>
 8    1  0.1128298E+005  0.1043930E+01  0.7957747E-01            NaN
         13   -1    0    0    0    0  0.00000000000E+00  0.00000000000E+00  0.74505805969E-08  0.10566000000E+00  0.10566000000E+00 0. -1.
     999900   -1    0    0    0    0 -0.00000000000E+00 -0.00000000000E+00 -0.74505805969E-08  0.93827000000E+00  0.93827000000E+00 0. -1.
     999902    2    1    2    0    0  0.18194621469E-01 -0.13202628843E-01 -0.16302923834E-01  0.10161606107E+01  0.10157811022E+01 0.  0.
     999903    2    3    3    0    0 -0.23086907550E-01 -0.12137436965E+00  0.22715891029E-01  0.12771941505E+00  0.23054161577E-01 0.  0.
         14    1    1    2    0    0 -0.18194621469E-01  0.13202628843E-01  0.16302923834E-01  0.27769389340E-01  0.00000000000E+00 0. -1.
     999901    1    3    3    0    0  0.41281529020E-01  0.10817174081E+00 -0.39018814863E-01  0.88844119561E+00  0.88000000000E+00 0.  1.
        -11    1    4    4    0    0  0.19733952816E-02 -0.23062125676E-01  0.10857419422E-01  0.25571480347E-01  0.51100000000E-03 0. -1.
         11    1    4    4    0    0 -0.25060302832E-01 -0.98312243977E-01  0.11858471607E-01  0.10214793470E+00  0.51100000000E-03 0.  1.
</event>
<event>
 8    1  0.1128298E+005  0.1043930E+01  0.7957747E-01            NaN
         13   -1    0    0    0    0  0.00000000000E+00  0.00000000000E+00  0.74505805969E-08  0.10566000000E+00  0.10566000000E+00 0.  1.
     999900   -1    0    0    0    0 -0.00000000000E+00 -0.00000000000E+00 -0.74505805969E-08  0.93827000000E+00  0.93827000000E+00 0.  1.
     999902    2    1    2    0    0  0.19337309114E-01 -0.10854888979E-01 -0.57911872675E-02  0.10210106198E+01  0.10207533433E+01 0.  0.
     999903    2    3    3    0    0 -0.11908119507E+00  0.43823681094E-01  0.15572141844E-02  0.12848419032E+00  0.20122529703E-01 0.  0.
         14    1    1    2    0    0 -0.19337309114E-01  0.10854888979E-01  0.57911872675E-02  0.22919380194E-01  0.00000000000E+00 0.  1.
     999901    1    3    3    0    0  0.13841850419E+00 -0.54678570073E-01 -0.73484014519E-02  0.89252642949E+00  0.88000000000E+00 0.  1.
        -11    1    4    4    0    0 -0.53024555719E-01  0.21373627039E-01 -0.91437494254E-02  0.57899090809E-01  0.51100000000E-03 0. -1.
         11    1    4    4    0    0 -0.66056639354E-01  0.22450054056E-01  0.10700963610E-01  0.70585099511E-01  0.51100000000E-03 0.  1.
</event>
<event>
 8    1  0.1128298E+005  0.1043930E+01  0.7957747E-01            NaN
         13   -1    0    0    0    0  0.00000000000E+00  0.00000000000E+00  0.74505805969E-08  0.10566000000E+00  0.10566000000E+00 0.  1.
     999900   -1    0    0    0    0 -0.00000000000E+00 -0.00000000000E+00 -0.74505805969E-08  0.93827000000E+00  0.93827000000E+00 0. -1.
     999902    2    1    2    0    0  0.12822223676E-01  0.12163323794E-01  0.16328657634E-01  0.10198679775E+01  0.10195840871E+01 0.  0.
     999903    2    3    3    0    0  0.12481680451E+00 -0.11045643825E-01  0.37061135666E-01  0.13222431142E+00  0.20211378447E-01 0.  0.
         14    1    1    2    0    0 -0.12822223676E-01 -0.12163323794E-01 -0.16328657634E-01  0.24062022480E-01  0.00000000000E+00 0. -1.
     999901    1    3    3    0    0 -0.11199458084E+00  0.23208967620E-01 -0.20732478032E-01  0.88764366610E+00  0.88000000000E+00 0. -1.
        -11    1    4    4    0    0  0.80950927151E-01 -0.35062992294E-02  0.14479808852E-01  0.82312044844E-01  0.51100000000E-03 0.  1.
         11    1    4    4    0    0  0.43865877360E-01 -0.75393445956E-02  0.22581326814E-01  0.49912266580E-01  0.51100000000E-03 0. -1.
</event>
<event>
 8    1  0.1128298E+005  0.1043930E+01  0.7957747E-01            NaN
         13   -1    0    0    0    0  0.00000000000E+00  0.00000000000E+00  0.74505805969E-08  0.10566000000E+00  0.10566000000E+00 0. -1.
     999900   -1    0    0    0    0 -0.00000000000E+00 -0.00000000000E+00 -0.74505805969E-08  0.93827000000E+00  0.93827000000E+00 0.  1.
     999902    2    1    2    0    0 -0.19108909778E-01 -0.11901190657E-01 -0.37909836094E-02  0.10211010638E+01  0.10208458366E+01 0.  0.
     999903    2    3    3    0    0 -0.23515425633E-01 -0.92219402958E-01 -0.90898121013E-01  0.13314944011E+00  0.20221559589E-01 0.  0.
         14    1    1    2    0    0  0.19108909778E-01  0.11901190657E-01  0.37909836094E-02  0.22828936214E-01  0.00000000000E+00 0. -1.
     999901    1    3    3    0    0  0.44065158560E-02  0.80318212300E-01  0.87107137404E-01  0.88795162368E+00  0.88000000000E+00 0.  1.
        -11    1    4    4    0    0 -0.31649372702E-02 -0.50574753202E-01 -0.42558950640E-01  0.66176641573E-01  0.51100000000E-03 0.  1.
         11    1    4    4    0    0 -0.20350488363E-01 -0.41644649755E-01 -0.48339170374E-01  0.66972798533E-01  0.51100000000E-03 0. -1.
</event>
<event>
 8    1  0.1128298E+005  0.1043930E+01  0.7957747E-01            NaN
         13   -1    0    0    0    0  0.00000000000E+00  0.00000000000E+00  0.74505805969E-08  0.10566000000E+00  0.10566000000E+00 0. -1.
     999900   -1    0    0    0    0 -0.00000000000E+00 -0.00000000000E+00 -0.74505805969E-08  0.93827000000E+00  0.93827000000E+00 0. -1.
     999902    2    1    2    0    0 -0.15664276131E-01  0.10552768693E-01  0.14905232250E-01  0.10198697335E+01  0.10195858850E+01 0.  0.
     999903    2    3    3    0    0  0.74119111869E-01 -0.46884121820E-01 -0.90367263015E-01  0.12720946703E+00  0.18006739098E-01 0.  0.
         14    1    1    2    0    0  0.15664276131E-01 -0.10552768693E-01 -0.14905232250E-01  0.24060266461E-01  0.00000000000E+00 0.  1.
     999901    1    3    3    0    0 -0.89783388000E-01  0.57436890512E-01  0.10527249526E+00  0.89266026651E+00  0.88000000000E+00 0.  1.
        -11    1    4    4    0    0  0.47810609641E-01 -0.34492368059E-01 -0.70903205260E-01  0.92212274051E-01  0.51100000000E-03 0.  1.
         11    1    4    4    0    0  0.26308502228E-01 -0.12391753760E-01 -0.19464057755E-01  0.34997192974E-01  0.51100000000E-03 0. -1.
</event>
<event>
 8    1  0.1128298E+005  0.1043930E+01  0.7957747E-01            NaN
         13   -1    0    0    0    0  0.00000000000E+00  0.00000000000E+00  0.74505805969E-08  0.10566000000E+00  0.10566000000E+00 0. -1.
     999900   -1    0    0    0    0 -0.00000000000E+00 -0.00000000000E+00 -0.74505805969E-08  0.93827000000E+00  0.93827000000E+00 0. -1.
     999902    2    1    2    0    0 -0.51790394775E-02  0.17713867626E-01 -0.14404562713E-01  0.10205185715E+01  0.10202499987E+01 0.  0.
     999903    2    3    3    0    0  0.11998912288E+00 -0.26158578647E-01  0.34920729262E-01  0.12921343588E+00  0.19874451780E-01 0.  0.
         14    1    1    2    0    0  0.51790394775E-02 -0.17713867626E-01  0.14404562713E-01  0.23411428472E-01  0.00000000000E+00 0. -1.
     999901    1    3    3    0    0 -0.12516816235E+00  0.43872446273E-01 -0.49325291975E-01  0.89130513565E+00  0.88000000000E+00 0. -1.
        -11    1    4    4    0    0  0.14076570614E-01  0.23938971084E-02  0.70127288217E-03  0.14305016192E-01  0.51100000000E-03 0.  1.
         11    1    4    4    0    0  0.10591255226E+00 -0.28552475756E-01  0.34219456380E-01  0.11490841968E+00  0.51100000000E-03 0. -1.
</event>
<event>
 8    1  0.1128298E+005  0.1043930E+01  0.7957747E-01            NaN
         13   -1    0    0    0    0  0.00000000000E+00  0.00000000000E+00  0.74505805969E-08  0.10566000000E+00  0.10566000000E+00 0.  1.
     999900   -1    0    0    0    0 -0.00000000000E+00 -0.00000000000E+00 -0.74505805969E-08  0.93827000000E+00  0.93827000000E+00 0. -1.
     999902    2    1    2    0    0  0.56913720677E-02 -0.13593410891E-01 -0.18162792282E-01  0.10205406956E+01  0.10202726360E+01 0.  0.
     999903    2    3    3    0    0 -0.11427867223E+00 -0.14301462950E-01 -0.59954006759E-01  0.13141763414E+00  0.20296917660E-01 0.  0.
         14    1    1    2    0    0 -0.56913720677E-02  0.13593410891E-01  0.18162792282E-01  0.23389304375E-01  0.00000000000E+00 0.  1.
     999901    1    3    3    0    0  0.11997004430E+00  0.70805205912E-03  0.41791214478E-01  0.88912306149E+00  0.88000000000E+00 0.  1.
        -11    1    4    4    0    0 -0.20898376966E-01  0.15199315794E-02 -0.37749139893E-02  0.21297029099E-01  0.51100000000E-03 0. -1.
         11    1    4    4    0    0 -0.93380295261E-01 -0.15821394530E-01 -0.56179092770E-01  0.11012060504E+00  0.51100000000E-03 0.  1.
</event>
<event>
 7    1  0.1128298E+005  0.1043930E+01  0.7957747E-01            NaN
         13   -1    0    0    0    0  0.00000000000E+00  0.00000000000E+00  0.74505805969E-08  0.10566000000E+00  0.10566000000E+00 0.  1.
     999900   -1    0    0    0    0 -0.00000000000E+00 -0.00000000000E+00 -0.74505805969E-08  0.93827000000E+00  0.93827000000E+00 0. -1.
     999903    2    1    2    0    0 -0.60727677105E-01 -0.79501605126E-02  0.82553445318E-01  0.10466847468E+00  0.19732268992E-01 0.  0.
         14    1    1    2    0    0 -0.22665141307E-01 -0.33548116189E-01 -0.34245721787E-01  0.53027862403E-01  0.00000000000E+00 0.  1.
     999901    1    1    2    0    0  0.83392818411E-01  0.41498276702E-01 -0.48307723531E-01  0.88623366292E+00  0.88000000000E+00 0.  1.
        -11    1    3    3    0    0 -0.43599358549E-01 -0.87364862438E-02  0.44418236265E-01  0.62852773142E-01  0.51100000000E-03 0. -1.
         11    1    3    3    0    0 -0.17128318556E-01  0.78632573121E-03  0.38135209053E-01  0.41815701539E-01  0.51100000000E-03 0.  1.
</event>
<event>
 8    1  0.1128298E+005  0.1043930E+01  0.7957747E-01            NaN
         13   -1    0    0    0    0  0.00000000000E+00  0.00000000000E+00  0.74505805969E-08  0.10566000000E+00  0.10566000000E+00 0. -1.
     999900   -1    0    0    0    0 -0.00000000000E+00 -0.00000000000E+00 -0.74505805969E-08  0.93827000000E+00  0.93827000000E+00 0.  1.
     999902    2    1    2    0    0  0.39169443983E-02  0.18461314212E-01 -0.17137970165E-01  0.10184374011E+01  0.10181182974E+01 0.  0.
     999903    2    3    3    0    0 -0.27611185329E-01 -0.77600523107E-01 -0.97365866911E-01  0.12902275375E+00  0.19558635032E-01 0.  0.
         14    1    1    2    0    0 -0.39169443983E-02 -0.18461314212E-01  0.17137970165E-01  0.25492598872E-01  0.00000000000E+00 0. -1.
     999901    1    3    3    0    0  0.31528129727E-01  0.96061837319E-01  0.80227896746E-01  0.88941464738E+00  0.88000000000E+00 0. -1.
        -11    1    4    4    0    0 -0.19755972351E-01 -0.53357952935E-01 -0.80036157363E-01  0.98200902192E-01  0.51100000000E-03 0.  1.
         11    1    4    4    0    0 -0.78552129781E-02 -0.24242570172E-01 -0.17329709548E-01  0.30821851558E-01  0.51100000000E-03 0. -1.
</event>
<event>
 8    1  0.1128298E+005  0.1043930E+01  0.7957747E-01            NaN
         13   -1    0    0    0    0  0.00000000000E+00  0.00000000000E+00  0.74505805969E-08  0.10566000000E+00  0.10566000000E+00 0. -1.
     999900   -1    0    0    0    0 -0.00000000000E+00 -0.00000000000E+00 -0.74505805969E-08  0.93827000000E+00  0.93827000000E+00 0. -1.
     999902    2    1    2    0    0 -0.66001466656E-02  0.22496719933E-01  0.32739266638E-02  0.10202575912E+01  0.10199829260E+01 0.  0.
     999903    2    3    3    0    0 -0.65637031764E-02 -0.12557891477E+00  0.11096432282E-01  0.12785208553E+00  0.20245466898E-01 0.  0.
         14    1    1    2    0    0  0.66001466656E-02 -0.22496719933E-01 -0.32739266638E-02  0.23672408825E-01  0.00000000000E+00 0.  1.
     999901    1    3    3    0    0 -0.36443489141E-04  0.14807563470E+00 -0.78225056185E-02  0.89240550565E+00  0.88000000000E+00 0.  1.
        -11    1    4    4    0    0  0.53608439246E-02 -0.44619325479E-01  0.98403628915E-02  0.46007789739E-01  0.51100000000E-03 0.  1.
         11    1    4    4    0    0 -0.11924547101E-01 -0.80959589289E-01  0.12560693908E-02  0.81844295786E-01  0.51100000000E-03 0. -1.
</event>
<event>
 8    1  0.1128298E+005  0.1043930E+01  0.7957747E-01            NaN
         13   -1    0    0    0    0  0.00000000000E+00  0.00000000000E+00  0.74505805969E-08  0.10566000000E+00  0.10566000000E+00 0.  1.
     999900   -1    0    0    0    0 -0.00000000000E+00 -0.00000000000E+00 -0.74505805969E-08  0.93827000000E+00  0.93827000000E+00 0. -1.
     999902    2    1    2    0    0 -0.15526408051E-01  0.19358458928E-02  0.17775213587E-01  0.10202493103E+01  0.10199744507E+01 0.  0.
     999903    2    3    3    0    0 -0.13165305622E+00  0.63456610248E-02 -0.59130484173E-02  0.13229324234E+00  0.96821072911E-02 0.  0.
         14    1    1    2    0    0  0.15526408051E-01 -0.19358458928E-02 -0.17775213587E-01  0.23680689693E-01  0.00000000000E+00 0. -1.
     999901    1    3    3    0    0  0.11612664817E+00 -0.44098151321E-02  0.23688262005E-01  0.88795606797E+00  0.88000000000E+00 0. -1.
        -11    1    4    4    0    0 -0.15790302011E-01 -0.22293220770E-02 -0.15565768362E-02  0.16030831761E-01  0.51100000000E-03 0. -1.
         11    1    4    4    0    0 -0.11586275421E+00  0.85749831019E-02 -0.43564715811E-02  0.11626241058E+00  0.51100000000E-03 0.  1.
</event>
<event>
 8    1  0.1128298E+005  0.1043930E+01  0.7957747E-01            NaN
         13   -1    0    0    0    0  0.00000000000E+00  0.00000000000E+00  0.74505805969E-08  0.10566000000E+00  0.10566000000E+00 0.  1.
     999900   -1    0    0    0    0 -0.00000000000E+00 -0.00000000000E+00 -0.74505805969E-08  0.93827000000E+00  0.93827000000E+00 0. -1.
     999902    2    1    2    0    0  0.14480164447E-01 -0.73957047499E-02 -0.17129129302E-01  0.10203126614E+01  0.10200392877E+01 0.  0.
     999903    2    3    3    0    0  0.14421678701E-02 -0.91016622058E-01  0.90220628112E-01  0.12975866666E+00  0.20284094660E-01 0.  0.
         14    1    1    2    0    0 -0.14480164447E-01  0.73957047499E-02  0.17129129302E-01  0.23617338584E-01  0.00000000000E+00 0.  1.
     999901    1    3    3    0    0  0.13037996577E-01  0.83620917308E-01 -0.10734975741E+00  0.89055399476E+00  0.88000000000E+00 0. -1.
        -11    1    4    4    0    0  0.61462861739E-02 -0.86494049425E-02  0.12611677605E-01  0.16489529181E-01  0.51100000000E-03 0.  1.
         11    1    4    4    0    0 -0.47041183038E-02 -0.82367217116E-01  0.77608950507E-01  0.11326913747E+00  0.51100000000E-03 0. -1.
</event>
<event>
 7    1  0.1128298E+005  0.1043930E+01  0.7957747E-01            NaN
         13   -1    0    0    0    0  0.00000000000E+00  0.00000000000E+00  0.74505805969E-08  0.10566000000E+00  0.10566000000E+00 0.  1.
     999900   -1    0    0    0    0 -0.00000000000E+00 -0.00000000000E+00 -0.74505805969E-08  0.93827000000E+00  0.93827000000E+00 0.  1.
     999903    2    1    2    0    0 -0.97566550131E-02 -0.53549471443E-01  0.92010075676E-02  0.59240839203E-01  0.21496052668E-01 0.  0.
         14    1    1    2    0    0  0.25745721822E-01 -0.62352368903E-01  0.65220285680E-01  0.93831475338E-01  0.00000000000E+00 0.  1.
     999901    1    1    2    0    0 -0.15989066809E-01  0.11590184035E+00 -0.74421293248E-01  0.89085768546E+00  0.88000000000E+00 0.  1.
        -11    1    3    3    0    0 -0.11938130146E-01 -0.12203516955E-01  0.17453739926E-02  0.17168349625E-01  0.51100000000E-03 0.  1.
         11    1    3    3    0    0  0.21814751331E-02 -0.41345954488E-01  0.74556335751E-02  0.42072489578E-01  0.51100000000E-03 0. -1.
</event>
<event>
 8    1  0.1128298E+005  0.1043930E+01  0.7957747E-01            NaN
         13   -1    0    0    0    0  0.00000000000E+00  0.00000000000E+00  0.74505805969E-08  0.10566000000E+00  0.10566000000E+00 0. -1.
     999900   -1    0    0    0    0 -0.00000000000E+00 -0.00000000000E+00 -0.74505805969E-08  0.93827000000E+00  0.93827000000E+00 0.  1.
     999902    2    1    2    0    0  0.89075656179E-02 -0.13593228133E-01  0.19386006898E-01  0.10186330073E+01  0.10183188429E+01 0.  0.
     999903    2    3    3    0    0  0.18006004470E-02 -0.10796210417E+00 -0.68051336206E-01  0.12925047841E+00  0.20387341934E-01 0.  0.
         14    1    1    2    0    0 -0.89075656179E-02  0.13593228133E-01 -0.19386006898E-01  0.25296992702E-01  0.00000000000E+00 0.  1.
     999901    1    3    3    0    0  0.71069651709E-02  0.94368876039E-01  0.87437343104E-01  0.88938252889E+00  0.88000000000E+00 0. -1.
        -11    1    4    4    0    0 -0.77605560534E-02 -0.41903505549E-01 -0.20480891436E-01  0.47284860606E-01  0.51100000000E-03 0. -1.
         11    1    4    4    0    0  0.95611565004E-02 -0.66058598623E-01 -0.47570444770E-01  0.81965617805E-01  0.51100000000E-03 0.  1.
</event>
<event>
 8    1  0.1128298E+005  0.1043930E+01  0.7957747E-01            NaN
         13   -1    0    0    0    0  0.00000000000E+00  0.00000000000E+00  0.74505805969E-08  0.10566000000E+00  0.10566000000E+00 0. -1.
     999900   -1    0    0    0    0 -0.00000000000E+00 -0.00000000000E+00 -0.74505805969E-08  0.93827000000E+00  0.93827000000E+00 0.  1.
     999902    2    1    2    0    0  0.18068563354E-01 -0.11368903192E-01  0.85805517373E-02  0.10209223750E+01  0.10206630908E+01 0.  0.
     999903    2    3    3    0    0 -0.32718385942E-01 -0.11298481576E+00  0.56973773338E-01  0.13230152680E+00  0.20533430627E-01 0.  0.
         14    1    1    2    0    0 -0.18068563354E-01  0.11368903192E-01 -0.85805517373E-02  0.23007625031E-01  0.00000000000E+00 0. -1.
     999901    1    3    3    0    0  0.50786949296E-01  0.10161591257E+00 -0.48393221601E-01  0.88862084817E+00  0.88000000000E+00 0.  1.
        -11    1    4    4    0    0 -0.20592918174E-01 -0.55663970764E-01  0.18350950950E-01  0.62125392891E-01  0.51100000000E-03 0.  1.
         11    1    4    4    0    0 -0.12125467768E-01 -0.57320844999E-01  0.38622822388E-01  0.70176133907E-01  0.51100000000E-03 0. -1.
</event>
<event>
 8    1  0.1128298E+005  0.1043930E+01  0.7957747E-01            NaN
         13   -1    0    0    0    0  0.00000000000E+00  0.00000000000E+00  0.74505805969E-08  0.10566000000E+00  0.10566000000E+00 0.  1.
     999900   -1    0    0    0    0 -0.00000000000E+00 -0.00000000000E+00 -0.74505805969E-08  0.93827000000E+00  0.93827000000E+00 0.  1.
     999902    2    1    2    0    0  0.64509985120E-02  0.75132861884E-03 -0.22805098984E-01  0.10202181376E+01  0.10199425454E+01 0.  0.
     999903    2    3    3    0    0 -0.70683667365E-01 -0.46191421126E-01 -0.99710698785E-01  0.13226101610E+00  0.20516449723E-01 0.  0.
         14    1    1    2    0    0 -0.64509985120E-02 -0.75132861884E-03  0.22805098984E-01  0.23711862351E-01  0.00000000000E+00 0.  1.
     999901    1    3    3    0    0  0.77134665877E-01  0.46942749744E-01  0.76905599801E-01  0.88795712155E+00  0.88000000000E+00 0. -1.
        -11    1    4    4    0    0 -0.29348594328E-01 -0.26259661575E-01 -0.58856207640E-01  0.70818247040E-01  0.51100000000E-03 0.  1.
         11    1    4    4    0    0 -0.41335073037E-01 -0.19931759550E-01 -0.40854491145E-01  0.61442769057E-01  0.51100000000E-03 0. -1.
</event>
<event>
 8    1  0.1128298E+005  0.1043930E+01  0.7957747E-01            NaN
         13   -1    0    0    0    0  0.00000000000E+00  0.00000000000E+00  0.74505805969E-08  0.10566000000E+00  0.10566000000E+00 0. -1.
     999900   -1    0    0    0    0 -0.00000000000E+00 -0.00000000000E+00 -0.74505805969E-08  0.93827000000E+00  0.93827000000E+00 0.  1.
     999902    2    1    2    0    0 -0.21896398636E-02  0.21095951139E-01 -0.11657050585E-01  0.10197283367E+01  0.10194411019E+01 0.  0.
     999903    2    3    3    0    0 -0.94262077810E-02  0.12669608030E+00 -0.34198950234E-01  0.13309882422E+00  0.20124081462E-01 0.  0.
         14    1    1    2    0    0  0.21896398636E-02 -0.21095951139E-01  0.11657050585E-01  0.24201663280E-01  0.00000000000E+00 0.  1.
     999901    1    3    3    0    0  0.72365679174E-02 -0.10560012916E+00  0.22541899649E-01  0.88662951250E+00  0.88000000000E+00 0. -1.
        -11    1    4    4    0    0 -0.15215677918E-01  0.70428998918E-01 -0.19898138951E-01  0.74752644085E-01  0.51100000000E-03 0.  1.
         11    1    4    4    0    0  0.57894701370E-02  0.56267081385E-01 -0.14300811283E-01  0.58346180135E-01  0.51100000000E-03 0. -1.
</event>
<event>
 8    1  0.1128298E+005  0.1043930E+01  0.7957747E-01            NaN
         13   -1    0    0    0    0  0.00000000000E+00  0.00000000000E+00  0.74505805969E-08  0.10566000000E+00  0.10566000000E+00 0. -1.
     999900   -1    0    0    0    0 -0.00000000000E+00 -0.00000000000E+00 -0.74505805969E-08  0.93827000000E+00  0.93827000000E+00 0.  1.
     999902    2    1    2    0    0 -0.19418060040E-01 -0.12005352981E-01 -0.69132795357E-02  0.10200766357E+01  0.10197977053E+01 0.  0.
     999903    2    3    3    0    0 -0.66439944540E-01  0.10904950905E+00  0.12189498540E-01  0.13034057741E+00  0.23108885495E-01 0.  0.
         14    1    1    2    0    0  0.19418060040E-01  0.12005352981E-01  0.69132795357E-02  0.23853364330E-01  0.00000000000E+00 0.  1.
     999901    1    3    3    0    0  0.47021884501E-01 -0.12105486203E+00 -0.19102778076E-01  0.88973605826E+00  0.88000000000E+00 0. -1.
        -11    1    4    4    0    0 -0.25705568582E-01  0.58456843733E-01  0.13927582010E-01  0.65362202357E-01  0.51100000000E-03 0. -1.
         11    1    4    4    0    0 -0.40734375959E-01  0.50592665321E-01 -0.17380834701E-02  0.64978375050E-01  0.51100000000E-03 0.  1.
</event>
<event>
 8    1  0.1128298E+005  0.1043930E+01  0.7957747E-01            NaN
         13   -1    0    0    0    0  0.00000000000E+00  0.00000000000E+00  0.74505805969E-08  0.10566000000E+00  0.10566000000E+00 0.  1.
     999900   -1    0    0    0    0 -0.00000000000E+00 -0.00000000000E+00 -0.74505805969E-08  0.93827000000E+00  0.93827000000E+00 0.  1.
     999902    2    1    2    0    0  0.50706601542E-02 -0.14091164493E-01  0.20242362364E-01  0.10187501321E+01  0.10184389064E+01 0.  0.
     999903    2    3    3    0    0  0.11020582712E+00  0.80206848240E-02 -0.62136722398E-01  0.12839702757E+00  0.20375689031E-01 0.  0.
         14    1    1    2    0    0 -0.50706601542E-02  0.14091164493E-01 -0.20242362364E-01  0.25179867856E-01  0.00000000000E+00 0. -1.
     999901    1    3    3    0    0 -0.10513516696E+00 -0.22111849317E-01  0.82379084762E-01  0.89035310457E+00  0.88000000000E+00 0. -1.
        -11    1    4    4    0    0  0.68072481103E-01 -0.47593887874E-02 -0.35279853850E-01  0.76820854420E-01  0.51100000000E-03 0.  1.
         11    1    4    4    0    0  0.42133346015E-01  0.12780073611E-01 -0.26856868549E-01  0.51576173153E-01  0.51100000000E-03 0. -1.
</event>
<event>
 8    1  0.1128298E+005  0.1043930E+01  0.7957747E-01            NaN
         13   -1    0    0    0    0  0.00000000000E+00  0.00000000000E+00  0.74505805969E-08  0.10566000000E+00  0.10566000000E+00 0.  1.
     999900   -1    0    0    0    0 -0.00000000000E+00 -0.00000000000E+00 -0.74505805969E-08  0.93827000000E+00  0.93827000000E+00 0. -1.
     999902    2    1    2    0    0 -0.54579250986E-02  0.21854352888E-01 -0.50148842941E-02  0.10208529389E+01  0.10205920694E+01 0.  0.
     999903    2    3    3    0    0  0.50322278126E-01 -0.28146650615E-01  0.11469312755E+00  0.12959453664E+00  0.17766958196E-01 0.  0.
         14    1    1    2    0    0  0.54579250986E-02 -0.21854352888E-01  0.50148842941E-02  0.23077061143E-01  0.00000000000E+00 0.  1.
     999901    1    3    3    0    0 -0.55780203224E-01  0.50001003503E-01 -0.11970801184E+00  0.89125840222E+00  0.88000000000E+00 0. -1.
        -11    1    4    4    0    0  0.13109669233E-01 -0.17006523682E-01  0.41829626544E-01  0.47021952883E-01  0.51100000000E-03 0.  1.
         11    1    4    4    0    0  0.37212608893E-01 -0.11140126933E-01  0.72863501004E-01  0.82572583756E-01  0.51100000000E-03 0. -1.
</event>
<event>
 8    1  0.1128298E+005  0.1043930E+01  0.7957747E-01            NaN
         13   -1    0    0    0    0  0.00000000000E+00  0.00000000000E+00  0.74505805969E-08  0.10566000000E+00  0.10566000000E+00 0. -1.
     999900   -1    0    0    0    0 -0.00000000000E+00 -0.00000000000E+00 -0.74505805969E-08  0.93827000000E+00  0.93827000000E+00 0.  1.
     999902    2    1    2    0    0 -0.16042001482E-01 -0.16559265145E-01 -0.87281688633E-02  0.10192776978E+01  0.10189795332E+01 0.  0.
     999903    2    3    3    0    0 -0.46963110321E-01 -0.10695536265E+00 -0.59566530237E-01  0.13264806348E+00  0.20058760927E-01 0.  0.
         14    1    1    2    0    0  0.16042001482E-01  0.16559265145E-01  0.87281688633E-02  0.24652302233E-01  0.00000000000E+00 0.  1.
     999901    1    3    3    0    0  0.30921108839E-01  0.90396097501E-01  0.50838361373E-01  0.88662963429E+00  0.88000000000E+00 0.  1.
        -11    1    4    4    0    0 -0.38828487637E-01 -0.64597569426E-01 -0.36840667034E-01  0.83892748771E-01  0.51100000000E-03 0.  1.
         11    1    4    4    0    0 -0.81346226835E-02 -0.42357793220E-01 -0.22725863203E-01  0.48755314705E-01  0.51100000000E-03 0. -1.
</event>
<event>
 8    1  0.1128298E+005  0.1043930E+01  0.7957747E-01            NaN
         13   -1    0    0    0    0  0.00000000000E+00  0.00000000000E+00  0.74505805969E-08  0.10566000000E+00  0.10566000000E+00 0.  1.
     999900   -1    0    0    0    0 -0.00000000000E+00 -0.00000000000E+00 -0.74505805969E-08  0.93827000000E+00  0.93827000000E+00 0. -1.
     999902    2    1    2    0    0 -0.97405922305E-02 -0.18586841993E-01 -0.10565590350E-01  0.10204357128E+01  0.10201652133E+01 0.  0.
     999903    2    3    3    0    0 -0.33211791400E-01 -0.67191392545E-01 -0.10842814343E+00  0.13336729444E+00  0.20309274207E-01 0.  0.
         14    1    1    2    0    0  0.97405922305E-02  0.18586841993E-01  0.10565590350E-01  0.23494287215E-01  0.00000000000E+00 0.  1.
     999901    1    3    3    0    0  0.23471199170E-01  0.48604550552E-01  0.97862553081E-01  0.88706841834E+00  0.88000000000E+00 0.  1.
        -11    1    4    4    0    0 -0.55786352382E-02 -0.33910003294E-01 -0.46372170698E-01  0.57720436856E-01  0.51100000000E-03 0.  1.
         11    1    4    4    0    0 -0.27633156162E-01 -0.33281389251E-01 -0.62055972733E-01  0.75646857587E-01  0.51100000000E-03 0. -1.
</event>
<event>
 8    1  0.1128298E+005  0.1043930E+01  0.7957747E-01            NaN
         13   -1    0    0    0    0  0.00000000000E+00  0.00000000000E+00  0.74505805969E-08  0.10566000000E+00  0.10566000000E+00 0.  1.
     999900   -1    0    0    0    0 -0.00000000000E+00 -0.00000000000E+00 -0.74505805969E-08  0.93827000000E+00  0.93827000000E+00 0. -1.
     999902    2    1    2    0    0  0.22655527431E-01  0.24289334294E-02  0.49809935299E-02  0.10206065582E+01  0.10203400236E+01 0.  0.
     999903    2    3    3    0    0 -0.44751537161E-01 -0.57266284485E-01  0.10603348115E+00  0.13025896504E+00  0.21027872704E-01 0.  0.
         14    1    1    2    0    0 -0.22655527431E-01 -0.24289334294E-02 -0.49809935299E-02  0.23323441798E-01  0.00000000000E+00 0.  1.
     999901    1    3    3    0    0  0.67407064591E-01  0.59695217915E-01 -0.10105248762E+00  0.89034759316E+00  0.88000000000E+00 0. -1.
        -11    1    4    4    0    0 -0.34472736198E-01 -0.28992068044E-01  0.55925665397E-01  0.71811215848E-01  0.51100000000E-03 0.  1.
         11    1    4    4    0    0 -0.10278800962E-01 -0.28274216441E-01  0.50107815755E-01  0.58447749190E-01  0.51100000000E-03 0. -1.
</event>
<event>
 8    1  0.1128298E+005  0.1043930E+01  0.7957747E-01            NaN
         13   -1    0    0    0    0  0.00000000000E+00  0.00000000000E+00  0.74505805969E-08  0.10566000000E+00  0.10566000000E+00 0. -1.
     999900   -1    0    0    0    0 -0.00000000000E+00 -0.00000000000E+00 -0.74505805969E-08  0.93827000000E+00  0.93827000000E+00 0. -1.
     999902    2    1    2    0    0 -0.21739730010E-03  0.37854498341E-02  0.23565982934E-01  0.10200609312E+01  0.10197816291E+01 0.  0.
     999903    2    3    3    0    0 -0.22746539883E-02  0.34581960341E-01 -0.12124581983E+00  0.12769154831E+00  0.20087226112E-01 0.  0.
         14    1    1    2    0    0  0.21739730010E-03 -0.37854498341E-02 -0.23565982934E-01  0.23869068764E-01  0.00000000000E+00 0.  1.
     999901    1    3    3    0    0  0.20572566882E-02 -0.30796510507E-01  0.14481180276E+00  0.89236938293E+00  0.88000000000E+00 0.  1.
        -11    1    4    4    0    0  0.59632518937E-02  0.71651008882E-02 -0.50774755266E-01  0.51625923112E-01  0.51100000000E-03 0.  1.
         11    1    4    4    0    0 -0.82379058820E-02  0.27416859453E-01 -0.70471064560E-01  0.76065625198E-01  0.51100000000E-03 0. -1.
</event>
<event>
 8    1  0.1128298E+005  0.1043930E+01  0.7957747E-01            NaN
         13   -1    0    0    0    0  0.00000000000E+00  0.00000000000E+00  0.74505805969E-08  0.10566000000E+00  0.10566000000E+00 0.  1.
     999900   -1    0    0    0    0 -0.00000000000E+00 -0.00000000000E+00 -0.74505805969E-08  0.93827000000E+00  0.93827000000E+00 0.  1.
     999902    2    1    2    0    0 -0.94742897732E-02 -0.17094203004E-01  0.11579889019E-01  0.10212128749E+01  0.10209601697E+01 0.  0.
     999903    2    3    3    0    0 -0.42440492466E-01 -0.55283587380E-01 -0.10976108546E+00  0.13145513726E+00  0.19377481708E-01 0.  0.
         14    1    1    2    0    0  0.94742897732E-02  0.17094203004E-01 -0.11579889019E-01  0.22717125098E-01  0.00000000000E+00 0. -1.
     999901    1    3    3    0    0  0.32966202693E-01  0.38189384376E-01  0.12134097448E+00  0.88975773764E+00  0.88000000000E+00 0. -1.
        -11    1    4    4    0    0 -0.24617730496E-01 -0.16462909173E-01 -0.44859979631E-01  0.53756291973E-01  0.51100000000E-03 0.  1.
         11    1    4    4    0    0 -0.17822761970E-01 -0.38820678207E-01 -0.64901105829E-01  0.77698845291E-01  0.51100000000E-03 0. -1.
</event>
<event>
 8    1  0.1128298E+005  0.1043930E+01  0.7957747E-01            NaN
         13   -1    0    0    0    0  0.00000000000E+00  0.00000000000E+00  0.74505805969E-08  0.10566000000E+00  0.10566000000E+00 0.  1.
     999900   -1    0    0    0    0 -0.00000000000E+00 -0.00000000000E+00 -0.74505805969E-08  0.93827000000E+00  0.93827000000E+00 0.  1.
     999902    2    1    2    0    0 -0.18142558796E-01 -0.80411546453E-02  0.11855712261E-01  0.10208135444E+01  0.10205517732E+01 0.  0.
     999903    2    3    3    0    0  0.10666707843E+00 -0.69545978803E-01 -0.13535943162E-01  0.12951952717E+00  0.19431350239E-01 0.  0.
         14    1    1    2    0    0  0.18142558796E-01  0.80411546453E-02 -0.11855712261E-01  0.23116455630E-01  0.00000000000E+00 0. -1.
     999901    1    3    3    0    0 -0.12480963722E+00  0.61504824157E-01  0.25391655423E-01  0.89129401720E+00  0.88000000000E+00 0.  1.
        -11    1    4    4    0    0  0.54143748767E-01 -0.46409284898E-01 -0.49500860259E-02  0.71485185373E-01  0.51100000000E-03 0.  1.
         11    1    4    4    0    0  0.52523329661E-01 -0.23136693905E-01 -0.85858571363E-02  0.58034341792E-01  0.51100000000E-03 0. -1.
</event>
<event>
 8    1  0.1128298E+005  0.1043930E+01  0.7957747E-01            NaN
         13   -1    0    0    0    0  0.00000000000E+00  0.00000000000E+00  0.74505805969E-08  0.10566000000E+00  0.10566000000E+00 0. -1.
     999900   -1    0    0    0    0 -0.00000000000E+00 -0.00000000000E+00 -0.74505805969E-08  0.93827000000E+00  0.93827000000E+00 0.  1.
     999902    2    1    2    0    0 -0.11437348129E-01 -0.14303326199E-03 -0.20098861270E-01  0.10208043083E+01  0.10205423256E+01 0.  0.
     999903    2    3    3    0    0 -0.18412900788E-01  0.64077960691E-01 -0.11378059233E+00  0.13347727666E+00  0.20618929001E-01 0.  0.
         14    1    1    2    0    0  0.11437348129E-01  0.14303326199E-03  0.20098861270E-01  0.23125691667E-01  0.00000000000E+00 0. -1.
     999901    1    3    3    0    0  0.69755526586E-02 -0.64220993953E-01  0.93681731058E-01  0.88732703167E+00  0.88000000000E+00 0. -1.
        -11    1    4    4    0    0 -0.20550248980E-02  0.30995425283E-01 -0.37205242069E-01  0.48470926072E-01  0.51100000000E-03 0. -1.
         11    1    4    4    0    0 -0.16357875890E-01  0.33082535408E-01 -0.76575350258E-01  0.85006350591E-01  0.51100000000E-03 0.  1.
</event>
<event>
 8    1  0.1128298E+005  0.1043930E+01  0.7957747E-01            NaN
         13   -1    0    0    0    0  0.00000000000E+00  0.00000000000E+00  0.74505805969E-08  0.10566000000E+00  0.10566000000E+00 0.  1.
     999900   -1    0    0    0    0 -0.00000000000E+00 -0.00000000000E+00 -0.74505805969E-08  0.93827000000E+00  0.93827000000E+00 0.  1.
     999902    2    1    2    0    0 -0.14881226987E-01 -0.16079286737E-01 -0.82330188060E-02  0.10205253642E+01  0.10202569490E+01 0.  0.
     999903    2    3    3    0    0  0.91281087036E-01  0.14137553867E-01  0.87100145433E-01  0.12852093227E+00  0.19977172375E-01 0.  0.
         14    1    1    2    0    0  0.14881226987E-01  0.16079286737E-01  0.82330188060E-02  0.23404635807E-01  0.00000000000E+00 0.  1.
     999901    1    3    3    0    0 -0.10616231402E+00 -0.30216840604E-01 -0.95333164239E-01  0.89200443193E+00  0.88000000000E+00 0.  1.
        -11    1    4    4    0    0  0.45056570787E-01  0.11987963403E-01  0.55485921074E-01  0.72475888377E-01  0.51100000000E-03 0. -1.
         11    1    4    4    0    0  0.46224516248E-01  0.21495904637E-02  0.31614224360E-01  0.56045043888E-01  0.51100000000E-03 0.  1.
</event>
<event>
 8    1  0.1128298E+005  0.1043930E+01  0.7957747E-01            NaN
         13   -1    0    0    0    0  0.00000000000E+00  0.00000000000E+00  0.74505805969E-08  0.10566000000E+00  0.10566000000E+00 0. -1.
     999900   -1    0    0    0    0 -0.00000000000E+00 -0.00000000000E+00 -0.74505805969E-08  0.93827000000E+00  0.93827000000E+00 0. -1.
     999902    2    1    2    0    0 -0.32110294511E-01  0.12065856067E-01  0.13563744493E-01  0.10070432671E+01  0.10063674830E+01 0.  0.
     999903    2    3    3    0    0  0.13955171359E-01 -0.10720908942E+00 -0.37503849748E-01  0.11633768226E+00  0.20961438535E-01 0.  0.
         14    1    1    2    0    0  0.32110294511E-01 -0.12065856067E-01 -0.13563744493E-01  0.36886732858E-01  0.00000000000E+00 0.  1.
     999901    1    3    3    0    0 -0.46065465870E-01  0.11927494548E+00  0.51067594242E-01  0.89070558489E+00  0.88000000000E+00 0. -1.
        -11    1    4    4    0    0 -0.20084088614E-02 -0.59294225917E-01 -0.16047896899E-01  0.61462468622E-01  0.51100000000E-03 0. -1.
         11    1    4    4    0    0  0.15963580220E-01 -0.47914863500E-01 -0.21455952850E-01  0.54875213634E-01  0.51100000000E-03 0.  1.
</event>
<event>
 8    1  0.1128298E+005  0.1043930E+01  0.7957747E-01            NaN
         13   -1    0    0    0    0  0.00000000000E+00  0.00000000000E+00  0.74505805969E-08  0.10566000000E+00  0.10566000000E+00 0.  1.
     999900   -1    0    0    0    0 -0.00000000000E+00 -0.00000000000E+00 -0.74505805969E-08  0.93827000000E+00  0.93827000000E+00 0.  1.
     999902    2    1    2    0    0 -0.15167476093E-01 -0.17877638736E-01  0.61182373217E-02  0.10196999541E+01  0.10194120370E+01 0.  0.
     999903    2    3    3    0    0 -0.11042339174E+00  0.60516813474E-01 -0.27382349379E-01  0.13046338886E+00  0.20378729538E-01 0.  0.
         14    1    1    2    0    0  0.15167476093E-01  0.17877638736E-01 -0.61182373217E-02  0.24230045929E-01  0.00000000000E+00 0.  1.
     999901    1    3    3    0    0  0.95255915650E-01 -0.78394452210E-01  0.33500586701E-01  0.88923656521E+00  0.88000000000E+00 0.  1.
        -11    1    4    4    0    0 -0.69786396681E-01  0.45778774693E-01 -0.10786612089E-01  0.84157290210E-01  0.51100000000E-03 0.  1.
         11    1    4    4    0    0 -0.40636995062E-01  0.14738038781E-01 -0.16595737290E-01  0.46306098648E-01  0.51100000000E-03 0. -1.
</event>
<event>
 8    1  0.1128298E+005  0.1043930E+01  0.7957747E-01            NaN
         13   -1    0    0    0    0  0.00000000000E+00  0.00000000000E+00  0.74505805969E-08  0.10566000000E+00  0.10566000000E+00 0.  1.
     999900   -1    0    0    0    0 -0.00000000000E+00 -0.00000000000E+00 -0.74505805969E-08  0.93827000000E+00  0.93827000000E+00 0. -1.
     999902    2    1    2    0    0 -0.14080094856E-01  0.14818898581E-01  0.11385526991E-01  0.10205317297E+01  0.10202634622E+01 0.  0.
     999903    2    3    3    0    0  0.22651629914E-01 -0.86027734708E-01  0.93117894661E-01  0.13025118801E+00  0.19508003391E-01 0.  0.
         14    1    1    2    0    0  0.14080094856E-01 -0.14818898581E-01 -0.11385526991E-01  0.23398270260E-01  0.00000000000E+00 0.  1.
     999901    1    3    3    0    0 -0.36731724770E-01  0.10084663329E+00 -0.81732367669E-01  0.89028054173E+00  0.88000000000E+00 0.  1.
        -11    1    4    4    0    0  0.13759886555E-01 -0.73750377492E-01  0.70051020820E-01  0.10264433397E+00  0.51100000000E-03 0. -1.
         11    1    4    4    0    0  0.88917433588E-02 -0.12277357216E-01  0.23066873841E-01  0.27606854040E-01  0.51100000000E-03 0.  1.
</event>
<event>
 8    1  0.1128298E+005  0.1043930E+01  0.7957747E-01            NaN
         13   -1    0    0    0    0  0.00000000000E+00  0.00000000000E+00  0.74505805969E-08  0.10566000000E+00  0.10566000000E+00 0.  1.
     999900   -1    0    0    0    0 -0.00000000000E+00 -0.00000000000E+00 -0.74505805969E-08  0.93827000000E+00  0.93827000000E+00 0.  1.
     999902    2    1    2    0    0  0.12044981958E-01  0.21396777698E-01 -0.53800717919E-02  0.10187933960E+01  0.10184832522E+01 0.  0.
     999903    2    3    3    0    0  0.15930505942E-01  0.12670281547E+00 -0.28468577350E-01  0.13220581549E+00  0.18987714111E-01 0.  0.
         14    1    1    2    0    0 -0.12044981958E-01 -0.21396777698E-01  0.53800717919E-02  0.25136603962E-01  0.00000000000E+00 0.  1.
     999901    1    3    3    0    0 -0.38855239837E-02 -0.10530603777E+00  0.23088505558E-01  0.88658758054E+00  0.88000000000E+00 0. -1.
        -11    1    4    4    0    0  0.58186556661E-02  0.22503292757E-01 -0.12211100489E-01  0.26260750843E-01  0.51100000000E-03 0.  1.
         11    1    4    4    0    0  0.10111850276E-01  0.10419952271E+00 -0.16257476860E-01  0.10594506465E+00  0.51100000000E-03 0. -1.
</event>
<event>
 8    1  0.1128298E+005  0.1043930E+01  0.7957747E-01            NaN
         13   -1    0    0    0    0  0.00000000000E+00  0.00000000000E+00  0.74505805969E-08  0.10566000000E+00  0.10566000000E+00 0.  1.
     999900   -1    0    0    0    0 -0.00000000000E+00 -0.00000000000E+00 -0.74505805969E-08  0.93827000000E+00  0.93827000000E+00 0. -1.
     999902    2    1    2    0    0  0.13540257297E-01  0.48376929258E-02  0.20686907964E-01  0.10187369454E+01  0.10184253894E+01 0.  0.
     999903    2    3    3    0    0 -0.80768941423E-01 -0.91230914326E-01  0.35212087090E-01  0.12838062170E+00  0.19874388664E-01 0.  0.
         14    1    1    2    0    0 -0.13540257297E-01 -0.48376929258E-02 -0.20686907964E-01  0.25193054630E-01  0.00000000000E+00 0.  1.
     999901    1    3    3    0    0  0.94309198719E-01  0.96068607251E-01 -0.14525179126E-01  0.89035632367E+00  0.88000000000E+00 0.  1.
        -11    1    4    4    0    0 -0.33436456037E-01 -0.37547216252E-01  0.24772669093E-01  0.56051193526E-01  0.51100000000E-03 0. -1.
         11    1    4    4    0    0 -0.47332485385E-01 -0.53683698073E-01  0.10439417996E-01  0.72329428179E-01  0.51100000000E-03 0.  1.
</event>
<event>
 8    1  0.1128298E+005  0.1043930E+01  0.7957747E-01            NaN
         13   -1    0    0    0    0  0.00000000000E+00  0.00000000000E+00  0.74505805969E-08  0.10566000000E+00  0.10566000000E+00 0.  1.
     999900   -1    0    0    0    0 -0.00000000000E+00 -0.00000000000E+00 -0.74505805969E-08  0.93827000000E+00  0.93827000000E+00 0. -1.
     999902    2    1    2    0    0  0.21392913806E-01 -0.14005759435E-01 -0.69770910255E-02  0.10174253239E+01  0.10170800321E+01 0.  0.
     999903    2    3    3    0    0  0.48985988910E-01  0.85832168651E-01  0.77781966752E-01  0.12730561979E+00  0.19745839935E-01 0.  0.
         14    1    1    2    0    0 -0.21392913806E-01  0.14005759435E-01  0.69770910255E-02  0.26504676147E-01  0.00000000000E+00 0.  1.
     999901    1    3    3    0    0 -0.27593075104E-01 -0.99837928086E-01 -0.84759057777E-01  0.89011970406E+00  0.88000000000E+00 0. -1.
        -11    1    4    4    0    0  0.19043106140E-01  0.47608774309E-01  0.31242803571E-01  0.60046724962E-01  0.51100000000E-03 0. -1.
         11    1    4    4    0    0  0.29942882770E-01  0.38223394342E-01  0.46539163180E-01  0.67258894833E-01  0.51100000000E-03 0.  1.
</event>
<event>
 8    1  0.1128298E+005  0.1043930E+01  0.7957747E-01            NaN
         13   -1    0    0    0    0  0.00000000000E+00  0.00000000000E+00  0.74505805969E-08  0.10566000000E+00  0.10566000000E+00 0. -1.
     999900   -1    0    0    0    0 -0.00000000000E+00 -0.00000000000E+00 -0.74505805969E-08  0.93827000000E+00  0.93827000000E+00 0.  1.
     999902    2    1    2    0    0 -0.23292082161E-03 -0.78509479536E-02 -0.22749113060E-01  0.10198631394E+01  0.10195791334E+01 0.  0.
     999903    2    3    3    0    0 -0.11736688016E+00  0.51594433426E-01  0.99384167173E-03  0.12979693638E+00  0.20230839162E-01 0.  0.
         14    1    1    2    0    0  0.23292082161E-03  0.78509479536E-02  0.22749113060E-01  0.24066860637E-01  0.00000000000E+00 0. -1.
     999901    1    3    3    0    0  0.11713395934E+00 -0.59445381380E-01 -0.23742954732E-01  0.89006620299E+00  0.88000000000E+00 0.  1.
        -11    1    4    4    0    0 -0.62895686080E-01  0.30473681649E-01 -0.91848614422E-02  0.70492094602E-01  0.51100000000E-03 0.  1.
         11    1    4    4    0    0 -0.54471194079E-01  0.21120751777E-01  0.10178703114E-01  0.59304841776E-01  0.51100000000E-03 0. -1.
</event>
<event>
 8    1  0.1128298E+005  0.1043930E+01  0.7957747E-01            NaN
         13   -1    0    0    0    0  0.00000000000E+00  0.00000000000E+00  0.74505805969E-08  0.10566000000E+00  0.10566000000E+00 0.  1.
     999900   -1    0    0    0    0 -0.00000000000E+00 -0.00000000000E+00 -0.74505805969E-08  0.93827000000E+00  0.93827000000E+00 0. -1.
     999902    2    1    2    0    0 -0.11727807096E-01 -0.42392086440E-03 -0.20923533513E-01  0.10199400975E+01  0.10196579265E+01 0.  0.
     999903    2    3    3    0    0  0.12020808620E+00 -0.13147822821E-01 -0.42562526013E-01  0.12975066617E+00  0.20020427555E-01 0.  0.
         14    1    1    2    0    0  0.11727807096E-01  0.42392086440E-03  0.20923533513E-01  0.23989902519E-01  0.00000000000E+00 0.  1.
     999901    1    3    3    0    0 -0.13193589329E+00  0.12723901956E-01  0.21638992500E-01  0.89018943131E+00  0.88000000000E+00 0. -1.
        -11    1    4    4    0    0  0.90462228546E-01 -0.15788728679E-02 -0.28405665578E-01  0.94831696130E-01  0.51100000000E-03 0. -1.
         11    1    4    4    0    0  0.29745857650E-01 -0.11568949953E-01 -0.14156860435E-01  0.34918970041E-01  0.51100000000E-03 0.  1.
</event>
<event>
 7    1  0.1128298E+005  0.1043930E+01  0.7957747E-01            NaN
         13   -1    0    0    0    0  0.00000000000E+00  0.00000000000E+00  0.74505805969E-08  0.10566000000E+00  0.10566000000E+00 0.  1.
     999900   -1    0    0    0    0 -0.00000000000E+00 -0.00000000000E+00 -0.74505805969E-08  0.93827000000E+00  0.93827000000E+00 0. -1.
     999903    2    1    2    0    0 -0.26705234561E-03 -0.19907208680E-01  0.11054221782E+00  0.11404632469E+00  0.19763956648E-01 0.  0.
         14    1    1    2    0    0  0.52240725439E-02  0.11273166787E-01 -0.45792999871E-01  0.47448646562E-01  0.00000000000E+00 0. -1.
     999901    1    1    2    0    0 -0.49570201983E-02  0.86340418934E-02 -0.64749217945E-01  0.88243502874E+00  0.88000000000E+00 0. -1.
        -11    1    3    3    0    0 -0.18812096052E-02 -0.22147243355E-01  0.70885878182E-01  0.74290700525E-01  0.51100000000E-03 0.  1.
         11    1    3    3    0    0  0.16141572595E-02  0.22400346750E-02  0.39656339634E-01  0.39755624170E-01  0.51100000000E-03 0. -1.
</event>
<event>
 8    1  0.1128298E+005  0.1043930E+01  0.7957747E-01            NaN
         13   -1    0    0    0    0  0.00000000000E+00  0.00000000000E+00  0.74505805969E-08  0.10566000000E+00  0.10566000000E+00 0. -1.
     999900   -1    0    0    0    0 -0.00000000000E+00 -0.00000000000E+00 -0.74505805969E-08  0.93827000000E+00  0.93827000000E+00 0. -1.
     999902    2    1    2    0    0  0.19257695902E-01 -0.13910514065E-01 -0.35762163503E-02  0.10199060416E+01  0.10196230593E+01 0.  0.
     999903    2    3    3    0    0 -0.29952132482E-01 -0.91679253368E-01  0.85760206676E-01  0.13060823970E+00  0.20037052907E-01 0.  0.
         14    1    1    2    0    0 -0.19257695902E-01  0.13910514065E-01  0.35762163503E-02  0.24023958383E-01  0.00000000000E+00 0. -1.
     999901    1    3    3    0    0  0.49209828384E-01  0.77768739303E-01 -0.89336423026E-01  0.88929780192E+00  0.88000000000E+00 0.  1.
        -11    1    4    4    0    0 -0.13289011184E-01 -0.60859878784E-01  0.44951849677E-01  0.76820912350E-01  0.51100000000E-03 0.  1.
         11    1    4    4    0    0 -0.16663121299E-01 -0.30819374583E-01  0.40808356999E-01  0.53787327347E-01  0.51100000000E-03 0. -1.
</event>
<event>
 8    1  0.1128298E+005  0.1043930E+01  0.7957747E-01            NaN
         13   -1    0    0    0    0  0.00000000000E+00  0.00000000000E+00  0.74505805969E-08  0.10566000000E+00  0.10566000000E+00 0.  1.
     999900   -1    0    0    0    0 -0.00000000000E+00 -0.00000000000E+00 -0.74505805969E-08  0.93827000000E+00  0.93827000000E+00 0. -1.
     999902    2    1    2    0    0 -0.17871550971E-01  0.61638879577E-02 -0.49800700110E-02  0.10243803978E+01  0.10241938354E+01 0.  0.
     999903    2    3    3    0    0 -0.12724135440E+00 -0.43184592595E-01 -0.37417858842E-03  0.13622599643E+00  0.22407828687E-01 0.  0.
         14    1    1    2    0    0  0.17871550971E-01 -0.61638879577E-02  0.49800700110E-02  0.19549602200E-01  0.00000000000E+00 0. -1.
     999901    1    3    3    0    0  0.10936980343E+00  0.49348480553E-01 -0.46058914225E-02  0.88815440137E+00  0.88000000000E+00 0.  1.
        -11    1    4    4    0    0 -0.11759650985E+00 -0.39718176245E-01  0.57837250207E-02  0.12425854196E+00  0.51100000000E-03 0.  1.
         11    1    4    4    0    0 -0.96448445528E-02 -0.34664163499E-02 -0.61579036091E-02  0.11967454475E-01  0.51100000000E-03 0. -1.
</event>
<event>
 8    1  0.1128298E+005  0.1043930E+01  0.7957747E-01            NaN
         13   -1    0    0    0    0  0.00000000000E+00  0.00000000000E+00  0.74505805969E-08  0.10566000000E+00  0.10566000000E+00 0. -1.
     999900   -1    0    0    0    0 -0.00000000000E+00 -0.00000000000E+00 -0.74505805969E-08  0.93827000000E+00  0.93827000000E+00 0.  1.
     999902    2    1    2    0    0 -0.21676276897E-01 -0.65627332823E-02 -0.93758126780E-02  0.10194180374E+01  0.10191232990E+01 0.  0.
     999903    2    3    3    0    0 -0.66747496911E-01 -0.10792365375E+00  0.28862785115E-01  0.13162997628E+00  0.19764789593E-01 0.  0.
         14    1    1    2    0    0  0.21676276897E-01  0.65627332823E-02  0.93758126780E-02  0.24511962623E-01  0.00000000000E+00 0. -1.
     999901    1    3    3    0    0  0.45071220013E-01  0.10136092047E+00 -0.38238597794E-01  0.88778806110E+00  0.88000000000E+00 0.  1.
        -11    1    4    4    0    0 -0.58269292020E-01 -0.78868092772E-01  0.19892039497E-01  0.10005718768E+00  0.51100000000E-03 0.  1.
         11    1    4    4    0    0 -0.84782048908E-02 -0.29055560977E-01  0.89707456184E-02  0.31572788597E-01  0.51100000000E-03 0. -1.
</event>
<event>
 8    1  0.1128298E+005  0.1043930E+01  0.7957747E-01            NaN
         13   -1    0    0    0    0  0.00000000000E+00  0.00000000000E+00  0.74505805969E-08  0.10566000000E+00  0.10566000000E+00 0.  1.
     999900   -1    0    0    0    0 -0.00000000000E+00 -0.00000000000E+00 -0.74505805969E-08  0.93827000000E+00  0.93827000000E+00 0. -1.
     999902    2    1    2    0    0 -0.13423231747E-01 -0.53443280958E-02  0.18959836780E-01  0.10200926259E+01  0.10198140737E+01 0.  0.
     999903    2    3    3    0    0  0.10817709374E+00  0.25575839815E-02 -0.64645756768E-01  0.12777038890E+00  0.20913478089E-01 0.  0.
         14    1    1    2    0    0  0.13423231747E-01  0.53443280958E-02 -0.18959836780E-01  0.23837374102E-01  0.00000000000E+00 0. -1.
     999901    1    3    3    0    0 -0.12160032548E+00 -0.79019120773E-02  0.83605593548E-01  0.89232223700E+00  0.88000000000E+00 0.  1.
        -11    1    4    4    0    0  0.40999056258E-01 -0.59050281929E-02 -0.33327596911E-01  0.53167488270E-01  0.51100000000E-03 0.  1.
         11    1    4    4    0    0  0.67178037480E-01  0.84626121744E-02 -0.31318159857E-01  0.74602900629E-01  0.51100000000E-03 0. -1.
</event>
<event>
 8    1  0.1128298E+005  0.1043930E+01  0.7957747E-01            NaN
         13   -1    0    0    0    0  0.00000000000E+00  0.00000000000E+00  0.74505805969E-08  0.10566000000E+00  0.10566000000E+00 0. -1.
     999900   -1    0    0    0    0 -0.00000000000E+00 -0.00000000000E+00 -0.74505805969E-08  0.93827000000E+00  0.93827000000E+00 0.  1.
     999902    2    1    2    0    0  0.12296719387E-01  0.83024644391E-02  0.18486301470E-01  0.10202259167E+01  0.10199505074E+01 0.  0.
     999903    2    3    3    0    0  0.12445621239E+00 -0.24408011782E-01  0.32901644249E-01  0.13238723245E+00  0.18940994677E-01 0.  0.
         14    1    1    2    0    0 -0.12296719387E-01 -0.83024644391E-02 -0.18486301470E-01  0.23704083308E-01  0.00000000000E+00 0. -1.
     999901    1    3    3    0    0 -0.11215949301E+00  0.32710476221E-01 -0.14415342779E-01  0.88783868424E+00  0.88000000000E+00 0. -1.
        -11    1    4    4    0    0  0.36565621728E-01 -0.16074191900E-01  0.10524854146E-01  0.41309296936E-01  0.51100000000E-03 0.  1.
         11    1    4    4    0    0  0.87890590666E-01 -0.83338198824E-02  0.22376790103E-01  0.91077935515E-01  0.51100000000E-03 0. -1.
</event>
<event>
 8    1  0.1128298E+005  0.1043930E+01  0.7957747E-01            NaN
         13   -1    0    0    0    0  0.00000000000E+00  0.00000000000E+00  0.74505805969E-08  0.10566000000E+00  0.10566000000E+00 0.  1.
     999900   -1    0    0    0    0 -0.00000000000E+00 -0.00000000000E+00 -0.74505805969E-08  0.93827000000E+00  0.93827000000E+00 0.  1.
     999902    2    1    2    0    0 -0.63288307033E-02  0.15454964835E-01 -0.14961677124E-01  0.10215076491E+01  0.10212615313E+01 0.  0.
     999903    2    3    3    0    0 -0.38449780440E-01 -0.47611044420E-01 -0.11626593527E+00  0.13287294935E+00  0.19805448706E-01 0.  0.
         14    1    1    2    0    0  0.63288307033E-02 -0.15454964835E-01  0.14961677124E-01  0.22422350869E-01  0.00000000000E+00 0.  1.
     999901    1    3    3    0    0  0.32120949737E-01  0.63066009256E-01  0.10130425815E+00  0.88863469978E+00  0.88000000000E+00 0. -1.
        -11    1    4    4    0    0 -0.12157169273E-01 -0.19967340693E-01 -0.26536855889E-01  0.35368874742E-01  0.51100000000E-03 0.  1.
         11    1    4    4    0    0 -0.26292611167E-01 -0.27643703727E-01 -0.89729079380E-01  0.97504074608E-01  0.51100000000E-03 0. -1.
</event>
<event>
 8    1  0.1128298E+005  0.1043930E+01  0.7957747E-01            NaN
         13   -1    0    0    0    0  0.00000000000E+00  0.00000000000E+00  0.74505805969E-08  0.10566000000E+00  0.10566000000E+00 0. -1.
     999900   -1    0    0    0    0 -0.00000000000E+00 -0.00000000000E+00 -0.74505805969E-08  0.93827000000E+00  0.93827000000E+00 0. -1.
     999902    2    1    2    0    0 -0.10258013441E-01  0.85792881849E-02  0.21255242685E-01  0.10188179239E+01  0.10185083925E+01 0.  0.
     999903    2    3    3    0    0  0.51953706554E-01 -0.42709791644E-01  0.11022333542E+00  0.13066467734E+00  0.20018998606E-01 0.  0.
         14    1    1    2    0    0  0.10258013441E-01 -0.85792881849E-02 -0.21255242685E-01  0.25112076121E-01  0.00000000000E+00 0.  1.
     999901    1    3    3    0    0 -0.62211719995E-01  0.51289079829E-01 -0.88968092738E-01  0.88815324654E+00  0.88000000000E+00 0.  1.
        -11    1    4    4    0    0  0.53544568946E-01 -0.40270707995E-01  0.10734535678E+00  0.12653867997E+00  0.51100000000E-03 0. -1.
         11    1    4    4    0    0 -0.15908623916E-02 -0.24390836486E-02  0.28779786449E-02  0.41259973672E-02  0.51100000000E-03 0.  1.
</event>
<event>
 8    1  0.1128298E+005  0.1043930E+01  0.7957747E-01            NaN
         13   -1    0    0    0    0  0.00000000000E+00  0.00000000000E+00  0.74505805969E-08  0.10566000000E+00  0.10566000000E+00 0.  1.
     999900   -1    0    0    0    0 -0.00000000000E+00 -0.00000000000E+00 -0.74505805969E-08  0.93827000000E+00  0.93827000000E+00 0. -1.
     999902    2    1    2    0    0 -0.13430171513E-01  0.88650741406E-02  0.16183460055E-01  0.10211075675E+01  0.10208524874E+01 0.  0.
     999903    2    3    3    0    0  0.11770172766E+00 -0.50007697452E-01 -0.27097931354E-02  0.12924517158E+00  0.18506887880E-01 0.  0.
         14    1    1    2    0    0  0.13430171513E-01 -0.88650741406E-02 -0.16183460055E-01  0.22822432512E-01  0.00000000000E+00 0. -1.
     999901    1    3    3    0    0 -0.13113189918E+00  0.58872771593E-01  0.18893253191E-01  0.89186239591E+00  0.88000000000E+00 0. -1.
        -11    1    4    4    0    0  0.94984010353E-01 -0.34256708911E-01  0.29763924108E-02  0.10101784180E+00  0.51100000000E-03 0. -1.
         11    1    4    4    0    0  0.22717717310E-01 -0.15750988542E-01 -0.56861855461E-02  0.28227329786E-01  0.51100000000E-03 0.  1.
</event>
<event>
 8    1  0.1128298E+005  0.1043930E+01  0.7957747E-01            NaN
         13   -1    0    0    0    0  0.00000000000E+00  0.00000000000E+00  0.74505805969E-08  0.10566000000E+00  0.10566000000E+00 0. -1.
     999900   -1    0    0    0    0 -0.00000000000E+00 -0.00000000000E+00 -0.74505805969E-08  0.93827000000E+00  0.93827000000E+00 0. -1.
     999902    2    1    2    0    0 -0.21623155095E-01 -0.53866374683E-02 -0.88243340218E-02  0.10199624058E+01  0.10196807656E+01 0.  0.
     999903    2    3    3    0    0  0.60728856752E-01  0.52489778266E-01 -0.99750031064E-01  0.12956978696E+00  0.19876874262E-01 0.  0.
         14    1    1    2    0    0  0.21623155095E-01  0.53866374683E-02  0.88243340218E-02  0.23967594173E-01  0.00000000000E+00 0. -1.
     999901    1    3    3    0    0 -0.82352011847E-01 -0.57876415734E-01  0.90925697043E-01  0.89039261887E+00  0.88000000000E+00 0.  1.
        -11    1    4    4    0    0  0.28931335558E-01  0.34559996302E-01 -0.44441229738E-01  0.63298495584E-01  0.51100000000E-03 0.  1.
         11    1    4    4    0    0  0.31797521194E-01  0.17929781964E-01 -0.55308801326E-01  0.66271291375E-01  0.51100000000E-03 0. -1.
</event>
<event>
 8    1  0.1128298E+005  0.1043930E+01  0.7957747E-01            NaN
         13   -1    0    0    0    0  0.00000000000E+00  0.00000000000E+00  0.74505805969E-08  0.10566000000E+00  0.10566000000E+00 0. -1.
     999900   -1    0    0    0    0 -0.00000000000E+00 -0.00000000000E+00 -0.74505805969E-08  0.93827000000E+00  0.93827000000E+00 0. -1.
     999902    2    1    2    0    0 -0.81183358584E-02 -0.20920464635E-01  0.55372410572E-02  0.10208164919E+01  0.10205547883E+01 0.  0.
     999903    2    3    3    0    0 -0.19294487637E-02 -0.10017989164E+00  0.86081133496E-01  0.13356924469E+00  0.19774936687E-01 0.  0.
         14    1    1    2    0    0  0.81183358584E-02  0.20920464635E-01 -0.55372410572E-02  0.23113508089E-01  0.00000000000E+00 0.  1.
     999901    1    3    3    0    0 -0.61888870946E-02  0.79259427007E-01 -0.80543892439E-01  0.88724724722E+00  0.88000000000E+00 0. -1.
        -11    1    4    4    0    0  0.67720403886E-02 -0.42250359785E-01  0.44454010057E-01  0.61703918548E-01  0.51100000000E-03 0. -1.
         11    1    4    4    0    0 -0.87014891523E-02 -0.57929531857E-01  0.41627123439E-01  0.71865326142E-01  0.51100000000E-03 0.  1.
</event>
<event>
 8    1  0.1128298E+005  0.1043930E+01  0.7957747E-01            NaN
         13   -1    0    0    0    0  0.00000000000E+00  0.00000000000E+00  0.74505805969E-08  0.10566000000E+00  0.10566000000E+00 0.  1.
     999900   -1    0    0    0    0 -0.00000000000E+00 -0.00000000000E+00 -0.74505805969E-08  0.93827000000E+00  0.93827000000E+00 0.  1.
     999902    2    1    2    0    0 -0.55975816948E-02 -0.13775189054E-01 -0.18202098528E-01  0.10204266993E+01  0.10201559898E+01 0.  0.
     999903    2    3    3    0    0  0.51416355573E-01  0.11553891955E+00  0.72177320852E-02  0.12878837825E+00  0.23269447029E-01 0.  0.
         14    1    1    2    0    0  0.55975816948E-02  0.13775189054E-01  0.18202098528E-01  0.23503300728E-01  0.00000000000E+00 0.  1.
     999901    1    3    3    0    0 -0.57013937268E-01 -0.12931410860E+00 -0.25419830613E-01  0.89163832102E+00  0.88000000000E+00 0. -1.
        -11    1    4    4    0    0  0.32228176947E-01  0.52279221792E-01 -0.47725822880E-02  0.61602037979E-01  0.51100000000E-03 0.  1.
         11    1    4    4    0    0  0.19188178626E-01  0.63259697756E-01  0.11990314373E-01  0.67186340271E-01  0.51100000000E-03 0. -1.
</event>
<event>
 8    1  0.1128298E+005  0.1043930E+01  0.7957747E-01            NaN
         13   -1    0    0    0    0  0.00000000000E+00  0.00000000000E+00  0.74505805969E-08  0.10566000000E+00  0.10566000000E+00 0.  1.
     999900   -1    0    0    0    0 -0.00000000000E+00 -0.00000000000E+00 -0.74505805969E-08  0.93827000000E+00  0.93827000000E+00 0. -1.
     999902    2    1    2    0    0 -0.28043172018E-02  0.22058700612E-01  0.95058993401E-02  0.10197471013E+01  0.10194603170E+01 0.  0.
     999903    2    3    3    0    0  0.13899210520E-01 -0.82278795871E-01 -0.94111510919E-01  0.12738961199E+00  0.20202684270E-01 0.  0.
         14    1    1    2    0    0  0.28043172018E-02 -0.22058700612E-01 -0.95058993401E-02  0.24182898708E-01  0.00000000000E+00 0.  1.
     999901    1    3    3    0    0 -0.16703527721E-01  0.10433749648E+00  0.10361741026E+00  0.89235748931E+00  0.88000000000E+00 0.  1.
        -11    1    4    4    0    0  0.16156603319E-01 -0.36620854456E-01 -0.40741829190E-01  0.57116377499E-01  0.51100000000E-03 0.  1.
         11    1    4    4    0    0 -0.22573927997E-02 -0.45657941415E-01 -0.53369681729E-01  0.70273234488E-01  0.51100000000E-03 0. -1.
</event>
<event>
 8    1  0.1128298E+005  0.1043930E+01  0.7957747E-01            NaN
         13   -1    0    0    0    0  0.00000000000E+00  0.00000000000E+00  0.74505805969E-08  0.10566000000E+00  0.10566000000E+00 0.  1.
     999900   -1    0    0    0    0 -0.00000000000E+00 -0.00000000000E+00 -0.74505805969E-08  0.93827000000E+00  0.93827000000E+00 0. -1.
     999902    2    1    2    0    0 -0.44433858840E-02 -0.47795765711E-03 -0.30305431797E-01  0.10132968265E+01  0.10128336820E+01 0.  0.
     999903    2    3    3    0    0  0.13931388291E-01  0.12184571849E+00  0.95941146824E-03  0.12409594679E+00  0.18932005821E-01 0.  0.
         14    1    1    2    0    0  0.44433858840E-02  0.47795765711E-03  0.30305431797E-01  0.30633173490E-01  0.00000000000E+00 0.  1.
     999901    1    3    3    0    0 -0.18374774175E-01 -0.12232367615E+00 -0.31264843265E-01  0.88920087972E+00  0.88000000000E+00 0. -1.
        -11    1    4    4    0    0  0.14943875869E-01  0.94739270791E-01  0.74477070622E-02  0.96200718903E-01  0.51100000000E-03 0. -1.
         11    1    4    4    0    0 -0.10124875779E-02  0.27106447702E-01 -0.64882955940E-02  0.27895227886E-01  0.51100000000E-03 0.  1.
</event>
<event>
 8    1  0.1215907E+005  0.1043930E+01  0.7957747E-01            NaN
         13   -1    0    0    0    0  0.00000000000E+00  0.00000000000E+00  0.74505805969E-08  0.10566000000E+00  0.10566000000E+00 0.  1.
     999900   -1    0    0    0    0 -0.00000000000E+00 -0.00000000000E+00 -0.74505805969E-08  0.93827000000E+00  0.93827000000E+00 0.  1.
     999902    2    1    2    0    0  0.96893711979E-02  0.20999413600E-01  0.98483394013E-02  0.10187933917E+01  0.10184832478E+01 0.  0.
     999903    2    3    3    0    0  0.46718443217E-01  0.79109022047E-01 -0.90395374530E-01  0.13042596722E+00  0.19968947968E-01 0.  0.
         14    1    1    2    0    0 -0.96893711979E-02 -0.20999413600E-01 -0.98483394013E-02  0.25136608258E-01  0.00000000000E+00 0. -1.
     999901    1    3    3    0    0 -0.37029072019E-01 -0.58109608447E-01  0.10024371393E+00  0.88836742452E+00  0.88000000000E+00 0. -1.
        -11    1    4    4    0    0  0.31197981574E-01  0.33674178297E-01 -0.47132339628E-01  0.65795006635E-01  0.51100000000E-03 0.  1.
         11    1    4    4    0    0  0.15520461643E-01  0.45434843751E-01 -0.43263034903E-01  0.64630960586E-01  0.51100000000E-03 0. -1.
</event>
<event>
 8    1  0.1128298E+005  0.1043930E+01  0.7957747E-01            NaN
         13   -1    0    0    0    0  0.00000000000E+00  0.00000000000E+00  0.74505805969E-08  0.10566000000E+00  0.10566000000E+00 0. -1.
     999900   -1    0    0    0    0 -0.00000000000E+00 -0.00000000000E+00 -0.74505805969E-08  0.93827000000E+00  0.93827000000E+00 0. -1.
     999902    2    1    2    0    0 -0.10682049203E-01  0.40792874986E-02  0.19618066759E-01  0.10212228358E+01  0.10209703547E+01 0.  0.
     999903    2    3    3    0    0 -0.58809766444E-02 -0.10093694391E+00 -0.78404279486E-01  0.12956155511E+00  0.20398847745E-01 0.  0.
         14    1    1    2    0    0  0.10682049203E-01 -0.40792874986E-02 -0.19618066759E-01  0.22707164178E-01  0.00000000000E+00 0. -1.
     999901    1    3    3    0    0 -0.48010725581E-02  0.10501623141E+00  0.98022346245E-01  0.89166128071E+00  0.88000000000E+00 0.  1.
        -11    1    4    4    0    0  0.16990302034E-02 -0.55839934164E-01 -0.54112236398E-01  0.77777761603E-01  0.51100000000E-03 0.  1.
         11    1    4    4    0    0 -0.75800068478E-02 -0.45097009743E-01 -0.24292043088E-01  0.51783793507E-01  0.51100000000E-03 0. -1.
</event>
<event>
 8    1  0.1128298E+005  0.1043930E+01  0.7957747E-01            NaN
         13   -1    0    0    0    0  0.00000000000E+00  0.00000000000E+00  0.74505805969E-08  0.10566000000E+00  0.10566000000E+00 0. -1.
     999900   -1    0    0    0    0 -0.00000000000E+00 -0.00000000000E+00 -0.74505805969E-08  0.93827000000E+00  0.93827000000E+00 0. -1.
     999902    2    1    2    0    0  0.10036059938E-01 -0.20057902033E-01 -0.87158812886E-02  0.10198674041E+01  0.10195835000E+01 0.  0.
     999903    2    3    3    0    0  0.15039475077E-01  0.11811357977E+00 -0.43597451897E-01  0.12838935252E+00  0.20151538230E-01 0.  0.
         14    1    1    2    0    0 -0.10036059938E-01  0.20057902033E-01  0.87158812886E-02  0.24062595863E-01  0.00000000000E+00 0. -1.
     999901    1    3    3    0    0 -0.50034151397E-02 -0.13817148180E+00  0.34881570609E-01  0.89147805162E+00  0.88000000000E+00 0.  1.
        -11    1    4    4    0    0 -0.46903358906E-02  0.31662444876E-01 -0.13547625770E-01  0.34760738647E-01  0.51100000000E-03 0.  1.
         11    1    4    4    0    0  0.19729810968E-01  0.86451134890E-01 -0.30049826127E-01  0.93628613873E-01  0.51100000000E-03 0. -1.
</event>
<event>
 8    1  0.1128298E+005  0.1043930E+01  0.7957747E-01            NaN
         13   -1    0    0    0    0  0.00000000000E+00  0.00000000000E+00  0.74505805969E-08  0.10566000000E+00  0.10566000000E+00 0.  1.
     999900   -1    0    0    0    0 -0.00000000000E+00 -0.00000000000E+00 -0.74505805969E-08  0.93827000000E+00  0.93827000000E+00 0.  1.
     999902    2    1    2    0    0 -0.21544940479E-01 -0.58587086621E-02  0.74775014995E-02  0.10203838335E+01  0.10201121241E+01 0.  0.
     999903    2    3    3    0    0 -0.31557723464E-01 -0.11059297966E+00  0.62696840107E-01  0.13239807986E+00  0.19278504349E-01 0.  0.
         14    1    1    2    0    0  0.21544940479E-01  0.58587086621E-02 -0.74775014995E-02  0.23546166484E-01  0.00000000000E+00 0.  1.
     999901    1    3    3    0    0  0.10012782985E-01  0.10473427100E+00 -0.55219338607E-01  0.88798575366E+00  0.88000000000E+00 0.  1.
        -11    1    4    4    0    0 -0.54029502135E-02 -0.45451672261E-01  0.18047798384E-01  0.49203968639E-01  0.51100000000E-03 0. -1.
         11    1    4    4    0    0 -0.26154773250E-01 -0.65141307400E-01  0.44649041723E-01  0.83194111218E-01  0.51100000000E-03 0.  1.
</event>
<event>
 8    1  0.1128298E+005  0.1043930E+01  0.7957747E-01            NaN
         13   -1    0    0    0    0  0.00000000000E+00  0.00000000000E+00  0.74505805969E-08  0.10566000000E+00  0.10566000000E+00 0. -1.
     999900   -1    0    0    0    0 -0.00000000000E+00 -0.00000000000E+00 -0.74505805969E-08  0.93827000000E+00  0.93827000000E+00 0. -1.
     999902    2    1    2    0    0 -0.12805225285E-01  0.60864021638E-03 -0.19178266481E-01  0.10208616203E+01  0.10206009493E+01 0.  0.
     999903    2    3    3    0    0  0.19964906992E-01  0.10466151893E+00 -0.75728935209E-01  0.13232413584E+00  0.20546879123E-01 0.  0.
         14    1    1    2    0    0  0.12805225285E-01 -0.60864021638E-03  0.19178266481E-01  0.23068379716E-01  0.00000000000E+00 0. -1.
     999901    1    3    3    0    0 -0.32770132277E-01 -0.10405287871E+00  0.56550668728E-01  0.88853748445E+00  0.88000000000E+00 0.  1.
        -11    1    4    4    0    0  0.14969870439E-02  0.54624028446E-01 -0.31814953757E-01  0.63233518465E-01  0.51100000000E-03 0. -1.
         11    1    4    4    0    0  0.18467919948E-01  0.50037490479E-01 -0.43913981452E-01  0.69090617370E-01  0.51100000000E-03 0.  1.
</event>
<event>
 8    1  0.1128298E+005  0.1043930E+01  0.7957747E-01            NaN
         13   -1    0    0    0    0  0.00000000000E+00  0.00000000000E+00  0.74505805969E-08  0.10566000000E+00  0.10566000000E+00 0. -1.
     999900   -1    0    0    0    0 -0.00000000000E+00 -0.00000000000E+00 -0.74505805969E-08  0.93827000000E+00  0.93827000000E+00 0.  1.
     999902    2    1    2    0    0 -0.90484098821E-02 -0.17037257354E-01  0.74951347132E-02  0.10232341332E+01  0.10230248151E+01 0.  0.
     999903    2    3    3    0    0 -0.15845648847E-01  0.19393253000E-01 -0.12819379867E+00  0.13206362693E+00  0.19492785665E-01 0.  0.
         14    1    1    2    0    0  0.90484098821E-02  0.17037257354E-01 -0.74951347132E-02  0.20695866832E-01  0.00000000000E+00 0.  1.
     999901    1    3    3    0    0  0.67972389648E-02 -0.36430510354E-01  0.13568893338E+00  0.89117050624E+00  0.88000000000E+00 0. -1.
        -11    1    4    4    0    0 -0.17444621986E-01  0.16411377058E-01 -0.74415456347E-01  0.78176527152E-01  0.51100000000E-03 0. -1.
         11    1    4    4    0    0  0.15989731396E-02  0.29818759417E-02 -0.53778342319E-01  0.53887099781E-01  0.51100000000E-03 0.  1.
</event>
<event>
 8    1  0.1128298E+005  0.1043930E+01  0.7957747E-01            NaN
         13   -1    0    0    0    0  0.00000000000E+00  0.00000000000E+00  0.74505805969E-08  0.10566000000E+00  0.10566000000E+00 0. -1.
     999900   -1    0    0    0    0 -0.00000000000E+00 -0.00000000000E+00 -0.74505805969E-08  0.93827000000E+00  0.93827000000E+00 0.  1.
     999902    2    1    2    0    0 -0.84711258399E-02  0.47103168823E-02 -0.21654068302E-01  0.10202056300E+01  0.10199297435E+01 0.  0.
     999903    2    3    3    0    0  0.57004812639E-01  0.23142409953E-01  0.10996401814E+00  0.12782109334E+00  0.21471535008E-01 0.  0.
         14    1    1    2    0    0  0.84711258399E-02 -0.47103168823E-02  0.21654068302E-01  0.23724370006E-01  0.00000000000E+00 0. -1.
     999901    1    3    3    0    0 -0.65475938478E-01 -0.18432093071E-01 -0.13161808644E+00  0.89238453665E+00  0.88000000000E+00 0.  1.
        -11    1    4    4    0    0  0.39283361305E-01  0.47665496243E-02  0.64285885245E-01  0.75490652623E-01  0.51100000000E-03 0.  1.
         11    1    4    4    0    0  0.17721451333E-01  0.18375860329E-01  0.45678132895E-01  0.52330440720E-01  0.51100000000E-03 0. -1.
</event>
<event>
 7    1  0.1356581E+005  0.1043930E+01  0.7957747E-01            NaN
         13   -1    0    0    0    0  0.00000000000E+00  0.00000000000E+00  0.74505805969E-08  0.10566000000E+00  0.10566000000E+00 0.  1.
     999900   -1    0    0    0    0 -0.00000000000E+00 -0.00000000000E+00 -0.74505805969E-08  0.93827000000E+00  0.93827000000E+00 0.  1.
     999903    2    1    2    0    0 -0.40893713764E-01  0.41460295802E-01  0.76738015262E-01  0.98438383630E-01  0.20251924158E-01 0.  0.
         14    1    1    2    0    0  0.36531112042E-01  0.29975020444E-01 -0.39852141733E-01  0.61815994681E-01  0.00000000000E+00 0. -1.
     999901    1    1    2    0    0  0.43626017217E-02 -0.71435316246E-01 -0.36885873529E-01  0.88367562169E+00  0.88000000000E+00 0. -1.
        -11    1    3    3    0    0 -0.98625910125E-02  0.13650046660E-01  0.37889040060E-01  0.41466069901E-01  0.51100000000E-03 0. -1.
         11    1    3    3    0    0 -0.31031122752E-01  0.27810249142E-01  0.38848975201E-01  0.56972313730E-01  0.51100000000E-03 0.  1.
</event>
<event>
 8    1  0.1128298E+005  0.1043930E+01  0.7957747E-01            NaN
         13   -1    0    0    0    0  0.00000000000E+00  0.00000000000E+00  0.74505805969E-08  0.10566000000E+00  0.10566000000E+00 0. -1.
     999900   -1    0    0    0    0 -0.00000000000E+00 -0.00000000000E+00 -0.74505805969E-08  0.93827000000E+00  0.93827000000E+00 0.  1.
     999902    2    1    2    0    0  0.10713361401E-01 -0.15147655757E-02 -0.21197465382E-01  0.10201307738E+01  0.10198531230E+01 0.  0.
     999903    2    3    3    0    0 -0.76728863576E-03 -0.15195270477E-01 -0.13115341266E+00  0.13310807296E+00  0.16883615003E-01 0.  0.
         14    1    1    2    0    0 -0.10713361401E-01  0.15147655757E-02  0.21197465382E-01  0.23799226162E-01  0.00000000000E+00 0. -1.
     999901    1    3    3    0    0  0.11480650037E-01  0.13680504901E-01  0.10995594728E+00  0.88702270088E+00  0.88000000000E+00 0. -1.
        -11    1    4    4    0    0 -0.75400995975E-02 -0.76181113622E-02 -0.93145314223E-01  0.93761396136E-01  0.51100000000E-03 0.  1.
         11    1    4    4    0    0  0.67728109618E-02 -0.75771591145E-02 -0.38008098441E-01  0.39346676819E-01  0.51100000000E-03 0. -1.
</event>
<event>
 8    1  0.1128298E+005  0.1043930E+01  0.7957747E-01            NaN
         13   -1    0    0    0    0  0.00000000000E+00  0.00000000000E+00  0.74505805969E-08  0.10566000000E+00  0.10566000000E+00 0.  1.
     999900   -1    0    0    0    0 -0.00000000000E+00 -0.00000000000E+00 -0.74505805969E-08  0.93827000000E+00  0.93827000000E+00 0.  1.
     999902    2    1    2    0    0 -0.23288409095E-01 -0.63250074473E-02  0.20670042185E-02  0.10197095908E+01  0.10194219054E+01 0.  0.
     999903    2    3    3    0    0 -0.84658768940E-01 -0.20522855195E-01  0.97565683048E-01  0.13230444225E+00  0.19927573498E-01 0.  0.
         14    1    1    2    0    0  0.23288409095E-01  0.63250074473E-02 -0.20670042185E-02  0.24220409242E-01  0.00000000000E+00 0.  1.
     999901    1    3    3    0    0  0.61370359844E-01  0.14197847747E-01 -0.95498678830E-01  0.88740514851E+00  0.88000000000E+00 0.  1.
        -11    1    4    4    0    0 -0.51537272716E-01 -0.21716578590E-01  0.56066210177E-01  0.79192053321E-01  0.51100000000E-03 0.  1.
         11    1    4    4    0    0 -0.33121496224E-01  0.11937233954E-02  0.41499472871E-01  0.53112388925E-01  0.51100000000E-03 0. -1.
</event>
<event>
 8    1  0.1128298E+005  0.1043930E+01  0.7957747E-01            NaN
         13   -1    0    0    0    0  0.00000000000E+00  0.00000000000E+00  0.74505805969E-08  0.10566000000E+00  0.10566000000E+00 0.  1.
     999900   -1    0    0    0    0 -0.00000000000E+00 -0.00000000000E+00 -0.74505805969E-08  0.93827000000E+00  0.93827000000E+00 0.  1.
     999902    2    1    2    0    0 -0.16104324068E-02  0.10174689925E-01 -0.19757067048E-01  0.10216486287E+01  0.10214056300E+01 0.  0.
     999903    2    3    3    0    0  0.29803994456E-01  0.12047149732E+00  0.40775901090E-01  0.13214511992E+00  0.19949908735E-01 0.  0.
         14    1    1    2    0    0  0.16104324068E-02 -0.10174689925E-01  0.19757067048E-01  0.22281371276E-01  0.00000000000E+00 0.  1.
     999901    1    3    3    0    0 -0.31414426863E-01 -0.11029680739E+00 -0.60532968138E-01  0.88950350880E+00  0.88000000000E+00 0.  1.
        -11    1    4    4    0    0  0.11718563341E-01  0.78679232659E-01  0.32123174933E-01  0.85789893737E-01  0.51100000000E-03 0. -1.
         11    1    4    4    0    0  0.18085431116E-01  0.41792264658E-01  0.86527261572E-02  0.46355226187E-01  0.51100000000E-03 0.  1.
</event>
<event>
 8    1  0.1128298E+005  0.1043930E+01  0.7957747E-01            NaN
         13   -1    0    0    0    0  0.00000000000E+00  0.00000000000E+00  0.74505805969E-08  0.10566000000E+00  0.10566000000E+00 0. -1.
     999900   -1    0    0    0    0 -0.00000000000E+00 -0.00000000000E+00 -0.74505805969E-08  0.93827000000E+00  0.93827000000E+00 0.  1.
     999902    2    1    2    0    0  0.60164576369E-02  0.37238398196E-03 -0.22963990033E-01  0.10201880272E+01  0.10199117264E+01 0.  0.
     999903    2    3    3    0    0 -0.44850087473E-01  0.11632612338E+00 -0.33034653041E-01  0.13106818529E+00  0.23329885725E-01 0.  0.
         14    1    1    2    0    0 -0.60164576369E-02 -0.37238398196E-03  0.22963990033E-01  0.23741972760E-01  0.00000000000E+00 0. -1.
     999901    1    3    3    0    0  0.50866545110E-01 -0.11595373940E+00  0.10070663008E-01  0.88911984195E+00  0.88000000000E+00 0.  1.
        -11    1    4    4    0    0 -0.21030137990E-01  0.77857755436E-01 -0.28733613526E-01  0.85615293334E-01  0.51100000000E-03 0. -1.
         11    1    4    4    0    0 -0.23819949483E-01  0.38468367941E-01 -0.43010395145E-02  0.45452891958E-01  0.51100000000E-03 0.  1.
</event>
<event>
 8    1  0.1128298E+005  0.1043930E+01  0.7957747E-01            NaN
         13   -1    0    0    0    0  0.00000000000E+00  0.00000000000E+00  0.74505805969E-08  0.10566000000E+00  0.10566000000E+00 0. -1.
     999900   -1    0    0    0    0 -0.00000000000E+00 -0.00000000000E+00 -0.74505805969E-08  0.93827000000E+00  0.93827000000E+00 0.  1.
     999902    2    1    2    0    0  0.16330515072E-01  0.11896288471E-01  0.11710599644E-01  0.10205773653E+01  0.10203101553E+01 0.  0.
     999903    2    3    3    0    0  0.69882313057E-01  0.97687898620E-01  0.55137280149E-01  0.13372119209E+00  0.20366009340E-01 0.  0.
         14    1    1    2    0    0 -0.16330515072E-01 -0.11896288471E-01 -0.11710599644E-01  0.23352634668E-01  0.00000000000E+00 0.  1.
     999901    1    3    3    0    0 -0.53551797986E-01 -0.85791610149E-01 -0.43426680505E-01  0.88685617324E+00  0.88000000000E+00 0.  1.
        -11    1    4    4    0    0  0.71517808410E-02  0.23787691793E-02  0.17858876658E-02  0.77625400328E-02  0.51100000000E-03 0. -1.
         11    1    4    4    0    0  0.62730532216E-01  0.95309129441E-01  0.53351392483E-01  0.12595865206E+00  0.51100000000E-03 0.  1.
</event>
<event>
 8    1  0.1128298E+005  0.1043930E+01  0.7957747E-01            NaN
         13   -1    0    0    0    0  0.00000000000E+00  0.00000000000E+00  0.74505805969E-08  0.10566000000E+00  0.10566000000E+00 0.  1.
     999900   -1    0    0    0    0 -0.00000000000E+00 -0.00000000000E+00 -0.74505805969E-08  0.93827000000E+00  0.93827000000E+00 0. -1.
     999902    2    1    2    0    0 -0.21163348488E-01 -0.88726349625E-02 -0.22917846668E-02  0.10208678395E+01  0.10206073106E+01 0.  0.
     999903    2    3    3    0    0 -0.54761056292E-01 -0.11919353390E+00 -0.10514366779E-01  0.13330538109E+00  0.21304950318E-01 0.  0.
         14    1    1    2    0    0  0.21163348488E-01  0.88726349625E-02  0.22917846668E-02  0.23062160509E-01  0.00000000000E+00 0. -1.
     999901    1    3    3    0    0  0.33597707804E-01  0.11032089894E+00  0.82225821121E-02  0.88756245840E+00  0.88000000000E+00 0. -1.
        -11    1    4    4    0    0 -0.50673313475E-01 -0.99893684983E-01 -0.15153464457E-01  0.11303283419E+00  0.51100000000E-03 0. -1.
         11    1    4    4    0    0 -0.40877428164E-02 -0.19299848917E-01  0.46390976786E-02  0.20272546901E-01  0.51100000000E-03 0.  1.
</event>
<event>
 8    1  0.1128298E+005  0.1043930E+01  0.7957747E-01            NaN
         13   -1    0    0    0    0  0.00000000000E+00  0.00000000000E+00  0.74505805969E-08  0.10566000000E+00  0.10566000000E+00 0.  1.
     999900   -1    0    0    0    0 -0.00000000000E+00 -0.00000000000E+00 -0.74505805969E-08  0.93827000000E+00  0.93827000000E+00 0. -1.
     999902    2    1    2    0    0  0.14790940007E-01  0.26283984864E-02  0.27013358105E-01  0.10130204238E+01  0.10125487530E+01 0.  0.
     999903    2    3    3    0    0 -0.89652810752E-02 -0.26814571294E-01  0.12229123287E+00  0.12706945454E+00  0.19801594415E-01 0.  0.
         14    1    1    2    0    0 -0.14790940007E-01 -0.26283984864E-02 -0.27013358105E-01  0.30909576202E-01  0.00000000000E+00 0. -1.
     999901    1    3    3    0    0  0.23756221082E-01  0.29442969781E-01 -0.95277874766E-01  0.88595096926E+00  0.88000000000E+00 0. -1.
        -11    1    4    4    0    0 -0.33920376980E-02  0.25370680592E-02  0.22489259996E-01  0.22890403454E-01  0.51100000000E-03 0. -1.
         11    1    4    4    0    0 -0.55732433772E-02 -0.29351639354E-01  0.99801972875E-01  0.10417905109E+00  0.51100000000E-03 0.  1.
</event>
<event>
 8    1  0.1128298E+005  0.1043930E+01  0.7957747E-01            NaN
         13   -1    0    0    0    0  0.00000000000E+00  0.00000000000E+00  0.74505805969E-08  0.10566000000E+00  0.10566000000E+00 0.  1.
     999900   -1    0    0    0    0 -0.00000000000E+00 -0.00000000000E+00 -0.74505805969E-08  0.93827000000E+00  0.93827000000E+00 0.  1.
     999902    2    1    2    0    0  0.47798313175E-02 -0.13008888860E-01  0.18817883361E-01  0.10205592766E+01  0.10202916477E+01 0.  0.
     999903    2    3    3    0    0 -0.10539419916E+00  0.34220044785E-01 -0.62447987858E-01  0.12872239076E+00  0.19767498925E-01 0.  0.
         14    1    1    2    0    0 -0.47798313175E-02  0.13008888860E-01 -0.18817883361E-01  0.23370723373E-01  0.00000000000E+00 0. -1.
     999901    1    3    3    0    0  0.11017403048E+00 -0.47228933644E-01  0.81265871219E-01  0.89183688587E+00  0.88000000000E+00 0.  1.
        -11    1    4    4    0    0 -0.32837206324E-01  0.11339375177E-01 -0.30404645817E-01  0.46168898155E-01  0.51100000000E-03 0. -1.
         11    1    4    4    0    0 -0.72556992838E-01  0.22880669607E-01 -0.32043342041E-01  0.82553492607E-01  0.51100000000E-03 0.  1.
</event>
<event>
 8    1  0.1128298E+005  0.1043930E+01  0.7957747E-01            NaN
         13   -1    0    0    0    0  0.00000000000E+00  0.00000000000E+00  0.74505805969E-08  0.10566000000E+00  0.10566000000E+00 0.  1.
     999900   -1    0    0    0    0 -0.00000000000E+00 -0.00000000000E+00 -0.74505805969E-08  0.93827000000E+00  0.93827000000E+00 0.  1.
     999902    2    1    2    0    0 -0.43539220615E-02  0.61773336012E-03  0.23355258751E-01  0.10201643453E+01  0.10198874865E+01 0.  0.
     999903    2    3    3    0    0  0.22249130558E-01 -0.62314114189E-01  0.11275961489E+00  0.13299960370E+00  0.24414978928E-01 0.  0.
         14    1    1    2    0    0  0.43539220615E-02 -0.61773336012E-03 -0.23355258751E-01  0.23765654696E-01  0.00000000000E+00 0. -1.
     999901    1    3    3    0    0 -0.26603052619E-01  0.62931847549E-01 -0.89404356143E-01  0.88716474160E+00  0.88000000000E+00 0.  1.
        -11    1    4    4    0    0  0.20513378460E-01 -0.42595069656E-01  0.58362914675E-01  0.75110782083E-01  0.51100000000E-03 0.  1.
         11    1    4    4    0    0  0.17357520980E-02 -0.19719044534E-01  0.54396700219E-01  0.57888821619E-01  0.51100000000E-03 0. -1.
</event>
<event>
 8    1  0.1128298E+005  0.1043930E+01  0.7957747E-01            NaN
         13   -1    0    0    0    0  0.00000000000E+00  0.00000000000E+00  0.74505805969E-08  0.10566000000E+00  0.10566000000E+00 0. -1.
     999900   -1    0    0    0    0 -0.00000000000E+00 -0.00000000000E+00 -0.74505805969E-08  0.93827000000E+00  0.93827000000E+00 0.  1.
     999902    2    1    2    0    0 -0.68527704941E-03 -0.15236916845E-01  0.17103595027E-01  0.10210134950E+01  0.10207562837E+01 0.  0.
     999903    2    3    3    0    0  0.52307350768E-01 -0.12006434720E+00 -0.92194107303E-02  0.13281874753E+00  0.20107604262E-01 0.  0.
         14    1    1    2    0    0  0.68527704941E-03  0.15236916845E-01 -0.17103595027E-01  0.22916505022E-01  0.00000000000E+00 0.  1.
     999901    1    3    3    0    0 -0.52992627818E-01  0.10482743035E+00  0.26323005757E-01  0.88819474745E+00  0.88000000000E+00 0.  1.
        -11    1    4    4    0    0  0.26386570197E-01 -0.80753135224E-01 -0.67339022498E-03  0.84959016653E-01  0.51100000000E-03 0. -1.
         11    1    4    4    0    0  0.25920780572E-01 -0.39311211975E-01 -0.85460205053E-02  0.47859730880E-01  0.51100000000E-03 0.  1.
</event>
<event>
 8    1  0.1128298E+005  0.1043930E+01  0.7957747E-01            NaN
         13   -1    0    0    0    0  0.00000000000E+00  0.00000000000E+00  0.74505805969E-08  0.10566000000E+00  0.10566000000E+00 0. -1.
     999900   -1    0    0    0    0 -0.00000000000E+00 -0.00000000000E+00 -0.74505805969E-08  0.93827000000E+00  0.93827000000E+00 0. -1.
     999902    2    1    2    0    0 -0.20646725418E-01  0.42517702463E-02  0.95741853930E-02  0.10207776816E+01  0.10205150883E+01 0.  0.
     999903    2    3    3    0    0  0.25476772923E-01  0.77524352952E-01 -0.99062428324E-01  0.12988029004E+00  0.19910644786E-01 0.  0.
         14    1    1    2    0    0  0.20646725418E-01 -0.42517702463E-02 -0.95741853930E-02  0.23152318386E-01  0.00000000000E+00 0.  1.
     999901    1    3    3    0    0 -0.46123498341E-01 -0.73272582706E-01  0.10863661372E+00  0.89089739158E+00  0.88000000000E+00 0. -1.
        -11    1    4    4    0    0  0.11604636058E-01  0.11568535930E-01 -0.15945706219E-01  0.22869745723E-01  0.51100000000E-03 0.  1.
         11    1    4    4    0    0  0.13872136865E-01  0.65955817022E-01 -0.83116722106E-01  0.10701054432E+00  0.51100000000E-03 0. -1.
</event>
<event>
 8    1  0.1128298E+005  0.1043930E+01  0.7957747E-01            NaN
         13   -1    0    0    0    0  0.00000000000E+00  0.00000000000E+00  0.74505805969E-08  0.10566000000E+00  0.10566000000E+00 0.  1.
     999900   -1    0    0    0    0 -0.00000000000E+00 -0.00000000000E+00 -0.74505805969E-08  0.93827000000E+00  0.93827000000E+00 0. -1.
     999902    2    1    2    0    0  0.16725274968E-02 -0.23377880204E-01  0.51214040300E-02  0.10199393474E+01  0.10196571586E+01 0.  0.
     999903    2    3    3    0    0  0.98503012661E-01  0.47821727946E-01 -0.65164329006E-01  0.12899287804E+00  0.20075149923E-01 0.  0.
         14    1    1    2    0    0 -0.16725274968E-02  0.23377880204E-01 -0.51214040300E-02  0.23990652561E-01  0.00000000000E+00 0. -1.
     999901    1    3    3    0    0 -0.96830485164E-01 -0.71199608150E-01  0.70285733036E-01  0.89094646939E+00  0.88000000000E+00 0. -1.
        -11    1    4    4    0    0  0.57434733028E-01  0.29226631117E-01 -0.49509565576E-01  0.81267476452E-01  0.51100000000E-03 0. -1.
         11    1    4    4    0    0  0.41068279633E-01  0.18595096829E-01 -0.15654763430E-01  0.47725401593E-01  0.51100000000E-03 0.  1.
</event>
<event>
 8    1  0.1128298E+005  0.1043930E+01  0.7957747E-01            NaN
         13   -1    0    0    0    0  0.00000000000E+00  0.00000000000E+00  0.74505805969E-08  0.10566000000E+00  0.10566000000E+00 0.  1.
     999900   -1    0    0    0    0 -0.00000000000E+00 -0.00000000000E+00 -0.74505805969E-08  0.93827000000E+00  0.93827000000E+00 0.  1.
     999902    2    1    2    0    0 -0.12366262252E-02 -0.67625091262E-02  0.22643591654E-01  0.10202658284E+01  0.10199913566E+01 0.  0.
     999903    2    3    3    0    0 -0.68239776494E-01 -0.93173366973E-01 -0.56397768637E-01  0.12998284242E+00  0.19413593385E-01 0.  0.
         14    1    1    2    0    0  0.12366262252E-02  0.67625091262E-02 -0.22643591654E-01  0.23664171591E-01  0.00000000000E+00 0. -1.
     999901    1    3    3    0    0  0.67003150268E-01  0.86410857847E-01  0.79041360291E-01  0.89028298599E+00  0.88000000000E+00 0.  1.
        -11    1    4    4    0    0 -0.45844244526E-01 -0.67126181220E-01 -0.29965514390E-01  0.86636090257E-01  0.51100000000E-03 0.  1.
         11    1    4    4    0    0 -0.22395531968E-01 -0.26047185753E-01 -0.26432254247E-01  0.43346752166E-01  0.51100000000E-03 0. -1.
</event>
<event>
 8    1  0.1128298E+005  0.1043930E+01  0.7957747E-01            NaN
         13   -1    0    0    0    0  0.00000000000E+00  0.00000000000E+00  0.74505805969E-08  0.10566000000E+00  0.10566000000E+00 0. -1.
     999900   -1    0    0    0    0 -0.00000000000E+00 -0.00000000000E+00 -0.74505805969E-08  0.93827000000E+00  0.93827000000E+00 0.  1.
     999902    2    1    2    0    0 -0.23510580191E-01  0.89917751959E-03  0.63019284473E-03  0.10203937929E+01  0.10201223160E+01 0.  0.
     999903    2    3    3    0    0  0.84904074411E-01 -0.85926407694E-01  0.37740736648E-01  0.12872703226E+00  0.23542222539E-01 0.  0.
         14    1    1    2    0    0  0.23510580191E-01 -0.89917751959E-03 -0.63019284473E-03  0.23536207089E-01  0.00000000000E+00 0.  1.
     999901    1    3    3    0    0 -0.10841465460E+00  0.86825585214E-01 -0.37110543803E-01  0.89166676065E+00  0.88000000000E+00 0.  1.
        -11    1    4    4    0    0  0.66486776513E-01 -0.79238593844E-01  0.32782727605E-01  0.10850905287E+00  0.51100000000E-03 0.  1.
         11    1    4    4    0    0  0.18417297898E-01 -0.66878138504E-02  0.49580090429E-02  0.20217979390E-01  0.51100000000E-03 0. -1.
</event>
<event>
 8    1  0.1128298E+005  0.1043930E+01  0.7957747E-01            NaN
         13   -1    0    0    0    0  0.00000000000E+00  0.00000000000E+00  0.74505805969E-08  0.10566000000E+00  0.10566000000E+00 0.  1.
     999900   -1    0    0    0    0 -0.00000000000E+00 -0.00000000000E+00 -0.74505805969E-08  0.93827000000E+00  0.93827000000E+00 0. -1.
     999902    2    1    2    0    0 -0.79631986332E-02  0.22052243391E-01  0.87343848464E-04  0.10204838575E+01  0.10202144783E+01 0.  0.
     999903    2    3    3    0    0 -0.11605616892E+00 -0.26373114688E-01 -0.51115268165E-01  0.13107348367E+00  0.20072666929E-01 0.  0.
         14    1    1    2    0    0  0.79631986332E-02 -0.22052243391E-01 -0.87343848464E-04  0.23446142540E-01  0.00000000000E+00 0.  1.
     999901    1    3    3    0    0  0.10809297029E+00  0.48425358079E-01  0.51202612014E-01  0.88941037379E+00  0.88000000000E+00 0.  1.
        -11    1    4    4    0    0 -0.76882622273E-01 -0.17386122235E-01 -0.23313755670E-01  0.82201016894E-01  0.51100000000E-03 0.  1.
         11    1    4    4    0    0 -0.39173546651E-01 -0.89869924534E-02 -0.27801512496E-01  0.48872466775E-01  0.51100000000E-03 0. -1.
</event>
<event>
 8    1  0.1128298E+005  0.1043930E+01  0.7957747E-01            NaN
         13   -1    0    0    0    0  0.00000000000E+00  0.00000000000E+00  0.74505805969E-08  0.10566000000E+00  0.10566000000E+00 0. -1.
     999900   -1    0    0    0    0 -0.00000000000E+00 -0.00000000000E+00 -0.74505805969E-08  0.93827000000E+00  0.93827000000E+00 0.  1.
     999902    2    1    2    0    0 -0.71134035929E-02  0.64317785452E-02  0.21261431786E-01  0.10206058330E+01  0.10203392816E+01 0.  0.
     999903    2    3    3    0    0  0.10392976821E+00 -0.53740552475E-01 -0.49573422442E-01  0.12877127881E+00  0.20858435533E-01 0.  0.
         14    1    1    2    0    0  0.71134035929E-02 -0.64317785452E-02 -0.21261431786E-01  0.23324167027E-01  0.00000000000E+00 0.  1.
     999901    1    3    3    0    0 -0.11104317181E+00  0.60172331020E-01  0.70834854227E-01  0.89183455416E+00  0.88000000000E+00 0. -1.
        -11    1    4    4    0    0  0.57558946685E-01 -0.22639501758E-01 -0.17082070840E-01  0.64168821468E-01  0.51100000000E-03 0.  1.
         11    1    4    4    0    0  0.46370821527E-01 -0.31101050717E-01 -0.32491351602E-01  0.64602457343E-01  0.51100000000E-03 0. -1.
</event>
<event>
 8    1  0.1128298E+005  0.1043930E+01  0.7957747E-01            NaN
         13   -1    0    0    0    0  0.00000000000E+00  0.00000000000E+00  0.74505805969E-08  0.10566000000E+00  0.10566000000E+00 0.  1.
     999900   -1    0    0    0    0 -0.00000000000E+00 -0.00000000000E+00 -0.74505805969E-08  0.93827000000E+00  0.93827000000E+00 0. -1.
     999902    2    1    2    0    0 -0.10604339985E-01  0.19445852141E-01 -0.77857851589E-02  0.10204521031E+01  0.10201819853E+01 0.  0.
     999903    2    3    3    0    0 -0.33338717006E-02 -0.11479599526E+00 -0.55179955806E-01  0.12898144138E+00  0.20053664739E-01 0.  0.
         14    1    1    2    0    0  0.10604339985E-01 -0.19445852141E-01  0.77857851589E-02  0.23477896894E-01  0.00000000000E+00 0.  1.
     999901    1    3    3    0    0 -0.72704682842E-02  0.13424184740E+00  0.47394170647E-01  0.89147066172E+00  0.88000000000E+00 0.  1.
        -11    1    4    4    0    0 -0.25309908702E-03 -0.91691848517E-01 -0.34999243783E-01  0.98146152905E-01  0.51100000000E-03 0.  1.
         11    1    4    4    0    0 -0.30807726135E-02 -0.23104146745E-01 -0.20180712023E-01  0.30835288477E-01  0.51100000000E-03 0. -1.
</event>
<event>
 8    1  0.1128298E+005  0.1043930E+01  0.7957747E-01            NaN
         13   -1    0    0    0    0  0.00000000000E+00  0.00000000000E+00  0.74505805969E-08  0.10566000000E+00  0.10566000000E+00 0. -1.
     999900   -1    0    0    0    0 -0.00000000000E+00 -0.00000000000E+00 -0.74505805969E-08  0.93827000000E+00  0.93827000000E+00 0. -1.
     999902    2    1    2    0    0  0.16644582937E-02  0.10331984272E-02  0.23672977569E-01  0.10201760995E+01  0.10198995177E+01 0.  0.
     999903    2    3    3    0    0  0.57465400537E-01  0.42499613057E-01 -0.10442003247E+00  0.12818897635E+00  0.20503197493E-01 0.  0.
         14    1    1    2    0    0 -0.16644582937E-02 -0.10331984272E-02 -0.23672977569E-01  0.23753900467E-01  0.00000000000E+00 0.  1.
     999901    1    3    3    0    0 -0.55800942243E-01 -0.41466414629E-01  0.12809301004E+00  0.89198712318E+00  0.88000000000E+00 0.  1.
        -11    1    4    4    0    0  0.45985573330E-01  0.39457569506E-01 -0.74746389141E-01  0.96222952337E-01  0.51100000000E-03 0. -1.
         11    1    4    4    0    0  0.11479827207E-01  0.30420435505E-02 -0.29673643334E-01  0.31966024016E-01  0.51100000000E-03 0.  1.
</event>
<event>
 8    1  0.1128298E+005  0.1043930E+01  0.7957747E-01            NaN
         13   -1    0    0    0    0  0.00000000000E+00  0.00000000000E+00  0.74505805969E-08  0.10566000000E+00  0.10566000000E+00 0.  1.
     999900   -1    0    0    0    0 -0.00000000000E+00 -0.00000000000E+00 -0.74505805969E-08  0.93827000000E+00  0.93827000000E+00 0.  1.
     999902    2    1    2    0    0 -0.19597319315E-02  0.19542681594E-01  0.80221228624E-02  0.10227141708E+01  0.10224940898E+01 0.  0.
     999903    2    3    3    0    0  0.89821723507E-01 -0.93093445047E-01  0.24125743507E-02  0.13078244717E+00  0.19076070077E-01 0.  0.
         14    1    1    2    0    0  0.19597319315E-02 -0.19542681594E-01 -0.80221228624E-02  0.21215829193E-01  0.00000000000E+00 0.  1.
     999901    1    3    3    0    0 -0.91781455438E-01  0.11263612664E+00  0.56095485117E-02  0.89193172363E+00  0.88000000000E+00 0. -1.
        -11    1    4    4    0    0  0.50976144637E-01 -0.42052694831E-01  0.71127350397E-02  0.66466898418E-01  0.51100000000E-03 0.  1.
         11    1    4    4    0    0  0.38845578870E-01 -0.51040750217E-01 -0.47001606890E-02  0.64315548757E-01  0.51100000000E-03 0. -1.
</event>
<event>
 8    1  0.1128298E+005  0.1043930E+01  0.7957747E-01            NaN
         13   -1    0    0    0    0  0.00000000000E+00  0.00000000000E+00  0.74505805969E-08  0.10566000000E+00  0.10566000000E+00 0. -1.
     999900   -1    0    0    0    0 -0.00000000000E+00 -0.00000000000E+00 -0.74505805969E-08  0.93827000000E+00  0.93827000000E+00 0.  1.
     999902    2    1    2    0    0  0.46648706287E-02 -0.26085520041E-02 -0.23805867985E-01  0.10195315387E+01  0.10192395565E+01 0.  0.
     999903    2    3    3    0    0  0.10839310337E+00  0.20323497062E-01  0.63555191250E-01  0.12884788007E+00  0.20010109242E-01 0.  0.
         14    1    1    2    0    0 -0.46648706287E-02  0.26085520041E-02  0.23805867985E-01  0.24398461265E-01  0.00000000000E+00 0. -1.
     999901    1    3    3    0    0 -0.10372823275E+00 -0.22932049066E-01 -0.87361059236E-01  0.89068365867E+00  0.88000000000E+00 0.  1.
        -11    1    4    4    0    0  0.93889629798E-01  0.10321210667E-01  0.53416416664E-01  0.10851435234E+00  0.51100000000E-03 0. -1.
         11    1    4    4    0    0  0.14503473576E-01  0.10002286395E-01  0.10138774586E-01  0.20333527731E-01  0.51100000000E-03 0.  1.
</event>
<event>
 8    1  0.1128298E+005  0.1043930E+01  0.7957747E-01            NaN
         13   -1    0    0    0    0  0.00000000000E+00  0.00000000000E+00  0.74505805969E-08  0.10566000000E+00  0.10566000000E+00 0. -1.
     999900   -1    0    0    0    0 -0.00000000000E+00 -0.00000000000E+00 -0.74505805969E-08  0.93827000000E+00  0.93827000000E+00 0.  1.
     999902    2    1    2    0    0 -0.28726584586E-02  0.12073470959E-02  0.24124705918E-01  0.10196048836E+01  0.10193146753E+01 0.  0.
     999903    2    3    3    0    0  0.59691969711E-01  0.10079620156E+00 -0.49745231714E-01  0.12871261157E+00  0.19218293401E-01 0.  0.
         14    1    1    2    0    0  0.28726584586E-02 -0.12073470959E-02 -0.24124705918E-01  0.24325116429E-01  0.00000000000E+00 0.  1.
     999901    1    3    3    0    0 -0.62564628170E-01 -0.99588854464E-01  0.73869937632E-01  0.89089227200E+00  0.88000000000E+00 0. -1.
        -11    1    4    4    0    0  0.95183671616E-02  0.13136725128E-01 -0.24847800447E-03  0.16232551335E-01  0.51100000000E-03 0.  1.
         11    1    4    4    0    0  0.50173602549E-01  0.87659476432E-01 -0.49496753709E-01  0.11248006023E+00  0.51100000000E-03 0. -1.
</event>
<event>
 8    1  0.1128298E+005  0.1043930E+01  0.7957747E-01            NaN
         13   -1    0    0    0    0  0.00000000000E+00  0.00000000000E+00  0.74505805969E-08  0.10566000000E+00  0.10566000000E+00 0. -1.
     999900   -1    0    0    0    0 -0.00000000000E+00 -0.00000000000E+00 -0.74505805969E-08  0.93827000000E+00  0.93827000000E+00 0.  1.
     999902    2    1    2    0    0  0.47289090320E-02 -0.20628102252E-01 -0.18396999290E-01  0.10158884101E+01  0.10155013200E+01 0.  0.
     999903    2    3    3    0    0  0.24748299490E-01 -0.12072044300E+00 -0.35464469228E-01  0.12982376728E+00  0.20262731494E-01 0.  0.
         14    1    1    2    0    0 -0.47289090320E-02  0.20628102252E-01  0.18396999290E-01  0.28041589934E-01  0.00000000000E+00 0. -1.
     999901    1    3    3    0    0 -0.20019390458E-01  0.10009234074E+00  0.17067469937E-01  0.88606464279E+00  0.88000000000E+00 0. -1.
        -11    1    4    4    0    0 -0.27153100583E-03 -0.38854281125E-01 -0.16059375062E-01  0.42046326108E-01  0.51100000000E-03 0.  1.
         11    1    4    4    0    0  0.25019830496E-01 -0.81866161871E-01 -0.19405094166E-01  0.87777441169E-01  0.51100000000E-03 0. -1.
</event>
<event>
 8    1  0.1128298E+005  0.1043930E+01  0.7957747E-01            NaN
         13   -1    0    0    0    0  0.00000000000E+00  0.00000000000E+00  0.74505805969E-08  0.10566000000E+00  0.10566000000E+00 0.  1.
     999900   -1    0    0    0    0 -0.00000000000E+00 -0.00000000000E+00 -0.74505805969E-08  0.93827000000E+00  0.93827000000E+00 0. -1.
     999902    2    1    2    0    0 -0.79838178269E-02 -0.22220610055E-01  0.27255390352E-02  0.10201618402E+01  0.10198849223E+01 0.  0.
     999903    2    3    3    0    0  0.47687882251E-02  0.12464296007E+00  0.19371605364E-01  0.12774454501E+00  0.19616341360E-01 0.  0.
         14    1    1    2    0    0  0.79838178269E-02  0.22220610055E-01 -0.27255390352E-02  0.23768159822E-01  0.00000000000E+00 0. -1.
     999901    1    3    3    0    0 -0.12752606052E-01 -0.14686357013E+00 -0.16646066329E-01  0.89241729517E+00  0.88000000000E+00 0. -1.
        -11    1    4    4    0    0  0.24106800400E-03  0.62421774606E-01  0.19794769802E-04  0.62424334771E-01  0.51100000000E-03 0. -1.
         11    1    4    4    0    0  0.45277202211E-02  0.62221185467E-01  0.19351810594E-01  0.65320210239E-01  0.51100000000E-03 0.  1.
</event>
<event>
 8    1  0.1128298E+005  0.1043930E+01  0.7957747E-01            NaN
         13   -1    0    0    0    0  0.00000000000E+00  0.00000000000E+00  0.74505805969E-08  0.10566000000E+00  0.10566000000E+00 0. -1.
     999900   -1    0    0    0    0 -0.00000000000E+00 -0.00000000000E+00 -0.74505805969E-08  0.93827000000E+00  0.93827000000E+00 0. -1.
     999902    2    1    2    0    0 -0.88875404119E-03 -0.44195512606E-02 -0.22933210382E-01  0.10205579129E+01  0.10202902524E+01 0.  0.
     999903    2    3    3    0    0 -0.95322627987E-01  0.84095060555E-01  0.18616294979E-01  0.13012040557E+00  0.20648750374E-01 0.  0.
         14    1    1    2    0    0  0.88875404119E-03  0.44195512606E-02  0.22933210382E-01  0.23372087102E-01  0.00000000000E+00 0. -1.
     999901    1    3    3    0    0  0.94433873946E-01 -0.88514611815E-01 -0.41549505361E-01  0.89043750732E+00  0.88000000000E+00 0.  1.
        -11    1    4    4    0    0 -0.38050923628E-01  0.24910109296E-01  0.14177731456E-01  0.47640901800E-01  0.51100000000E-03 0. -1.
         11    1    4    4    0    0 -0.57271704359E-01  0.59184951259E-01  0.44385635228E-02  0.82479503775E-01  0.51100000000E-03 0.  1.
</event>
<event>
 8    1  0.1128298E+005  0.1043930E+01  0.7957747E-01            NaN
         13   -1    0    0    0    0  0.00000000000E+00  0.00000000000E+00  0.74505805969E-08  0.10566000000E+00  0.10566000000E+00 0. -1.
     999900   -1    0    0    0    0 -0.00000000000E+00 -0.00000000000E+00 -0.74505805969E-08  0.93827000000E+00  0.93827000000E+00 0.  1.
     999902    2    1    2    0    0  0.25743824566E-02 -0.23418186573E-01 -0.37518322789E-02  0.10200738655E+01  0.10197948695E+01 0.  0.
     999903    2    3    3    0    0  0.28811557357E-01  0.66158375641E-01  0.10435101980E+00  0.12855910036E+00  0.20767051974E-01 0.  0.
         14    1    1    2    0    0 -0.25743824566E-02  0.23418186573E-01  0.37518322789E-02  0.23856134490E-01  0.00000000000E+00 0.  1.
     999901    1    3    3    0    0 -0.26237174901E-01 -0.89576562214E-01 -0.10810285208E+00  0.89151476515E+00  0.88000000000E+00 0.  1.
        -11    1    4    4    0    0  0.51970633047E-03  0.25222267563E-01  0.32146454111E-01  0.40866716391E-01  0.51100000000E-03 0. -1.
         11    1    4    4    0    0  0.28291851027E-01  0.40936108079E-01  0.72204565691E-01  0.87692383973E-01  0.51100000000E-03 0.  1.
</event>
<event>
 8    1  0.1128298E+005  0.1043930E+01  0.7957747E-01            NaN
         13   -1    0    0    0    0  0.00000000000E+00  0.00000000000E+00  0.74505805969E-08  0.10566000000E+00  0.10566000000E+00 0. -1.
     999900   -1    0    0    0    0 -0.00000000000E+00 -0.00000000000E+00 -0.74505805969E-08  0.93827000000E+00  0.93827000000E+00 0.  1.
     999902    2    1    2    0    0 -0.90800228282E-02 -0.23109860997E-01 -0.16448669877E-03  0.10190997856E+01  0.10187972485E+01 0.  0.
     999903    2    3    3    0    0  0.29311201333E-01 -0.11434170320E+00  0.55344338363E-01  0.13181270425E+00  0.19453061383E-01 0.  0.
         14    1    1    2    0    0  0.90800228282E-02  0.23109860997E-01  0.16448669877E-03  0.24830214371E-01  0.00000000000E+00 0. -1.
     999901    1    3    3    0    0 -0.38391224162E-01  0.91231842208E-01 -0.55508825062E-01  0.88728708138E+00  0.88000000000E+00 0. -1.
        -11    1    4    4    0    0  0.10944032855E-01 -0.74013295178E-01  0.40485941169E-01  0.85071218821E-01  0.51100000000E-03 0. -1.
         11    1    4    4    0    0  0.18367168478E-01 -0.40328408026E-01  0.14858397195E-01  0.46741485428E-01  0.51100000000E-03 0.  1.
</event>
<event>
 8    1  0.1128298E+005  0.1043930E+01  0.7957747E-01            NaN
         13   -1    0    0    0    0  0.00000000000E+00  0.00000000000E+00  0.74505805969E-08  0.10566000000E+00  0.10566000000E+00 0. -1.
     999900   -1    0    0    0    0 -0.00000000000E+00 -0.00000000000E+00 -0.74505805969E-08  0.93827000000E+00  0.93827000000E+00 0.  1.
     999902    2    1    2    0    0  0.12980644978E-01  0.16261096347E-01  0.13110237692E-01  0.10193373440E+01  0.10190406381E+01 0.  0.
     999903    2    3    3    0    0 -0.54658723669E-01  0.10697924810E+00 -0.45930094375E-01  0.13012947847E+00  0.19798282766E-01 0.  0.
         14    1    1    2    0    0 -0.12980644978E-01 -0.16261096347E-01 -0.13110237692E-01  0.24592656034E-01  0.00000000000E+00 0. -1.
     999901    1    3    3    0    0  0.67639368646E-01 -0.90718151754E-01  0.59040332067E-01  0.88920786550E+00  0.88000000000E+00 0.  1.
        -11    1    4    4    0    0 -0.53075136391E-01  0.88747922213E-01 -0.37846728051E-01  0.11011720912E+00  0.51100000000E-03 0.  1.
         11    1    4    4    0    0 -0.15835872780E-02  0.18231325888E-01 -0.80833663241E-02  0.20012269347E-01  0.51100000000E-03 0. -1.
</event>
<event>
 8    1  0.1128298E+005  0.1043930E+01  0.7957747E-01            NaN
         13   -1    0    0    0    0  0.00000000000E+00  0.00000000000E+00  0.74505805969E-08  0.10566000000E+00  0.10566000000E+00 0. -1.
     999900   -1    0    0    0    0 -0.00000000000E+00 -0.00000000000E+00 -0.74505805969E-08  0.93827000000E+00  0.93827000000E+00 0. -1.
     999902    2    1    2    0    0 -0.14914888147E-01 -0.11473222207E-01  0.13369267280E-01  0.10208469754E+01  0.10205859695E+01 0.  0.
     999903    2    3    3    0    0 -0.68271868534E-01  0.35856142799E-02  0.11295878280E+00  0.13349596961E+00  0.19687118327E-01 0.  0.
         14    1    1    2    0    0  0.14914888147E-01  0.11473222207E-01 -0.13369267280E-01  0.23083024582E-01  0.00000000000E+00 0.  1.
     999901    1    3    3    0    0  0.53356980387E-01 -0.15058836487E-01 -0.99589515516E-01  0.88735100581E+00  0.88000000000E+00 0. -1.
        -11    1    4    4    0    0 -0.55200358496E-01  0.45683274497E-02  0.74322006954E-01  0.92692885555E-01  0.51100000000E-03 0. -1.
         11    1    4    4    0    0 -0.13071510039E-01 -0.98271316972E-03  0.38636775841E-01  0.40803084053E-01  0.51100000000E-03 0.  1.
</event>
<event>
 8    1  0.1128298E+005  0.1043930E+01  0.7957747E-01            NaN
         13   -1    0    0    0    0  0.00000000000E+00  0.00000000000E+00  0.74505805969E-08  0.10566000000E+00  0.10566000000E+00 0. -1.
     999900   -1    0    0    0    0 -0.00000000000E+00 -0.00000000000E+00 -0.74505805969E-08  0.93827000000E+00  0.93827000000E+00 0. -1.
     999902    2    1    2    0    0 -0.17614523255E-01  0.65837832885E-02 -0.15303334457E-01  0.10196852134E+01  0.10193969417E+01 0.  0.
     999903    2    3    3    0    0  0.87961388484E-02  0.11752698325E+00  0.50667176484E-01  0.12987735492E+00  0.20273152153E-01 0.  0.
         14    1    1    2    0    0  0.17614523255E-01 -0.65837832885E-02  0.15303334457E-01  0.24244786602E-01  0.00000000000E+00 0. -1.
     999901    1    3    3    0    0 -0.26410662103E-01 -0.11094319996E+00 -0.65970510941E-01  0.88980785848E+00  0.88000000000E+00 0. -1.
        -11    1    4    4    0    0  0.25867068346E-02  0.84626457625E-02 -0.12047203065E-02  0.89453841486E-02  0.51100000000E-03 0. -1.
         11    1    4    4    0    0  0.62094320137E-02  0.10906433749E+00  0.51871896790E-01  0.12093197077E+00  0.51100000000E-03 0.  1.
</event>
<event>
 8    1  0.1128298E+005  0.1043930E+01  0.7957747E-01            NaN
         13   -1    0    0    0    0  0.00000000000E+00  0.00000000000E+00  0.74505805969E-08  0.10566000000E+00  0.10566000000E+00 0.  1.
     999900   -1    0    0    0    0 -0.00000000000E+00 -0.00000000000E+00 -0.74505805969E-08  0.93827000000E+00  0.93827000000E+00 0. -1.
     999902    2    1    2    0    0 -0.11858128957E-01  0.50718617454E-02  0.19931782812E-01  0.10201894236E+01  0.10199131556E+01 0.  0.
     999903    2    3    3    0    0  0.74204311432E-01  0.68277289071E-01 -0.76934257443E-01  0.12845813026E+00  0.20360334546E-01 0.  0.
         14    1    1    2    0    0  0.11858128957E-01 -0.50718617454E-02 -0.19931782812E-01  0.23740576446E-01  0.00000000000E+00 0. -1.
     999901    1    3    3    0    0 -0.86062440389E-01 -0.63205427326E-01  0.96866040255E-01  0.89173129330E+00  0.88000000000E+00 0.  1.
        -11    1    4    4    0    0  0.37031823491E-01  0.20958374934E-01 -0.28567523571E-01  0.51254014037E-01  0.51100000000E-03 0.  1.
         11    1    4    4    0    0  0.37172487941E-01  0.47318914137E-01 -0.48366733872E-01  0.77204116220E-01  0.51100000000E-03 0. -1.
</event>
<event>
 8    1  0.1128298E+005  0.1043930E+01  0.7957747E-01            NaN
         13   -1    0    0    0    0  0.00000000000E+00  0.00000000000E+00  0.74505805969E-08  0.10566000000E+00  0.10566000000E+00 0.  1.
     999900   -1    0    0    0    0 -0.00000000000E+00 -0.00000000000E+00 -0.74505805969E-08  0.93827000000E+00  0.93827000000E+00 0. -1.
     999902    2    1    2    0    0  0.91312686160E-02 -0.37231088599E-02 -0.26445807027E-02  0.10337204254E+01  0.10336700066E+01 0.  0.
     999903    2    3    3    0    0 -0.60497830538E-01 -0.12295451572E+00 -0.36775701114E-01  0.14230061791E+00  0.10918481086E-01 0.  0.
         14    1    1    2    0    0 -0.91312686160E-02  0.37231088599E-02  0.26445807027E-02  0.10209574585E-01  0.00000000000E+00 0. -1.
     999901    1    3    3    0    0  0.69629099154E-01  0.11923140686E+00  0.34131120411E-01  0.89141980750E+00  0.88000000000E+00 0.  1.
        -11    1    4    4    0    0 -0.28754511552E-01 -0.68979877245E-01 -0.17142634527E-01  0.76675787826E-01  0.51100000000E-03 0. -1.
         11    1    4    4    0    0 -0.31743318987E-01 -0.53974638476E-01 -0.19633066587E-01  0.65624830084E-01  0.51100000000E-03 0.  1.
</event>
<event>
 8    1  0.1128298E+005  0.1043930E+01  0.7957747E-01            NaN
         13   -1    0    0    0    0  0.00000000000E+00  0.00000000000E+00  0.74505805969E-08  0.10566000000E+00  0.10566000000E+00 0.  1.
     999900   -1    0    0    0    0 -0.00000000000E+00 -0.00000000000E+00 -0.74505805969E-08  0.93827000000E+00  0.93827000000E+00 0.  1.
     999902    2    1    2    0    0 -0.14733941625E-01 -0.16902975575E-02 -0.18638267899E-01  0.10201112853E+01  0.10198331742E+01 0.  0.
     999903    2    3    3    0    0 -0.82208297063E-01  0.24040215621E-01 -0.10026193062E+00  0.13338851558E+00  0.20097394941E-01 0.  0.
         14    1    1    2    0    0  0.14733941625E-01  0.16902975575E-02  0.18638267899E-01  0.23818714741E-01  0.00000000000E+00 0.  1.
     999901    1    3    3    0    0  0.67474355438E-01 -0.25730513179E-01  0.81623662724E-01  0.88672276968E+00  0.88000000000E+00 0. -1.
        -11    1    4    4    0    0 -0.82539970660E-01  0.25063026947E-01 -0.96464738888E-01  0.12940907637E+00  0.51100000000E-03 0. -1.
         11    1    4    4    0    0  0.33167359719E-03 -0.10228113262E-02 -0.37971917354E-02  0.39794392142E-02  0.51100000000E-03 0.  1.
</event>
<event>
 8    1  0.1128298E+005  0.1043930E+01  0.7957747E-01            NaN
         13   -1    0    0    0    0  0.00000000000E+00  0.00000000000E+00  0.74505805969E-08  0.10566000000E+00  0.10566000000E+00 0. -1.
     999900   -1    0    0    0    0 -0.00000000000E+00 -0.00000000000E+00 -0.74505805969E-08  0.93827000000E+00  0.93827000000E+00 0. -1.
     999902    2    1    2    0    0 -0.80319612585E-02  0.18261722036E-01 -0.12889521295E-01  0.10201783126E+01  0.10199017830E+01 0.  0.
     999903    2    3    3    0    0  0.95082984399E-01  0.81832128978E-01  0.31352332047E-01  0.13077894776E+00  0.19567656915E-01 0.  0.
         14    1    1    2    0    0  0.80319612585E-02 -0.18261722036E-01  0.12889521295E-01  0.23751687363E-01  0.00000000000E+00 0. -1.
     999901    1    3    3    0    0 -0.10311494566E+00 -0.63570406943E-01 -0.44241853342E-01  0.88939936488E+00  0.88000000000E+00 0. -1.
        -11    1    4    4    0    0  0.80149965970E-01  0.72834012799E-01  0.20463681024E-01  0.11021721203E+00  0.51100000000E-03 0. -1.
         11    1    4    4    0    0  0.14933018429E-01  0.89981161795E-02  0.10888651023E-01  0.20561735732E-01  0.51100000000E-03 0.  1.
</event>
<event>
 8    1  0.1251397E+005  0.1043930E+01  0.7957747E-01            NaN
         13   -1    0    0    0    0  0.00000000000E+00  0.00000000000E+00  0.74505805969E-08  0.10566000000E+00  0.10566000000E+00 0. -1.
     999900   -1    0    0    0    0 -0.00000000000E+00 -0.00000000000E+00 -0.74505805969E-08  0.93827000000E+00  0.93827000000E+00 0. -1.
     999902    2    1    2    0    0  0.51063712076E-02  0.18751934529E-01  0.13723863620E-01  0.10201380999E+01  0.10198606221E+01 0.  0.
     999903    2    3    3    0    0 -0.23787021373E-01 -0.59673724247E-01 -0.10859777926E+00  0.12775477625E+00  0.20025719554E-01 0.  0.
         14    1    1    2    0    0 -0.51063712076E-02 -0.18751934529E-01 -0.13723863620E-01  0.23791900053E-01  0.00000000000E+00 0.  1.
     999901    1    3    3    0    0  0.28893392581E-01  0.78425658776E-01  0.12232164288E+00  0.89238332369E+00  0.88000000000E+00 0.  1.
        -11    1    4    4    0    0 -0.19993371559E-01 -0.27165823425E-01 -0.45141019125E-01  0.56353257202E-01  0.51100000000E-03 0. -1.
         11    1    4    4    0    0 -0.37936498142E-02 -0.32507900822E-01 -0.63456760136E-01  0.71401519051E-01  0.51100000000E-03 0.  1.
</event>
<event>
 8    1  0.1128298E+005  0.1043930E+01  0.7957747E-01            NaN
         13   -1    0    0    0    0  0.00000000000E+00  0.00000000000E+00  0.74505805969E-08  0.10566000000E+00  0.10566000000E+00 0. -1.
     999900   -1    0    0    0    0 -0.00000000000E+00 -0.00000000000E+00 -0.74505805969E-08  0.93827000000E+00  0.93827000000E+00 0.  1.
     999902    2    1    2    0    0 -0.34257132326E-02 -0.88461901394E-02 -0.20957797358E-01  0.10209252209E+01  0.10206660016E+01 0.  0.
     999903    2    3    3    0    0  0.11165799150E+00  0.10898574716E-01 -0.66689071354E-01  0.13203520282E+00  0.19989410930E-01 0.  0.
         14    1    1    2    0    0  0.34257132326E-02  0.88461901394E-02  0.20957797358E-01  0.23004779096E-01  0.00000000000E+00 0. -1.
     999901    1    3    3    0    0 -0.11508370473E+00 -0.19744764856E-01  0.45731273996E-01  0.88889001809E+00  0.88000000000E+00 0.  1.
        -11    1    4    4    0    0  0.64806580588E-01  0.16138586991E-01 -0.37829180446E-01  0.76757116229E-01  0.51100000000E-03 0.  1.
         11    1    4    4    0    0  0.46851410907E-01 -0.52400122747E-02 -0.28859890908E-01  0.55278086588E-01  0.51100000000E-03 0. -1.
</event>
<event>
 8    1  0.1128298E+005  0.1043930E+01  0.7957747E-01            NaN
         13   -1    0    0    0    0  0.00000000000E+00  0.00000000000E+00  0.74505805969E-08  0.10566000000E+00  0.10566000000E+00 0.  1.
     999900   -1    0    0    0    0 -0.00000000000E+00 -0.00000000000E+00 -0.74505805969E-08  0.93827000000E+00  0.93827000000E+00 0. -1.
     999902    2    1    2    0    0 -0.21368284756E-02 -0.24055088483E-01  0.48132977158E-03  0.10197753939E+01  0.10194892883E+01 0.  0.
     999903    2    3    3    0    0  0.11047162628E+00  0.36570460301E-01  0.52122497341E-01  0.12903248405E+00  0.19780000765E-01 0.  0.
         14    1    1    2    0    0  0.21368284756E-02  0.24055088483E-01 -0.48132977158E-03  0.24154606108E-01  0.00000000000E+00 0. -1.
     999901    1    3    3    0    0 -0.11260845476E+00 -0.60625548785E-01 -0.51641167570E-01  0.89074290984E+00  0.88000000000E+00 0.  1.
        -11    1    4    4    0    0  0.70614945324E-01  0.33192315313E-01  0.35024711703E-01  0.85528894824E-01  0.51100000000E-03 0.  1.
         11    1    4    4    0    0  0.39856680959E-01  0.33781449880E-02  0.17097785638E-01  0.43503589224E-01  0.51100000000E-03 0. -1.
</event>
<event>
 8    1  0.1128298E+005  0.1043930E+01  0.7957747E-01            NaN
         13   -1    0    0    0    0  0.00000000000E+00  0.00000000000E+00  0.74505805969E-08  0.10566000000E+00  0.10566000000E+00 0.  1.
     999900   -1    0    0    0    0 -0.00000000000E+00 -0.00000000000E+00 -0.74505805969E-08  0.93827000000E+00  0.93827000000E+00 0.  1.
     999902    2    1    2    0    0  0.12945372158E-02  0.22390876161E-01 -0.18746121837E-04  0.10215017251E+01  0.10212554758E+01 0.  0.
     999903    2    3    3    0    0  0.50849050016E-02 -0.11324511870E+00 -0.59037757959E-01  0.12914824487E+00  0.18533729264E-01 0.  0.
         14    1    1    2    0    0 -0.12945372158E-02 -0.22390876161E-01  0.18746121837E-04  0.22428274862E-01  0.00000000000E+00 0.  1.
     999901    1    3    3    0    0 -0.37903677858E-02  0.13563599486E+00  0.59019011837E-01  0.89235348027E+00  0.88000000000E+00 0. -1.
        -11    1    4    4    0    0 -0.65935369100E-03 -0.89782813082E-01 -0.52932616404E-01  0.10422816929E+00  0.51100000000E-03 0.  1.
         11    1    4    4    0    0  0.57442586926E-02 -0.23462305616E-01 -0.61051415548E-02  0.24920075585E-01  0.51100000000E-03 0. -1.
</event>
<event>
 8    1  0.1128298E+005  0.1043930E+01  0.7957747E-01            NaN
         13   -1    0    0    0    0  0.00000000000E+00  0.00000000000E+00  0.74505805969E-08  0.10566000000E+00  0.10566000000E+00 0. -1.
     999900   -1    0    0    0    0 -0.00000000000E+00 -0.00000000000E+00 -0.74505805969E-08  0.93827000000E+00  0.93827000000E+00 0. -1.
     999902    2    1    2    0    0  0.43694750677E-02 -0.16145700314E-01 -0.15937203156E-01  0.10208265285E+01  0.10205650547E+01 0.  0.
     999903    2    3    3    0    0 -0.14040376637E-01 -0.34479708642E-01  0.12242902576E+00  0.12963616062E+00  0.20752959008E-01 0.  0.
         14    1    1    2    0    0 -0.43694750677E-02  0.16145700314E-01  0.15937203156E-01  0.23103471502E-01  0.00000000000E+00 0. -1.
     999901    1    3    3    0    0  0.18409851705E-01  0.18334008328E-01 -0.13836622891E+00  0.89119036788E+00  0.88000000000E+00 0. -1.
        -11    1    4    4    0    0 -0.10896585262E-01 -0.39141054480E-02  0.40797194056E-01  0.42411413036E-01  0.51100000000E-03 0. -1.
         11    1    4    4    0    0 -0.31437913753E-02 -0.30565603194E-01  0.81631831700E-01  0.87224747581E-01  0.51100000000E-03 0.  1.
</event>
<event>
 8    1  0.1128298E+005  0.1043930E+01  0.7957747E-01            NaN
         13   -1    0    0    0    0  0.00000000000E+00  0.00000000000E+00  0.74505805969E-08  0.10566000000E+00  0.10566000000E+00 0. -1.
     999900   -1    0    0    0    0 -0.00000000000E+00 -0.00000000000E+00 -0.74505805969E-08  0.93827000000E+00  0.93827000000E+00 0.  1.
     999902    2    1    2    0    0  0.14615383440E-01  0.35868505855E-02 -0.11845352552E-01  0.10247783080E+01  0.10245993330E+01 0.  0.
     999903    2    3    3    0    0 -0.66458523447E-01 -0.54641528815E-01  0.98718172666E-01  0.13226062431E+00  0.18578566129E-01 0.  0.
         14    1    1    2    0    0 -0.14615383440E-01 -0.35868505855E-02  0.11845352552E-01  0.19151692022E-01  0.00000000000E+00 0. -1.
     999901    1    3    3    0    0  0.81073906886E-01  0.58228379401E-01 -0.11056352522E+00  0.89251768366E+00  0.88000000000E+00 0. -1.
        -11    1    4    4    0    0 -0.41159897598E-01 -0.40506444883E-01  0.75896692675E-01  0.95370217192E-01  0.51100000000E-03 0. -1.
         11    1    4    4    0    0 -0.25298625849E-01 -0.14135083932E-01  0.22821479991E-01  0.36890407122E-01  0.51100000000E-03 0.  1.
</event>
<event>
 8    1  0.1128298E+005  0.1043930E+01  0.7957747E-01            NaN
         13   -1    0    0    0    0  0.00000000000E+00  0.00000000000E+00  0.74505805969E-08  0.10566000000E+00  0.10566000000E+00 0.  1.
     999900   -1    0    0    0    0 -0.00000000000E+00 -0.00000000000E+00 -0.74505805969E-08  0.93827000000E+00  0.93827000000E+00 0.  1.
     999902    2    1    2    0    0 -0.10147924386E-01 -0.19944236053E-01  0.70030197732E-02  0.10204822878E+01  0.10202128722E+01 0.  0.
     999903    2    3    3    0    0  0.37797064758E-01 -0.80376386963E-01  0.96211153191E-01  0.13261469750E+00  0.21002150120E-01 0.  0.
         14    1    1    2    0    0  0.10147924386E-01  0.19944236053E-01 -0.70030197732E-02  0.23447712192E-01  0.00000000000E+00 0. -1.
     999901    1    3    3    0    0 -0.47944989144E-01  0.60432150910E-01 -0.89208133417E-01  0.88786759031E+00  0.88000000000E+00 0.  1.
        -11    1    4    4    0    0  0.68024616470E-02 -0.27907736939E-01  0.42983982024E-01  0.51701055088E-01  0.51100000000E-03 0. -1.
         11    1    4    4    0    0  0.30994603111E-01 -0.52468650024E-01  0.53227171167E-01  0.80913642415E-01  0.51100000000E-03 0.  1.
</event>
<event>
 8    1  0.1128298E+005  0.1043930E+01  0.7957747E-01            NaN
         13   -1    0    0    0    0  0.00000000000E+00  0.00000000000E+00  0.74505805969E-08  0.10566000000E+00  0.10566000000E+00 0.  1.
     999900   -1    0    0    0    0 -0.00000000000E+00 -0.00000000000E+00 -0.74505805969E-08  0.93827000000E+00  0.93827000000E+00 0.  1.
     999902    2    1    2    0    0 -0.16227924378E-01 -0.12434850601E-01  0.12524932011E-01  0.10199540754E+01  0.10196722370E+01 0.  0.
     999903    2    3    3    0    0  0.11049973169E+00 -0.51027120020E-01  0.39331839068E-01  0.12963510314E+00  0.21078631879E-01 0.  0.
         14    1    1    2    0    0  0.16227924378E-01  0.12434850601E-01 -0.12524932011E-01  0.23975924612E-01  0.00000000000E+00 0. -1.
     999901    1    3    3    0    0 -0.12672765607E+00  0.38592269419E-01 -0.26806907057E-01  0.89031897224E+00  0.88000000000E+00 0.  1.
        -11    1    4    4    0    0  0.72240325175E-01 -0.43425733131E-01  0.30494024900E-01  0.89635961282E-01  0.51100000000E-03 0. -1.
         11    1    4    4    0    0  0.38259406514E-01 -0.76013868892E-02  0.88378141675E-02  0.39999141862E-01  0.51100000000E-03 0.  1.
</event>
<event>
 8    1  0.1128298E+005  0.1043930E+01  0.7957747E-01            NaN
         13   -1    0    0    0    0  0.00000000000E+00  0.00000000000E+00  0.74505805969E-08  0.10566000000E+00  0.10566000000E+00 0.  1.
     999900   -1    0    0    0    0 -0.00000000000E+00 -0.00000000000E+00 -0.74505805969E-08  0.93827000000E+00  0.93827000000E+00 0.  1.
     999902    2    1    2    0    0  0.74822913686E-02  0.21671614254E-01  0.12490543748E-02  0.10209690835E+01  0.10207108630E+01 0.  0.
     999903    2    3    3    0    0  0.43985172612E-01  0.11661426332E+00 -0.44711708873E-01  0.13391837544E+00  0.20035282697E-01 0.  0.
         14    1    1    2    0    0 -0.74822913686E-02 -0.21671614254E-01 -0.12490543748E-02  0.22960916474E-01  0.00000000000E+00 0.  1.
     999901    1    3    3    0    0 -0.36502881243E-01 -0.94942649062E-01  0.45960763248E-01  0.88705070808E+00  0.88000000000E+00 0.  1.
        -11    1    4    4    0    0  0.21867697338E-01  0.83120417444E-01 -0.27492767330E-01  0.90240308950E-01  0.51100000000E-03 0.  1.
         11    1    4    4    0    0  0.22117475274E-01  0.33493845872E-01 -0.17218941543E-01  0.43678066494E-01  0.51100000000E-03 0. -1.
</event>
<event>
 8    1  0.1128298E+005  0.1043930E+01  0.7957747E-01            NaN
         13   -1    0    0    0    0  0.00000000000E+00  0.00000000000E+00  0.74505805969E-08  0.10566000000E+00  0.10566000000E+00 0. -1.
     999900   -1    0    0    0    0 -0.00000000000E+00 -0.00000000000E+00 -0.74505805969E-08  0.93827000000E+00  0.93827000000E+00 0.  1.
     999902    2    1    2    0    0  0.38901431733E-02 -0.15193983517E-01  0.18314140072E-01  0.10198178023E+01  0.10195327125E+01 0.  0.
     999903    2    3    3    0    0  0.56045800509E-01  0.55959489097E-01  0.10324979609E+00  0.13133758596E+00  0.17788898746E-01 0.  0.
         14    1    1    2    0    0 -0.38901431733E-02  0.15193983517E-01 -0.18314140072E-01  0.24112197651E-01  0.00000000000E+00 0.  1.
     999901    1    3    3    0    0 -0.52155657336E-01 -0.71153472614E-01 -0.84935656014E-01  0.88848021639E+00  0.88000000000E+00 0.  1.
        -11    1    4    4    0    0  0.44135419117E-01  0.34865503502E-01  0.63930269004E-01  0.85152093169E-01  0.51100000000E-03 0.  1.
         11    1    4    4    0    0  0.11910381392E-01  0.21093985595E-01  0.39319527081E-01  0.46185492788E-01  0.51100000000E-03 0. -1.
</event>
<event>
 8    1  0.1128298E+005  0.1043930E+01  0.7957747E-01            NaN
         13   -1    0    0    0    0  0.00000000000E+00  0.00000000000E+00  0.74505805969E-08  0.10566000000E+00  0.10566000000E+00 0. -1.
     999900   -1    0    0    0    0 -0.00000000000E+00 -0.00000000000E+00 -0.74505805969E-08  0.93827000000E+00  0.93827000000E+00 0.  1.
     999902    2    1    2    0    0  0.12577104893E-01  0.20671223549E-01  0.56635263401E-02  0.10190792740E+01  0.10187762307E+01 0.  0.
     999903    2    3    3    0    0  0.41427003641E-01 -0.17001699419E-01 -0.11989514568E+00  0.12890145702E+00  0.15345528663E-01 0.  0.
         14    1    1    2    0    0 -0.12577104893E-01 -0.20671223549E-01 -0.56635263401E-02  0.24850725967E-01  0.00000000000E+00 0.  1.
     999901    1    3    3    0    0 -0.28849898749E-01  0.37672922969E-01  0.12555867202E+00  0.89017781701E+00  0.88000000000E+00 0. -1.
        -11    1    4    4    0    0  0.15594767156E-01 -0.13816253614E-01 -0.44502960855E-01  0.49141227828E-01  0.51100000000E-03 0.  1.
         11    1    4    4    0    0  0.25832236486E-01 -0.31854458056E-02 -0.75392184826E-01  0.79760229191E-01  0.51100000000E-03 0. -1.
</event>
<event>
 8    1  0.1128298E+005  0.1043930E+01  0.7957747E-01            NaN
         13   -1    0    0    0    0  0.00000000000E+00  0.00000000000E+00  0.74505805969E-08  0.10566000000E+00  0.10566000000E+00 0. -1.
     999900   -1    0    0    0    0 -0.00000000000E+00 -0.00000000000E+00 -0.74505805969E-08  0.93827000000E+00  0.93827000000E+00 0. -1.
     999902    2    1    2    0    0  0.31484520647E-02 -0.24999334012E-01  0.10097671098E-01  0.10167851586E+01  0.10164227548E+01 0.  0.
     999903    2    3    3    0    0  0.11309503478E+00 -0.59072910924E-01  0.49488772082E-02  0.12927416164E+00  0.20179736984E-01 0.  0.
         14    1    1    2    0    0 -0.31484520647E-02  0.24999334012E-01 -0.10097671098E-01  0.27144841370E-01  0.00000000000E+00 0.  1.
     999901    1    3    3    0    0 -0.10994658272E+00  0.34073576912E-01  0.51487938893E-02  0.88751099699E+00  0.88000000000E+00 0.  1.
        -11    1    4    4    0    0  0.37103081101E-01 -0.10378896774E-01  0.61009919662E-02  0.39010810674E-01  0.51100000000E-03 0.  1.
         11    1    4    4    0    0  0.75991953683E-01 -0.48694014150E-01 -0.11521147580E-02  0.90263350968E-01  0.51100000000E-03 0. -1.
</event>
<event>
 8    1  0.1128298E+005  0.1043930E+01  0.7957747E-01            NaN
         13   -1    0    0    0    0  0.00000000000E+00  0.00000000000E+00  0.74505805969E-08  0.10566000000E+00  0.10566000000E+00 0. -1.
     999900   -1    0    0    0    0 -0.00000000000E+00 -0.00000000000E+00 -0.74505805969E-08  0.93827000000E+00  0.93827000000E+00 0.  1.
     999902    2    1    2    0    0  0.23581292071E-01  0.79335376901E-03 -0.47879971356E-02  0.10198544592E+01  0.10195702459E+01 0.  0.
     999903    2    3    3    0    0 -0.29764983307E-01  0.12320860701E+00 -0.19212520413E-01  0.12966381327E+00  0.19423399764E-01 0.  0.
         14    1    1    2    0    0 -0.23581292071E-01 -0.79335376901E-03  0.47879971356E-02  0.24075540752E-01  0.00000000000E+00 0.  1.
     999901    1    3    3    0    0  0.53346275378E-01 -0.12241525324E+00  0.14424523278E-01  0.89019064598E+00  0.88000000000E+00 0.  1.
        -11    1    4    4    0    0 -0.31280348089E-01  0.97733033894E-01 -0.13450263073E-01  0.10349578150E+00  0.51100000000E-03 0.  1.
         11    1    4    4    0    0  0.15153647824E-02  0.25475573112E-01 -0.57622573398E-02  0.26168031765E-01  0.51100000000E-03 0. -1.
</event>
<event>
 8    1  0.1128298E+005  0.1043930E+01  0.7957747E-01            NaN
         13   -1    0    0    0    0  0.00000000000E+00  0.00000000000E+00  0.74505805969E-08  0.10566000000E+00  0.10566000000E+00 0. -1.
     999900   -1    0    0    0    0 -0.00000000000E+00 -0.00000000000E+00 -0.74505805969E-08  0.93827000000E+00  0.93827000000E+00 0.  1.
     999902    2    1    2    0    0  0.10377677966E-01  0.21686883709E-01  0.52409705300E-02  0.10193233973E+01  0.10190263507E+01 0.  0.
     999903    2    3    3    0    0  0.96425384512E-01  0.29522483583E-01 -0.81141958001E-01  0.13088228232E+00  0.19409344690E-01 0.  0.
         14    1    1    2    0    0 -0.10377677966E-01 -0.21686883709E-01 -0.52409705300E-02  0.24606602712E-01  0.00000000000E+00 0.  1.
     999901    1    3    3    0    0 -0.86047706547E-01 -0.78355998739E-02  0.86382928531E-01  0.88844111497E+00  0.88000000000E+00 0. -1.
        -11    1    4    4    0    0  0.67655012610E-01  0.23459730069E-01 -0.46226950985E-01  0.85233513271E-01  0.51100000000E-03 0. -1.
         11    1    4    4    0    0  0.28770371903E-01  0.60627535139E-02 -0.34915007016E-01  0.45648769047E-01  0.51100000000E-03 0.  1.
</event>
<event>
 8    1  0.1128298E+005  0.1043930E+01  0.7957747E-01            NaN
         13   -1    0    0    0    0  0.00000000000E+00  0.00000000000E+00  0.74505805969E-08  0.10566000000E+00  0.10566000000E+00 0. -1.
     999900   -1    0    0    0    0 -0.00000000000E+00 -0.00000000000E+00 -0.74505805969E-08  0.93827000000E+00  0.93827000000E+00 0.  1.
     999902    2    1    2    0    0  0.70939784061E-02 -0.11846856292E-01  0.21664027710E-01  0.10182394837E+01  0.10179153420E+01 0.  0.
     999903    2    3    3    0    0  0.66461208232E-01 -0.98404640642E-01  0.52749590300E-01  0.13145708069E+00  0.19946911694E-01 0.  0.
         14    1    1    2    0    0 -0.70939784061E-02  0.11846856292E-01 -0.21664027710E-01  0.25690516348E-01  0.00000000000E+00 0.  1.
     999901    1    3    3    0    0 -0.59367229825E-01  0.86557784350E-01 -0.31085562590E-01  0.88678240297E+00  0.88000000000E+00 0. -1.
        -11    1    4    4    0    0  0.37445689695E-01 -0.65764576054E-01  0.41691004849E-01  0.86403473001E-01  0.51100000000E-03 0. -1.
         11    1    4    4    0    0  0.29015518537E-01 -0.32640064587E-01  0.11058585451E-01  0.45053607685E-01  0.51100000000E-03 0.  1.
</event>
<event>
 8    1  0.1128298E+005  0.1043930E+01  0.7957747E-01            NaN
         13   -1    0    0    0    0  0.00000000000E+00  0.00000000000E+00  0.74505805969E-08  0.10566000000E+00  0.10566000000E+00 0.  1.
     999900   -1    0    0    0    0 -0.00000000000E+00 -0.00000000000E+00 -0.74505805969E-08  0.93827000000E+00  0.93827000000E+00 0. -1.
     999902    2    1    2    0    0  0.21867299398E-01  0.71682406608E-02  0.11304411726E-02  0.10208900270E+01  0.10206300049E+01 0.  0.
     999903    2    3    3    0    0  0.17638522176E-01  0.98744121217E-01  0.83849729263E-01  0.13226946398E+00  0.20072744320E-01 0.  0.
         14    1    1    2    0    0 -0.21867299398E-01 -0.71682406608E-02 -0.11304411726E-02  0.23039972969E-01  0.00000000000E+00 0.  1.
     999901    1    3    3    0    0  0.42287772225E-02 -0.91575880556E-01 -0.82719288090E-01  0.88862056305E+00  0.88000000000E+00 0.  1.
        -11    1    4    4    0    0  0.92043320851E-02  0.66419485268E-01  0.67224631378E-01  0.94950934368E-01  0.51100000000E-03 0. -1.
         11    1    4    4    0    0  0.84341900908E-02  0.32324635948E-01  0.16625097885E-01  0.37318529612E-01  0.51100000000E-03 0.  1.
</event>
<event>
 8    1  0.1128298E+005  0.1043930E+01  0.7957747E-01            NaN
         13   -1    0    0    0    0  0.00000000000E+00  0.00000000000E+00  0.74505805969E-08  0.10566000000E+00  0.10566000000E+00 0. -1.
     999900   -1    0    0    0    0 -0.00000000000E+00 -0.00000000000E+00 -0.74505805969E-08  0.93827000000E+00  0.93827000000E+00 0. -1.
     999902    2    1    2    0    0 -0.24286179383E-02  0.19918864104E-01  0.99359742275E-02  0.10215384186E+01  0.10212929833E+01 0.  0.
     999903    2    3    3    0    0 -0.20274388518E-01 -0.84042574800E-01  0.96393007610E-01  0.13103223060E+00  0.20090503490E-01 0.  0.
         14    1    1    2    0    0  0.24286179383E-02 -0.19918864104E-01 -0.99359742275E-02  0.22391581368E-01  0.00000000000E+00 0. -1.
     999901    1    3    3    0    0  0.17845770580E-01  0.10396143890E+00 -0.86457033382E-01  0.89050618803E+00  0.88000000000E+00 0. -1.
        -11    1    4    4    0    0 -0.43804086956E-02 -0.45704895581E-01  0.61863166716E-01  0.77041793707E-01  0.51100000000E-03 0.  1.
         11    1    4    4    0    0 -0.15893979823E-01 -0.38337679219E-01  0.34529840894E-01  0.53990436891E-01  0.51100000000E-03 0. -1.
</event>
<event>
 8    1  0.1128298E+005  0.1043930E+01  0.7957747E-01            NaN
         13   -1    0    0    0    0  0.00000000000E+00  0.00000000000E+00  0.74505805969E-08  0.10566000000E+00  0.10566000000E+00 0. -1.
     999900   -1    0    0    0    0 -0.00000000000E+00 -0.00000000000E+00 -0.74505805969E-08  0.93827000000E+00  0.93827000000E+00 0. -1.
     999902    2    1    2    0    0 -0.62639053201E-03  0.10010620667E-01 -0.21260640569E-01  0.10204221347E+01  0.10201513189E+01 0.  0.
     999903    2    3    3    0    0 -0.78780434373E-01  0.81481692382E-01 -0.66368675632E-01  0.13292514687E+00  0.20461440147E-01 0.  0.
         14    1    1    2    0    0  0.62639053201E-03 -0.10010620667E-01  0.21260640569E-01  0.23507865251E-01  0.00000000000E+00 0. -1.
     999901    1    3    3    0    0  0.78154043841E-01 -0.71471071715E-01  0.45108035063E-01  0.88749698788E+00  0.88000000000E+00 0.  1.
        -11    1    4    4    0    0 -0.59170073003E-01  0.47763957733E-01 -0.46682325219E-01  0.89230005079E-01  0.51100000000E-03 0. -1.
         11    1    4    4    0    0 -0.19610361370E-01  0.33717734649E-01 -0.19686350413E-01  0.43695141795E-01  0.51100000000E-03 0.  1.
</event>
<event>
 8    1  0.1128298E+005  0.1043930E+01  0.7957747E-01            NaN
         13   -1    0    0    0    0  0.00000000000E+00  0.00000000000E+00  0.74505805969E-08  0.10566000000E+00  0.10566000000E+00 0. -1.
     999900   -1    0    0    0    0 -0.00000000000E+00 -0.00000000000E+00 -0.74505805969E-08  0.93827000000E+00  0.93827000000E+00 0.  1.
     999902    2    1    2    0    0  0.19083167850E-03  0.17277892828E-01  0.16042004941E-01  0.10203523004E+01  0.10200798542E+01 0.  0.
     999903    2    3    3    0    0  0.39336156350E-01  0.19322110089E-01 -0.11969783908E+00  0.12908250927E+00  0.20348080632E-01 0.  0.
         14    1    1    2    0    0 -0.19083167850E-03 -0.17277892828E-01 -0.16042004941E-01  0.23577699630E-01  0.00000000000E+00 0.  1.
     999901    1    3    3    0    0 -0.39145324672E-01 -0.20442172614E-02  0.13573984402E+00  0.89126979110E+00  0.88000000000E+00 0. -1.
        -11    1    4    4    0    0  0.19208104900E-01  0.20565978714E-01 -0.69438493769E-01  0.74925805382E-01  0.51100000000E-03 0. -1.
         11    1    4    4    0    0  0.20128051450E-01 -0.12438686246E-02 -0.50259345310E-01  0.54156703890E-01  0.51100000000E-03 0.  1.
</event>
<event>
 8    1  0.1128298E+005  0.1043930E+01  0.7957747E-01            NaN
         13   -1    0    0    0    0  0.00000000000E+00  0.00000000000E+00  0.74505805969E-08  0.10566000000E+00  0.10566000000E+00 0. -1.
     999900   -1    0    0    0    0 -0.00000000000E+00 -0.00000000000E+00 -0.74505805969E-08  0.93827000000E+00  0.93827000000E+00 0. -1.
     999902    2    1    2    0    0 -0.23372177221E-01  0.16976267060E-01  0.15494753439E-01  0.10111498277E+01  0.10106183426E+01 0.  0.
     999903    2    3    3    0    0 -0.83695737475E-02  0.36698432876E-01 -0.11348539685E+00  0.12140271695E+00  0.21044230669E-01 0.  0.
         14    1    1    2    0    0  0.23372177221E-01 -0.16976267060E-01 -0.15494753439E-01  0.32780172292E-01  0.00000000000E+00 0.  1.
     999901    1    3    3    0    0 -0.15002603474E-01 -0.19722165816E-01  0.12898015029E+00  0.88974711076E+00  0.88000000000E+00 0.  1.
        -11    1    4    4    0    0  0.20792963008E-02  0.26384064437E-01 -0.54123536759E-01  0.60249984910E-01  0.51100000000E-03 0.  1.
         11    1    4    4    0    0 -0.10448870048E-01  0.10314368439E-01 -0.59361860090E-01  0.61152732040E-01  0.51100000000E-03 0. -1.
</event>
<event>
 8    1  0.1128298E+005  0.1043930E+01  0.7957747E-01            NaN
         13   -1    0    0    0    0  0.00000000000E+00  0.00000000000E+00  0.74505805969E-08  0.10566000000E+00  0.10566000000E+00 0. -1.
     999900   -1    0    0    0    0 -0.00000000000E+00 -0.00000000000E+00 -0.74505805969E-08  0.93827000000E+00  0.93827000000E+00 0.  1.
     999902    2    1    2    0    0 -0.21452391772E-01  0.42942557414E-02  0.58880741211E-02  0.10212735404E+01  0.10210221982E+01 0.  0.
     999903    2    3    3    0    0  0.62544811726E-01  0.10911395936E+00 -0.28302474965E-01  0.13042467885E+00  0.19795382346E-01 0.  0.
         14    1    1    2    0    0  0.21452391772E-01 -0.42942557414E-02 -0.58880741211E-02  0.22656459608E-01  0.00000000000E+00 0.  1.
     999901    1    3    3    0    0 -0.83997203499E-01 -0.10481970362E+00  0.34190549086E-01  0.89084886154E+00  0.88000000000E+00 0.  1.
        -11    1    4    4    0    0  0.10559040777E-01  0.35947107484E-01 -0.60920899178E-02  0.37961329786E-01  0.51100000000E-03 0. -1.
         11    1    4    4    0    0  0.51985770949E-01  0.73166851879E-01 -0.22210385047E-01  0.92463349064E-01  0.51100000000E-03 0.  1.
</event>
<event>
 8    1  0.1128298E+005  0.1043930E+01  0.7957747E-01            NaN
         13   -1    0    0    0    0  0.00000000000E+00  0.00000000000E+00  0.74505805969E-08  0.10566000000E+00  0.10566000000E+00 0. -1.
     999900   -1    0    0    0    0 -0.00000000000E+00 -0.00000000000E+00 -0.74505805969E-08  0.93827000000E+00  0.93827000000E+00 0. -1.
     999902    2    1    2    0    0 -0.67179537598E-02 -0.16996660755E-01  0.13875051577E-01  0.10209836618E+01  0.10207257728E+01 0.  0.
     999903    2    3    3    0    0  0.42186374955E-01  0.10783568905E+00 -0.51957541435E-01  0.12839827138E+00  0.19450036437E-01 0.  0.
         14    1    1    2    0    0  0.67179537598E-02  0.16996660755E-01 -0.13875051577E-01  0.22946338179E-01  0.00000000000E+00 0.  1.
     999901    1    3    3    0    0 -0.48904328714E-01 -0.12483234980E+00  0.65832593012E-01  0.89258539044E+00  0.88000000000E+00 0.  1.
        -11    1    4    4    0    0 -0.19686505821E-02  0.48364465576E-02 -0.12469762684E-02  0.53928537188E-02  0.51100000000E-03 0.  1.
         11    1    4    4    0    0  0.44155025537E-01  0.10299924249E+00 -0.50710565167E-01  0.12300541766E+00  0.51100000000E-03 0. -1.
</event>
<event>
 8    1  0.1128298E+005  0.1043930E+01  0.7957747E-01            NaN
         13   -1    0    0    0    0  0.00000000000E+00  0.00000000000E+00  0.74505805969E-08  0.10566000000E+00  0.10566000000E+00 0. -1.
     999900   -1    0    0    0    0 -0.00000000000E+00 -0.00000000000E+00 -0.74505805969E-08  0.93827000000E+00  0.93827000000E+00 0.  1.
     999902    2    1    2    0    0  0.66498981122E-02  0.16655178902E-01  0.15835166013E-01  0.10200057735E+01  0.10197251637E+01 0.  0.
     999903    2    3    3    0    0  0.76314905025E-01  0.11808960055E-01  0.10607032202E+00  0.13263939914E+00  0.19464858698E-01 0.  0.
         14    1    1    2    0    0 -0.66498981122E-02 -0.16655178902E-01 -0.15835166013E-01  0.23924226463E-01  0.00000000000E+00 0.  1.
     999901    1    3    3    0    0 -0.69665006913E-01  0.48462188476E-02 -0.90235156011E-01  0.88736637439E+00  0.88000000000E+00 0.  1.
        -11    1    4    4    0    0  0.60072157042E-01  0.73205294679E-02  0.94406256290E-01  0.11213855961E+00  0.51100000000E-03 0. -1.
         11    1    4    4    0    0  0.16242747983E-01  0.44884305867E-02  0.11664065735E-01  0.20500839535E-01  0.51100000000E-03 0.  1.
</event>
<event>
 8    1  0.1128298E+005  0.1043930E+01  0.7957747E-01            NaN
         13   -1    0    0    0    0  0.00000000000E+00  0.00000000000E+00  0.74505805969E-08  0.10566000000E+00  0.10566000000E+00 0. -1.
     999900   -1    0    0    0    0 -0.00000000000E+00 -0.00000000000E+00 -0.74505805969E-08  0.93827000000E+00  0.93827000000E+00 0.  1.
     999902    2    1    2    0    0  0.22363649315E-01 -0.43895301411E-03 -0.82016754096E-02  0.10201057903E+01  0.10198275493E+01 0.  0.
     999903    2    3    3    0    0 -0.10575072232E+00  0.43249723993E-01  0.52965551280E-01  0.12765779606E+00  0.20914334215E-01 0.  0.
         14    1    1    2    0    0 -0.22363649315E-01  0.43895301411E-03  0.82016754096E-02  0.23824209744E-01  0.00000000000E+00 0.  1.
     999901    1    3    3    0    0  0.12811437164E+00 -0.43688677007E-01 -0.61167226689E-01  0.89244799419E+00  0.88000000000E+00 0.  1.
        -11    1    4    4    0    0 -0.94791118518E-01  0.31061219743E-01  0.45357542994E-01  0.10957975794E+00  0.51100000000E-03 0. -1.
         11    1    4    4    0    0 -0.10959603806E-01  0.12188504250E-01  0.76080082851E-02  0.18078038126E-01  0.51100000000E-03 0.  1.
</event>
<event>
 8    1  0.1128298E+005  0.1043930E+01  0.7957747E-01            NaN
         13   -1    0    0    0    0  0.00000000000E+00  0.00000000000E+00  0.74505805969E-08  0.10566000000E+00  0.10566000000E+00 0. -1.
     999900   -1    0    0    0    0 -0.00000000000E+00 -0.00000000000E+00 -0.74505805969E-08  0.93827000000E+00  0.93827000000E+00 0. -1.
     999902    2    1    2    0    0 -0.14552852907E-01  0.91717225946E-03  0.15735108571E-01  0.10224772525E+01  0.10222521761E+01 0.  0.
     999903    2    3    3    0    0 -0.34725269790E-02 -0.69210157647E-01  0.11328071441E+00  0.13424543523E+00  0.19677709682E-01 0.  0.
         14    1    1    2    0    0  0.14552852907E-01 -0.91717225946E-03 -0.15735108571E-01  0.21452747480E-01  0.00000000000E+00 0. -1.
     999901    1    3    3    0    0 -0.11080325928E-01  0.70127329907E-01 -0.97545605839E-01  0.88823181729E+00  0.88000000000E+00 0. -1.
        -11    1    4    4    0    0  0.68308683647E-02 -0.11304289348E-01  0.20445504070E-01  0.24345995112E-01  0.51100000000E-03 0. -1.
         11    1    4    4    0    0 -0.10303395344E-01 -0.57905868299E-01  0.92835210340E-01  0.10989944012E+00  0.51100000000E-03 0.  1.
</event>
<event>
 8    1  0.1128298E+005  0.1043930E+01  0.7957747E-01            NaN
         13   -1    0    0    0    0  0.00000000000E+00  0.00000000000E+00  0.74505805969E-08  0.10566000000E+00  0.10566000000E+00 0. -1.
     999900   -1    0    0    0    0 -0.00000000000E+00 -0.00000000000E+00 -0.74505805969E-08  0.93827000000E+00  0.93827000000E+00 0. -1.
     999902    2    1    2    0    0 -0.28176875269E-02  0.16300199181E-01  0.15964220929E-01  0.10209410416E+01  0.10206821828E+01 0.  0.
     999903    2    3    3    0    0  0.43535871754E-01 -0.11933731870E+00 -0.10218159684E-01  0.12895914398E+00  0.19730237275E-01 0.  0.
         14    1    1    2    0    0  0.28176875269E-02 -0.16300199181E-01 -0.15964220929E-01  0.22988958354E-01  0.00000000000E+00 0.  1.
     999901    1    3    3    0    0 -0.46353559281E-01  0.13563751788E+00  0.26182380613E-01  0.89198189767E+00  0.88000000000E+00 0.  1.
        -11    1    4    4    0    0  0.27871100163E-01 -0.91963473161E-01 -0.14297435455E-01  0.97153262435E-01  0.51100000000E-03 0. -1.
         11    1    4    4    0    0  0.15664771592E-01 -0.27373845543E-01  0.40792757709E-02  0.31805881542E-01  0.51100000000E-03 0.  1.
</event>
<event>
 8    1  0.1128298E+005  0.1043930E+01  0.7957747E-01            NaN
         13   -1    0    0    0    0  0.00000000000E+00  0.00000000000E+00  0.74505805969E-08  0.10566000000E+00  0.10566000000E+00 0.  1.
     999900   -1    0    0    0    0 -0.00000000000E+00 -0.00000000000E+00 -0.74505805969E-08  0.93827000000E+00  0.93827000000E+00 0. -1.
     999902    2    1    2    0    0 -0.10973937728E-01 -0.13525454916E-01 -0.15783319740E-01  0.10204251405E+01  0.10201543946E+01 0.  0.
     999903    2    3    3    0    0  0.80138616669E-01  0.51403122486E-01 -0.86989637458E-01  0.13048831269E+00  0.19887781217E-01 0.  0.
         14    1    1    2    0    0  0.10973937728E-01  0.13525454916E-01  0.15783319740E-01  0.23504859540E-01  0.00000000000E+00 0.  1.
     999901    1    3    3    0    0 -0.91112554397E-01 -0.64928577403E-01  0.71206317718E-01  0.88993682777E+00  0.88000000000E+00 0.  1.
        -11    1    4    4    0    0  0.38510329413E-01  0.14522996952E-01 -0.43490538946E-01  0.59880305700E-01  0.51100000000E-03 0.  1.
         11    1    4    4    0    0  0.41628287256E-01  0.36880125534E-01 -0.43499098512E-01  0.70608006994E-01  0.51100000000E-03 0. -1.
</event>
<event>
 8    1  0.1128298E+005  0.1043930E+01  0.7957747E-01            NaN
         13   -1    0    0    0    0  0.00000000000E+00  0.00000000000E+00  0.74505805969E-08  0.10566000000E+00  0.10566000000E+00 0.  1.
     999900   -1    0    0    0    0 -0.00000000000E+00 -0.00000000000E+00 -0.74505805969E-08  0.93827000000E+00  0.93827000000E+00 0.  1.
     999902    2    1    2    0    0 -0.20891914324E-01 -0.83005731259E-02 -0.21440177043E-02  0.10213475198E+01  0.10210978346E+01 0.  0.
     999903    2    3    3    0    0  0.46069147349E-01 -0.44453540135E-01 -0.11265522480E+00  0.13117700376E+00  0.20438274720E-01 0.  0.
         14    1    1    2    0    0  0.20891914324E-01  0.83005731259E-02  0.21440177043E-02  0.22582480161E-01  0.00000000000E+00 0. -1.
     999901    1    3    3    0    0 -0.66961061673E-01  0.36152967010E-01  0.11051120709E+00  0.89017051608E+00  0.88000000000E+00 0. -1.
        -11    1    4    4    0    0  0.43781426074E-01 -0.31324460922E-01 -0.91826744353E-01  0.10644457347E+00  0.51100000000E-03 0.  1.
         11    1    4    4    0    0  0.22877212757E-02 -0.13129079213E-01 -0.20828480442E-01  0.24732430292E-01  0.51100000000E-03 0. -1.
</event>
<event>
 8    1  0.1128298E+005  0.1043930E+01  0.7957747E-01            NaN
         13   -1    0    0    0    0  0.00000000000E+00  0.00000000000E+00  0.74505805969E-08  0.10566000000E+00  0.10566000000E+00 0.  1.
     999900   -1    0    0    0    0 -0.00000000000E+00 -0.00000000000E+00 -0.74505805969E-08  0.93827000000E+00  0.93827000000E+00 0.  1.
     999902    2    1    2    0    0  0.20717047645E-01  0.34779910869E-02  0.16505341921E-01  0.10172144840E+01  0.10168636032E+01 0.  0.
     999903    2    3    3    0    0  0.42772182690E-01  0.35114815152E-01 -0.11385868031E+00  0.12677521264E+00  0.67561529530E-02 0.  0.
         14    1    1    2    0    0 -0.20717047645E-01 -0.34779910869E-02 -0.16505341921E-01  0.26715516036E-01  0.00000000000E+00 0.  1.
     999901    1    3    3    0    0 -0.22055135045E-01 -0.31636824065E-01  0.13036402223E+00  0.89043927132E+00  0.88000000000E+00 0. -1.
        -11    1    4    4    0    0  0.23483914991E-01  0.14964551057E-01 -0.57255153656E-01  0.63669818539E-01  0.51100000000E-03 0.  1.
         11    1    4    4    0    0  0.19288267698E-01  0.20150264095E-01 -0.56603526658E-01  0.63105394104E-01  0.51100000000E-03 0. -1.
</event>
<event>
 8    1  0.1128298E+005  0.1043930E+01  0.7957747E-01            NaN
         13   -1    0    0    0    0  0.00000000000E+00  0.00000000000E+00  0.74505805969E-08  0.10566000000E+00  0.10566000000E+00 0.  1.
     999900   -1    0    0    0    0 -0.00000000000E+00 -0.00000000000E+00 -0.74505805969E-08  0.93827000000E+00  0.93827000000E+00 0.  1.
     999902    2    1    2    0    0 -0.22258917673E-01  0.96173820686E-02  0.57968510748E-02  0.10189989564E+01  0.10186939266E+01 0.  0.
     999903    2    3    3    0    0 -0.12083909873E+00  0.50007425513E-01  0.85205313380E-02  0.13256970024E+00  0.19982381703E-01 0.  0.
         14    1    1    2    0    0  0.22258917673E-01 -0.96173820686E-02 -0.57968510748E-02  0.24931043624E-01  0.00000000000E+00 0. -1.
     999901    1    3    3    0    0  0.98580181055E-01 -0.40390043444E-01 -0.27236802631E-02  0.88642925614E+00  0.88000000000E+00 0. -1.
        -11    1    4    4    0    0 -0.51144101634E-01  0.24289246808E-01 -0.57799603213E-02  0.56915338045E-01  0.51100000000E-03 0. -1.
         11    1    4    4    0    0 -0.69694997094E-01  0.25718178705E-01  0.14300491659E-01  0.75654362191E-01  0.51100000000E-03 0.  1.
</event>
<event>
 7    1  0.1128298E+005  0.1043930E+01  0.7957747E-01            NaN
         13   -1    0    0    0    0  0.00000000000E+00  0.00000000000E+00  0.74505805969E-08  0.10566000000E+00  0.10566000000E+00 0.  1.
     999900   -1    0    0    0    0 -0.00000000000E+00 -0.00000000000E+00 -0.74505805969E-08  0.93827000000E+00  0.93827000000E+00 0.  1.
     999903    2    1    2    0    0  0.57060879334E-01 -0.58883864780E-01 -0.29946183225E-01  0.89287908882E-01  0.18769744296E-01 0.  0.
         14    1    1    2    0    0 -0.21088745737E-01 -0.63078849732E-02 -0.62890731302E-01  0.66631589305E-01  0.00000000000E+00 0. -1.
     999901    1    1    2    0    0 -0.35972133597E-01  0.65191749753E-01  0.92836914527E-01  0.88801050181E+00  0.88000000000E+00 0.  1.
        -11    1    3    3    0    0  0.22647009638E-01 -0.22945175151E-01 -0.21656346159E-01  0.38841042187E-01  0.51100000000E-03 0. -1.
         11    1    3    3    0    0  0.34413869696E-01 -0.35938689629E-01 -0.82898370667E-02  0.50446866695E-01  0.51100000000E-03 0.  1.
</event>
<event>
 8    1  0.1128298E+005  0.1043930E+01  0.7957747E-01            NaN
         13   -1    0    0    0    0  0.00000000000E+00  0.00000000000E+00  0.74505805969E-08  0.10566000000E+00  0.10566000000E+00 0.  1.
     999900   -1    0    0    0    0 -0.00000000000E+00 -0.00000000000E+00 -0.74505805969E-08  0.93827000000E+00  0.93827000000E+00 0.  1.
     999902    2    1    2    0    0 -0.78278734861E-02  0.23305085933E-02 -0.22070981211E-01  0.10203962989E+01  0.10201248805E+01 0.  0.
     999903    2    3    3    0    0  0.57178602481E-01  0.91052972874E-01 -0.73908875083E-01  0.13203562623E+00  0.20269393862E-01 0.  0.
         14    1    1    2    0    0  0.78278734861E-02 -0.23305085933E-02  0.22070981211E-01  0.23533701053E-01  0.00000000000E+00 0.  1.
     999901    1    3    3    0    0 -0.65006475967E-01 -0.88722464281E-01  0.51837893872E-01  0.88836067272E+00  0.88000000000E+00 0. -1.
        -11    1    4    4    0    0  0.18059381978E-01  0.29325910374E-01 -0.12709868788E-01  0.36714468297E-01  0.51100000000E-03 0.  1.
         11    1    4    4    0    0  0.39119220503E-01  0.61727062500E-01 -0.61199006295E-01  0.95321157935E-01  0.51100000000E-03 0. -1.
</event>
<event>
 8    1  0.1128298E+005  0.1043930E+01  0.7957747E-01            NaN
         13   -1    0    0    0    0  0.00000000000E+00  0.00000000000E+00  0.74505805969E-08  0.10566000000E+00  0.10566000000E+00 0. -1.
     999900   -1    0    0    0    0 -0.00000000000E+00 -0.00000000000E+00 -0.74505805969E-08  0.93827000000E+00  0.93827000000E+00 0.  1.
     999902    2    1    2    0    0 -0.19994894198E-01 -0.12442612717E-01  0.45649285123E-03  0.10203753234E+01  0.10201034152E+01 0.  0.
     999903    2    3    3    0    0  0.47603576247E-01 -0.25355163728E-02 -0.11889690295E+00  0.12969415884E+00  0.20287237152E-01 0.  0.
         14    1    1    2    0    0  0.19994894198E-01  0.12442612717E-01 -0.45649285123E-03  0.23554676625E-01  0.00000000000E+00 0. -1.
     999901    1    3    3    0    0 -0.67598470445E-01 -0.99070963437E-02  0.11935339580E+00  0.89068116453E+00  0.88000000000E+00 0. -1.
        -11    1    4    4    0    0  0.30769208537E-01  0.78494444348E-02 -0.66766466146E-01  0.73934972067E-01  0.51100000000E-03 0. -1.
         11    1    4    4    0    0  0.16834367710E-01 -0.10384960808E-01 -0.52130436806E-01  0.55759186775E-01  0.51100000000E-03 0.  1.
</event>
<event>
 7    1  0.1128298E+005  0.1043930E+01  0.7957747E-01            NaN
         13   -1    0    0    0    0  0.00000000000E+00  0.00000000000E+00  0.74505805969E-08  0.10566000000E+00  0.10566000000E+00 0.  1.
     999900   -1    0    0    0    0 -0.00000000000E+00 -0.00000000000E+00 -0.74505805969E-08  0.93827000000E+00  0.93827000000E+00 0. -1.
     999903    2    1    2    0    0  0.14174020992E-01  0.56279797375E-01 -0.80195917671E-01  0.10108297839E+00  0.20446634100E-01 0.  0.
         14    1    1    2    0    0  0.43423626328E-01 -0.32542578379E-01  0.22549845591E-01  0.58763307150E-01  0.00000000000E+00 0.  1.
     999901    1    1    2    0    0 -0.57597647319E-01 -0.23737218996E-01  0.57646072080E-01  0.88408371446E+00  0.88000000000E+00 0.  1.
        -11    1    3    3    0    0 -0.39069618398E-04  0.22017881973E-01 -0.44249585581E-01  0.49427478169E-01  0.51100000000E-03 0.  1.
         11    1    3    3    0    0  0.14213090610E-01  0.34261915402E-01 -0.35946332090E-01  0.51655500224E-01  0.51100000000E-03 0. -1.
</event>
<event>
 8    1  0.1128298E+005  0.1043930E+01  0.7957747E-01            NaN
         13   -1    0    0    0    0  0.00000000000E+00  0.00000000000E+00  0.74505805969E-08  0.10566000000E+00  0.10566000000E+00 0. -1.
     999900   -1    0    0    0    0 -0.00000000000E+00 -0.00000000000E+00 -0.74505805969E-08  0.93827000000E+00  0.93827000000E+00 0. -1.
     999902    2    1    2    0    0  0.12016442807E-01 -0.27531358796E-02 -0.20712166980E-01  0.10198267115E+01  0.10195418348E+01 0.  0.
     999903    2    3    3    0    0  0.68903969255E-01  0.33278072429E-02 -0.11220946720E+00  0.13323496528E+00  0.20043955837E-01 0.  0.
         14    1    1    2    0    0 -0.12016442807E-01  0.27531358796E-02  0.20712166980E-01  0.24103288488E-01  0.00000000000E+00 0. -1.
     999901    1    3    3    0    0 -0.56887526448E-01 -0.60809431225E-02  0.91497300215E-01  0.88659174623E+00  0.88000000000E+00 0.  1.
        -11    1    4    4    0    0  0.36698788021E-01 -0.79481614607E-02 -0.54362070958E-01  0.66071704932E-01  0.51100000000E-03 0. -1.
         11    1    4    4    0    0  0.32205181234E-01  0.11275968704E-01 -0.57847396238E-01  0.67163260351E-01  0.51100000000E-03 0.  1.
</event>
<event>
 8    1  0.1128298E+005  0.1043930E+01  0.7957747E-01            NaN
         13   -1    0    0    0    0  0.00000000000E+00  0.00000000000E+00  0.74505805969E-08  0.10566000000E+00  0.10566000000E+00 0. -1.
     999900   -1    0    0    0    0 -0.00000000000E+00 -0.00000000000E+00 -0.74505805969E-08  0.93827000000E+00  0.93827000000E+00 0.  1.
     999902    2    1    2    0    0  0.41515405341E-03 -0.21327129802E-01 -0.11371021029E-01  0.10197573101E+01  0.10194707708E+01 0.  0.
     999903    2    3    3    0    0  0.17792019974E-01  0.11374839819E+00 -0.53518346057E-01  0.12828451143E+00  0.18369769812E-01 0.  0.
         14    1    1    2    0    0 -0.41515405341E-03  0.21327129802E-01  0.11371021029E-01  0.24172689914E-01  0.00000000000E+00 0. -1.
     999901    1    3    3    0    0 -0.17376865920E-01 -0.13507552799E+00  0.42147325028E-01  0.89147279865E+00  0.88000000000E+00 0. -1.
        -11    1    4    4    0    0  0.39546054720E-02  0.48114452771E-01 -0.31659607398E-01  0.57734143550E-01  0.51100000000E-03 0. -1.
         11    1    4    4    0    0  0.13837414502E-01  0.65633945420E-01 -0.21858738659E-01  0.70550367882E-01  0.51100000000E-03 0.  1.
</event>
<event>
 8    1  0.1128298E+005  0.1043930E+01  0.7957747E-01            NaN
         13   -1    0    0    0    0  0.00000000000E+00  0.00000000000E+00  0.74505805969E-08  0.10566000000E+00  0.10566000000E+00 0. -1.
     999900   -1    0    0    0    0 -0.00000000000E+00 -0.00000000000E+00 -0.74505805969E-08  0.93827000000E+00  0.93827000000E+00 0. -1.
     999902    2    1    2    0    0 -0.20288980905E-01 -0.10037199473E-01  0.79219707385E-02  0.10199478037E+01  0.10196658161E+01 0.  0.
     999903    2    3    3    0    0  0.59689388223E-01  0.52717281038E-01 -0.98081263491E-01  0.12777553892E+00  0.19097625843E-01 0.  0.
         14    1    1    2    0    0  0.20288980905E-01  0.10037199473E-01 -0.79219707385E-02  0.23982196309E-01  0.00000000000E+00 0. -1.
     999901    1    3    3    0    0 -0.79978369128E-01 -0.62754480512E-01  0.10600323423E+00  0.89217226477E+00  0.88000000000E+00 0.  1.
        -11    1    4    4    0    0  0.28537158730E-01  0.13998913809E-01 -0.44576424628E-01  0.54750870037E-01  0.51100000000E-03 0. -1.
         11    1    4    4    0    0  0.31152229494E-01  0.38718367229E-01 -0.53504838863E-01  0.73024668887E-01  0.51100000000E-03 0.  1.
</event>
<event>
 8    1  0.1128298E+005  0.1043930E+01  0.7957747E-01            NaN
         13   -1    0    0    0    0  0.00000000000E+00  0.00000000000E+00  0.74505805969E-08  0.10566000000E+00  0.10566000000E+00 0.  1.
     999900   -1    0    0    0    0 -0.00000000000E+00 -0.00000000000E+00 -0.74505805969E-08  0.93827000000E+00  0.93827000000E+00 0. -1.
     999902    2    1    2    0    0 -0.53544641734E-02  0.16793066132E-01  0.15415185098E-01  0.10205140805E+01  0.10202454034E+01 0.  0.
     999903    2    3    3    0    0 -0.33806936312E-01  0.11274628780E+00 -0.56448190306E-01  0.13193042730E+00  0.19094635503E-01 0.  0.
         14    1    1    2    0    0  0.53544641734E-02 -0.16793066132E-01 -0.15415185098E-01  0.23415919548E-01  0.00000000000E+00 0. -1.
     999901    1    3    3    0    0  0.28452472139E-01 -0.95953221664E-01  0.71863375404E-01  0.88858365315E+00  0.88000000000E+00 0.  1.
        -11    1    4    4    0    0 -0.21842025103E-01  0.65928066633E-01 -0.23018501233E-01  0.73168958928E-01  0.51100000000E-03 0.  1.
         11    1    4    4    0    0 -0.11964911209E-01  0.46818221162E-01 -0.33429689073E-01  0.58761468375E-01  0.51100000000E-03 0. -1.
</event>
<event>
 8    1  0.1128298E+005  0.1043930E+01  0.7957747E-01            NaN
         13   -1    0    0    0    0  0.00000000000E+00  0.00000000000E+00  0.74505805969E-08  0.10566000000E+00  0.10566000000E+00 0. -1.
     999900   -1    0    0    0    0 -0.00000000000E+00 -0.00000000000E+00 -0.74505805969E-08  0.93827000000E+00  0.93827000000E+00 0.  1.
     999902    2    1    2    0    0  0.29804700927E-02  0.21262850477E-01  0.92010691910E-02  0.10205708115E+01  0.10203034498E+01 0.  0.
     999903    2    3    3    0    0 -0.34190077676E-01  0.93432133548E-02 -0.12327432517E+00  0.12979954038E+00  0.19877232906E-01 0.  0.
         14    1    1    2    0    0 -0.29804700927E-02 -0.21262850477E-01 -0.92010691910E-02  0.23359188484E-01  0.00000000000E+00 0.  1.
     999901    1    3    3    0    0  0.37170547769E-01  0.11919637122E-01  0.13247539437E+00  0.89077127114E+00  0.88000000000E+00 0. -1.
        -11    1    4    4    0    0 -0.17343474833E-01 -0.35803641662E-02 -0.38109001820E-01  0.42025852372E-01  0.51100000000E-03 0.  1.
         11    1    4    4    0    0 -0.16846602844E-01  0.12923577521E-01 -0.85165323354E-01  0.87773688007E-01  0.51100000000E-03 0. -1.
</event>
<event>
 8    1  0.1128298E+005  0.1043930E+01  0.7957747E-01            NaN
         13   -1    0    0    0    0  0.00000000000E+00  0.00000000000E+00  0.74505805969E-08  0.10566000000E+00  0.10566000000E+00 0. -1.
     999900   -1    0    0    0    0 -0.00000000000E+00 -0.00000000000E+00 -0.74505805969E-08  0.93827000000E+00  0.93827000000E+00 0. -1.
     999902    2    1    2    0    0 -0.14783962112E-02  0.15823948709E-01  0.16190213843E-01  0.10212428664E+01  0.10209908355E+01 0.  0.
     999903    2    3    3    0    0  0.38017871011E-01  0.12328915076E+00  0.28998039205E-01  0.13373356210E+00  0.19955103161E-01 0.  0.
         14    1    1    2    0    0  0.14783962112E-02 -0.15823948709E-01 -0.16190213843E-01  0.22687133631E-01  0.00000000000E+00 0.  1.
     999901    1    3    3    0    0 -0.39496267222E-01 -0.10746520205E+00 -0.12807825362E-01  0.88750930427E+00  0.88000000000E+00 0.  1.
        -11    1    4    4    0    0  0.61943383759E-02  0.23905833276E-01 -0.22428703067E-02  0.24802223303E-01  0.51100000000E-03 0. -1.
         11    1    4    4    0    0  0.31823532635E-01  0.99383317485E-01  0.31240909512E-01  0.10893133880E+00  0.51100000000E-03 0.  1.
</event>
<event>
 8    1  0.1128298E+005  0.1043930E+01  0.7957747E-01            NaN
         13   -1    0    0    0    0  0.00000000000E+00  0.00000000000E+00  0.74505805969E-08  0.10566000000E+00  0.10566000000E+00 0. -1.
     999900   -1    0    0    0    0 -0.00000000000E+00 -0.00000000000E+00 -0.74505805969E-08  0.93827000000E+00  0.93827000000E+00 0.  1.
     999902    2    1    2    0    0  0.16696199287E-01  0.84981344823E-02  0.17904308589E-01  0.10180158026E+01  0.10176859185E+01 0.  0.
     999903    2    3    3    0    0  0.70771350547E-01 -0.76578533378E-01  0.75515499155E-01  0.13038907325E+00  0.20636472026E-01 0.  0.
         14    1    1    2    0    0 -0.16696199287E-01 -0.84981344823E-02 -0.17904308589E-01  0.25914197390E-01  0.00000000000E+00 0.  1.
     999901    1    3    3    0    0 -0.54075151260E-01  0.85076667860E-01 -0.57611190566E-01  0.88762672936E+00  0.88000000000E+00 0. -1.
        -11    1    4    4    0    0  0.54783085680E-01 -0.52857872127E-01  0.64335831694E-01  0.99671969395E-01  0.51100000000E-03 0.  1.
         11    1    4    4    0    0  0.15988264867E-01 -0.23720661251E-01  0.11179667461E-01  0.30717103854E-01  0.51100000000E-03 0. -1.
</event>
<event>
 8    1  0.1128298E+005  0.1043930E+01  0.7957747E-01            NaN
         13   -1    0    0    0    0  0.00000000000E+00  0.00000000000E+00  0.74505805969E-08  0.10566000000E+00  0.10566000000E+00 0.  1.
     999900   -1    0    0    0    0 -0.00000000000E+00 -0.00000000000E+00 -0.74505805969E-08  0.93827000000E+00  0.93827000000E+00 0.  1.
     999902    2    1    2    0    0 -0.56536067430E-02 -0.67929686324E-02  0.20031009618E-01  0.10220359588E+01  0.10218014250E+01 0.  0.
     999903    2    3    3    0    0 -0.59945174806E-01 -0.75502477666E-01 -0.86347663864E-01  0.13131434511E+00  0.22214636174E-01 0.  0.
         14    1    1    2    0    0  0.56536067430E-02  0.67929686324E-02 -0.20031009618E-01  0.21894041161E-01  0.00000000000E+00 0. -1.
     999901    1    3    3    0    0  0.54291568063E-01  0.68709509034E-01  0.10637867348E+00  0.89072161373E+00  0.88000000000E+00 0. -1.
        -11    1    4    4    0    0 -0.12414668264E-01 -0.17522167606E-01 -0.81312734200E-02  0.22968001091E-01  0.51100000000E-03 0. -1.
         11    1    4    4    0    0 -0.47530506543E-01 -0.57980310061E-01 -0.78216390444E-01  0.10834634402E+00  0.51100000000E-03 0.  1.
</event>
<event>
 8    1  0.1128298E+005  0.1043930E+01  0.7957747E-01            NaN
         13   -1    0    0    0    0  0.00000000000E+00  0.00000000000E+00  0.74505805969E-08  0.10566000000E+00  0.10566000000E+00 0. -1.
     999900   -1    0    0    0    0 -0.00000000000E+00 -0.00000000000E+00 -0.74505805969E-08  0.93827000000E+00  0.93827000000E+00 0.  1.
     999902    2    1    2    0    0 -0.30235376534E-02  0.20210467540E-01 -0.11392470420E-01  0.10205335652E+01  0.10202653403E+01 0.  0.
     999903    2    3    3    0    0 -0.50337658756E-01  0.11079077030E-01 -0.12039543142E+00  0.13249997697E+00  0.20113631067E-01 0.  0.
         14    1    1    2    0    0  0.30235376534E-02 -0.20210467540E-01  0.11392470420E-01  0.23396434780E-01  0.00000000000E+00 0. -1.
     999901    1    3    3    0    0  0.47314121102E-01  0.91313905100E-02  0.10900296100E+00  0.88803358825E+00  0.88000000000E+00 0. -1.
        -11    1    4    4    0    0 -0.31588097718E-01  0.10304164407E-01 -0.96817736899E-01  0.10236170681E+00  0.51100000000E-03 0. -1.
         11    1    4    4    0    0 -0.18749561037E-01  0.77491262279E-03 -0.23577694520E-01  0.30138270165E-01  0.51100000000E-03 0.  1.
</event>
<event>
 8    1  0.1128298E+005  0.1043930E+01  0.7957747E-01            NaN
         13   -1    0    0    0    0  0.00000000000E+00  0.00000000000E+00  0.74505805969E-08  0.10566000000E+00  0.10566000000E+00 0. -1.
     999900   -1    0    0    0    0 -0.00000000000E+00 -0.00000000000E+00 -0.74505805969E-08  0.93827000000E+00  0.93827000000E+00 0. -1.
     999902    2    1    2    0    0  0.17151454560E-01  0.39024920744E-02  0.11813879974E-01  0.10227410973E+01  0.10225215805E+01 0.  0.
     999903    2    3    3    0    0  0.92311056289E-01  0.13783257348E-01 -0.93167892216E-01  0.13326497746E+00  0.19183033699E-01 0.  0.
         14    1    1    2    0    0 -0.17151454560E-01 -0.39024920744E-02 -0.11813879974E-01  0.21188902708E-01  0.00000000000E+00 0.  1.
     999901    1    3    3    0    0 -0.75159601729E-01 -0.98807652738E-02  0.10498177219E+00  0.88947611983E+00  0.88000000000E+00 0.  1.
        -11    1    4    4    0    0  0.26346637474E-01 -0.45926672390E-02 -0.24096599687E-01  0.36002015722E-01  0.51100000000E-03 0. -1.
         11    1    4    4    0    0  0.65964418815E-01  0.18375924587E-01 -0.69071292528E-01  0.97262961741E-01  0.51100000000E-03 0.  1.
</event>
<event>
 8    1  0.1128298E+005  0.1043930E+01  0.7957747E-01            NaN
         13   -1    0    0    0    0  0.00000000000E+00  0.00000000000E+00  0.74505805969E-08  0.10566000000E+00  0.10566000000E+00 0. -1.
     999900   -1    0    0    0    0 -0.00000000000E+00 -0.00000000000E+00 -0.74505805969E-08  0.93827000000E+00  0.93827000000E+00 0.  1.
     999902    2    1    2    0    0 -0.57710613503E-02 -0.55940516523E-02 -0.22039507650E-01  0.10204707063E+01  0.10202010214E+01 0.  0.
     999903    2    3    3    0    0 -0.55788821155E-01 -0.10349599870E+00 -0.57860074286E-01  0.13290680409E+00  0.22194955847E-01 0.  0.
         14    1    1    2    0    0  0.57710613503E-02  0.55940516523E-02  0.22039507650E-01  0.23459293691E-01  0.00000000000E+00 0. -1.
     999901    1    3    3    0    0  0.50017759804E-01  0.97901947043E-01  0.35820566636E-01  0.88756390222E+00  0.88000000000E+00 0. -1.
        -11    1    4    4    0    0 -0.15599073688E-01 -0.52104880691E-01 -0.27424291141E-01  0.60914715442E-01  0.51100000000E-03 0.  1.
         11    1    4    4    0    0 -0.40189747467E-01 -0.51391118004E-01 -0.30435783144E-01  0.71992088647E-01  0.51100000000E-03 0. -1.
</event>
<event>
 8    1  0.1128298E+005  0.1043930E+01  0.7957747E-01            NaN
         13   -1    0    0    0    0  0.00000000000E+00  0.00000000000E+00  0.74505805969E-08  0.10566000000E+00  0.10566000000E+00 0.  1.
     999900   -1    0    0    0    0 -0.00000000000E+00 -0.00000000000E+00 -0.74505805969E-08  0.93827000000E+00  0.93827000000E+00 0. -1.
     999902    2    1    2    0    0  0.99741658393E-02  0.24411780954E-01  0.36763822009E-03  0.10175566386E+01  0.10172148045E+01 0.  0.
     999903    2    3    3    0    0 -0.11123222744E+00  0.55524600624E-01  0.24906893386E-01  0.12836533615E+00  0.20042866315E-01 0.  0.
         14    1    1    2    0    0 -0.99741658393E-02 -0.24411780954E-01 -0.36763822009E-03  0.26373361397E-01  0.00000000000E+00 0.  1.
     999901    1    3    3    0    0  0.12120639328E+00 -0.31112819670E-01 -0.24539255166E-01  0.88919130246E+00  0.88000000000E+00 0. -1.
        -11    1    4    4    0    0 -0.42887036198E-01  0.20452396623E-01 -0.29099178990E-03  0.47517830324E-01  0.51100000000E-03 0. -1.
         11    1    4    4    0    0 -0.68345191242E-01  0.35072204001E-01  0.25197885176E-01  0.80847505823E-01  0.51100000000E-03 0.  1.
</event>
<event>
 8    1  0.1128298E+005  0.1043930E+01  0.7957747E-01            NaN
         13   -1    0    0    0    0  0.00000000000E+00  0.00000000000E+00  0.74505805969E-08  0.10566000000E+00  0.10566000000E+00 0.  1.
     999900   -1    0    0    0    0 -0.00000000000E+00 -0.00000000000E+00 -0.74505805969E-08  0.93827000000E+00  0.93827000000E+00 0. -1.
     999902    2    1    2    0    0 -0.11524685280E-01  0.54103953908E-02 -0.18693907344E-01  0.10213124643E+01  0.10210619946E+01 0.  0.
     999903    2    3    3    0    0  0.52069588153E-01 -0.88963698444E-01  0.74822233832E-01  0.12907036159E+00  0.20856891283E-01 0.  0.
         14    1    1    2    0    0  0.11524685280E-01 -0.54103953908E-02  0.18693907344E-01  0.22617535694E-01  0.00000000000E+00 0.  1.
     999901    1    3    3    0    0 -0.63594273433E-01  0.94374093834E-01 -0.93516141176E-01  0.89224210272E+00  0.88000000000E+00 0. -1.
        -11    1    4    4    0    0  0.13479342207E-01 -0.87988683745E-02  0.95468665974E-02  0.18722086792E-01  0.51100000000E-03 0.  1.
         11    1    4    4    0    0  0.38590245946E-01 -0.80164830069E-01  0.65275367235E-01  0.11034827480E+00  0.51100000000E-03 0. -1.
</event>
<event>
 8    1  0.1128298E+005  0.1043930E+01  0.7957747E-01            NaN
         13   -1    0    0    0    0  0.00000000000E+00  0.00000000000E+00  0.74505805969E-08  0.10566000000E+00  0.10566000000E+00 0.  1.
     999900   -1    0    0    0    0 -0.00000000000E+00 -0.00000000000E+00 -0.74505805969E-08  0.93827000000E+00  0.93827000000E+00 0. -1.
     999902    2    1    2    0    0  0.19701281067E-01 -0.41060079525E-02 -0.13325750180E-01  0.10197934013E+01  0.10195077273E+01 0.  0.
     999903    2    3    3    0    0  0.39518226381E-01  0.64840675812E-01  0.10277208252E+00  0.12927385451E+00  0.19586348804E-01 0.  0.
         14    1    1    2    0    0 -0.19701281067E-01  0.41060079525E-02  0.13325750180E-01  0.24136598659E-01  0.00000000000E+00 0.  1.
     999901    1    3    3    0    0 -0.19816945314E-01 -0.68946683765E-01 -0.11609783270E+00  0.89051954683E+00  0.88000000000E+00 0. -1.
        -11    1    4    4    0    0  0.29788279417E-01  0.37669637166E-01  0.51388039609E-01  0.70337293740E-01  0.51100000000E-03 0. -1.
         11    1    4    4    0    0  0.97299469636E-02  0.27171038646E-01  0.51384042910E-01  0.58936560773E-01  0.51100000000E-03 0.  1.
</event>
<event>
 8    1  0.1130903E+005  0.1043930E+01  0.7957747E-01            NaN
         13   -1    0    0    0    0  0.00000000000E+00  0.00000000000E+00  0.74505805969E-08  0.10566000000E+00  0.10566000000E+00 0. -1.
     999900   -1    0    0    0    0 -0.00000000000E+00 -0.00000000000E+00 -0.74505805969E-08  0.93827000000E+00  0.93827000000E+00 0.  1.
     999902    2    1    2    0    0 -0.11039764857E-01 -0.19350911942E-01 -0.70121231639E-02  0.10205739714E+01  0.10203066828E+01 0.  0.
     999903    2    3    3    0    0 -0.62791198130E-01 -0.78296052144E-01 -0.86166090681E-01  0.13354629935E+00  0.18357901352E-01 0.  0.
         14    1    1    2    0    0  0.11039764857E-01  0.19350911942E-01  0.70121231639E-02  0.23356028608E-01  0.00000000000E+00 0. -1.
     999901    1    3    3    0    0  0.51751433273E-01  0.58945140202E-01  0.79153967517E-01  0.88702767204E+00  0.88000000000E+00 0.  1.
        -11    1    4    4    0    0 -0.41806662913E-01 -0.38153820520E-01 -0.44520152400E-01  0.72012611221E-01  0.51100000000E-03 0.  1.
         11    1    4    4    0    0 -0.20984535217E-01 -0.40142231625E-01 -0.41645938281E-01  0.61533688126E-01  0.51100000000E-03 0. -1.
</event>
<event>
 8    1  0.1128298E+005  0.1043930E+01  0.7957747E-01            NaN
         13   -1    0    0    0    0  0.00000000000E+00  0.00000000000E+00  0.74505805969E-08  0.10566000000E+00  0.10566000000E+00 0. -1.
     999900   -1    0    0    0    0 -0.00000000000E+00 -0.00000000000E+00 -0.74505805969E-08  0.93827000000E+00  0.93827000000E+00 0. -1.
     999902    2    1    2    0    0 -0.92473686311E-02 -0.21254710128E-01 -0.87506605734E-02  0.10191539917E+01  0.10188527902E+01 0.  0.
     999903    2    3    3    0    0  0.94341505477E-01 -0.87961276608E-01 -0.40216690242E-02  0.13055802935E+00  0.19791901592E-01 0.  0.
         14    1    1    2    0    0  0.92473686311E-02  0.21254710128E-01  0.87506605734E-02  0.24776008349E-01  0.00000000000E+00 0. -1.
     999901    1    3    3    0    0 -0.10358887411E+00  0.66706566480E-01 -0.47289915492E-02  0.88859596230E+00  0.88000000000E+00 0.  1.
        -11    1    4    4    0    0  0.35384069492E-01 -0.40189272187E-01 -0.98624847399E-02  0.54449423312E-01  0.51100000000E-03 0. -1.
         11    1    4    4    0    0  0.58957435985E-01 -0.47772004421E-01  0.58408157157E-02  0.76108606041E-01  0.51100000000E-03 0.  1.
</event>
<event>
 8    1  0.1164787E+005  0.1043930E+01  0.7957747E-01            NaN
         13   -1    0    0    0    0  0.00000000000E+00  0.00000000000E+00  0.74505805969E-08  0.10566000000E+00  0.10566000000E+00 0.  1.
     999900   -1    0    0    0    0 -0.00000000000E+00 -0.00000000000E+00 -0.74505805969E-08  0.93827000000E+00  0.93827000000E+00 0.  1.
     999902    2    1    2    0    0  0.22253143930E-01 -0.30787585886E-02 -0.85740266231E-02  0.10198843122E+01  0.10196008117E+01 0.  0.
     999903    2    3    3    0    0 -0.25052601492E-01 -0.79414829496E-01 -0.98792201498E-01  0.13072496296E+00  0.19868791552E-01 0.  0.
         14    1    1    2    0    0 -0.22253143930E-01  0.30787585886E-02  0.85740266231E-02  0.24045687799E-01  0.00000000000E+00 0.  1.
     999901    1    3    3    0    0  0.47305745422E-01  0.76336070907E-01  0.90218174875E-01  0.88915934924E+00  0.88000000000E+00 0. -1.
        -11    1    4    4    0    0 -0.26533995554E-01 -0.54266946165E-01 -0.69076792500E-01  0.91765019203E-01  0.51100000000E-03 0.  1.
         11    1    4    4    0    0  0.14813940617E-02 -0.25147883330E-01 -0.29715408997E-01  0.38959943753E-01  0.51100000000E-03 0. -1.
</event>
<event>
 8    1  0.1128298E+005  0.1043930E+01  0.7957747E-01            NaN
         13   -1    0    0    0    0  0.00000000000E+00  0.00000000000E+00  0.74505805969E-08  0.10566000000E+00  0.10566000000E+00 0. -1.
     999900   -1    0    0    0    0 -0.00000000000E+00 -0.00000000000E+00 -0.74505805969E-08  0.93827000000E+00  0.93827000000E+00 0.  1.
     999902    2    1    2    0    0 -0.78047924524E-02  0.22189693938E-01  0.10956295720E-01  0.10179812482E+01  0.10176504724E+01 0.  0.
     999903    2    3    3    0    0  0.11699481425E+00 -0.44234408508E-01 -0.50303097165E-02  0.12655392379E+00  0.18604358429E-01 0.  0.
         14    1    1    2    0    0  0.78047924524E-02 -0.22189693938E-01 -0.10956295720E-01  0.25948751766E-01  0.00000000000E+00 0.  1.
     999901    1    3    3    0    0 -0.12479960670E+00  0.66424102446E-01  0.15986605436E-01  0.89142732445E+00  0.88000000000E+00 0.  1.
        -11    1    4    4    0    0  0.98234022587E-01 -0.43887328859E-01 -0.59778246757E-02  0.10775906615E+00  0.51100000000E-03 0. -1.
         11    1    4    4    0    0  0.18760791663E-01 -0.34707964890E-03  0.94751495916E-03  0.18794857640E-01  0.51100000000E-03 0.  1.
</event>
<event>
 8    1  0.1128298E+005  0.1043930E+01  0.7957747E-01            NaN
         13   -1    0    0    0    0  0.00000000000E+00  0.00000000000E+00  0.74505805969E-08  0.10566000000E+00  0.10566000000E+00 0.  1.
     999900   -1    0    0    0    0 -0.00000000000E+00 -0.00000000000E+00 -0.74505805969E-08  0.93827000000E+00  0.93827000000E+00 0. -1.
     999902    2    1    2    0    0  0.46656995301E-02 -0.20798796122E-01  0.11818274137E-01  0.10195572637E+01  0.10192659043E+01 0.  0.
     999903    2    3    3    0    0 -0.88792286935E-01 -0.93339972738E-01 -0.16533895423E-01  0.13118771048E+00  0.18450608443E-01 0.  0.
         14    1    1    2    0    0 -0.46656995301E-02  0.20798796122E-01 -0.11818274137E-01  0.24372736322E-01  0.00000000000E+00 0.  1.
     999901    1    3    3    0    0  0.93457986465E-01  0.72541176616E-01  0.28352169561E-01  0.88836955320E+00  0.88000000000E+00 0. -1.
        -11    1    4    4    0    0 -0.12188832334E-01 -0.16809411447E-01 -0.90203712123E-02  0.22644031546E-01  0.51100000000E-03 0.  1.
         11    1    4    4    0    0 -0.76603454601E-01 -0.76530561291E-01 -0.75135242111E-02  0.10854367893E+00  0.51100000000E-03 0. -1.
</event>
<event>
 8    1  0.1128298E+005  0.1043930E+01  0.7957747E-01            NaN
         13   -1    0    0    0    0  0.00000000000E+00  0.00000000000E+00  0.74505805969E-08  0.10566000000E+00  0.10566000000E+00 0.  1.
     999900   -1    0    0    0    0 -0.00000000000E+00 -0.00000000000E+00 -0.74505805969E-08  0.93827000000E+00  0.93827000000E+00 0.  1.
     999902    2    1    2    0    0 -0.78691836390E-02  0.33922365513E-03 -0.22702357077E-01  0.10199000990E+01  0.10196169751E+01 0.  0.
     999903    2    3    3    0    0  0.12558063637E+00  0.20464696396E-01  0.80444354999E-02  0.12908067043E+00  0.20194219635E-01 0.  0.
         14    1    1    2    0    0  0.78691836390E-02 -0.33922365513E-03  0.22702357077E-01  0.24029900971E-01  0.00000000000E+00 0.  1.
     999901    1    3    3    0    0 -0.13344982001E+00 -0.20125472741E-01 -0.30746792577E-01  0.89081942860E+00  0.88000000000E+00 0. -1.
        -11    1    4    4    0    0  0.84378023981E-01  0.21414900059E-01  0.11056852969E-01  0.87753997026E-01  0.51100000000E-03 0. -1.
         11    1    4    4    0    0  0.41202612389E-01 -0.95020366327E-03 -0.30124174696E-02  0.41326673404E-01  0.51100000000E-03 0.  1.
</event>
<event>
 8    1  0.1128298E+005  0.1043930E+01  0.7957747E-01            NaN
         13   -1    0    0    0    0  0.00000000000E+00  0.00000000000E+00  0.74505805969E-08  0.10566000000E+00  0.10566000000E+00 0.  1.
     999900   -1    0    0    0    0 -0.00000000000E+00 -0.00000000000E+00 -0.74505805969E-08  0.93827000000E+00  0.93827000000E+00 0.  1.
     999902    2    1    2    0    0 -0.19790635252E-01  0.11763628966E-01  0.33278651991E-02  0.10206678656E+01  0.10204027465E+01 0.  0.
     999903    2    3    3    0    0 -0.37427584565E-01 -0.11650564798E+00 -0.39537201349E-01  0.13016155831E+00  0.20110963999E-01 0.  0.
         14    1    1    2    0    0  0.19790635252E-01 -0.11763628966E-01 -0.33278651991E-02  0.23262134401E-01  0.00000000000E+00 0.  1.
     999901    1    3    3    0    0  0.17636949314E-01  0.12826927695E+00  0.42865066548E-01  0.89050630729E+00  0.88000000000E+00 0. -1.
        -11    1    4    4    0    0 -0.22575713934E-02 -0.26264113861E-01 -0.14643420597E-01  0.30159429591E-01  0.51100000000E-03 0. -1.
         11    1    4    4    0    0 -0.35170013172E-01 -0.90241534123E-01 -0.24893780752E-01  0.10000212872E+00  0.51100000000E-03 0.  1.
</event>
<event>
 8    1  0.1128298E+005  0.1043930E+01  0.7957747E-01            NaN
         13   -1    0    0    0    0  0.00000000000E+00  0.00000000000E+00  0.74505805969E-08  0.10566000000E+00  0.10566000000E+00 0.  1.
     999900   -1    0    0    0    0 -0.00000000000E+00 -0.00000000000E+00 -0.74505805969E-08  0.93827000000E+00  0.93827000000E+00 0. -1.
     999902    2    1    2    0    0 -0.17838181778E-01  0.11086437767E-01  0.10423796185E-01  0.10204829243E+01  0.10202135235E+01 0.  0.
     999903    2    3    3    0    0  0.57613504782E-01  0.68642115273E-01 -0.91339636357E-01  0.12955003726E+00  0.20229361405E-01 0.  0.
         14    1    1    2    0    0  0.17838181778E-01 -0.11086437767E-01 -0.10423796185E-01  0.23447075689E-01  0.00000000000E+00 0.  1.
     999901    1    3    3    0    0 -0.75451686559E-01 -0.57555677507E-01  0.10176343254E+00  0.89093288705E+00  0.88000000000E+00 0. -1.
        -11    1    4    4    0    0  0.28557339815E-01  0.22793372496E-01 -0.27387335835E-01  0.45666035214E-01  0.51100000000E-03 0.  1.
         11    1    4    4    0    0  0.29056164967E-01  0.45848742777E-01 -0.63952300523E-01  0.83884002051E-01  0.51100000000E-03 0. -1.
</event>
<event>
 8    1  0.1128298E+005  0.1043930E+01  0.7957747E-01            NaN
         13   -1    0    0    0    0  0.00000000000E+00  0.00000000000E+00  0.74505805969E-08  0.10566000000E+00  0.10566000000E+00 0.  1.
     999900   -1    0    0    0    0 -0.00000000000E+00 -0.00000000000E+00 -0.74505805969E-08  0.93827000000E+00  0.93827000000E+00 0.  1.
     999902    2    1    2    0    0 -0.18456754217E-01  0.69296839837E-02  0.37487224714E-03  0.10242116627E+01  0.10240218343E+01 0.  0.
     999903    2    3    3    0    0 -0.37818016616E-01 -0.57009396768E-01  0.11381894747E+00  0.13441807837E+00  0.20813295948E-01 0.  0.
         14    1    1    2    0    0  0.18456754217E-01 -0.69296839837E-02 -0.37487224714E-03  0.19718337292E-01  0.00000000000E+00 0.  1.
     999901    1    3    3    0    0  0.19361262399E-01  0.63939080752E-01 -0.11344407522E+00  0.88979358434E+00  0.88000000000E+00 0.  1.
        -11    1    4    4    0    0 -0.20692923199E-01 -0.32594175969E-01  0.82935647902E-01  0.91483114243E-01  0.51100000000E-03 0.  1.
         11    1    4    4    0    0 -0.17125093417E-01 -0.24415220799E-01  0.30883299569E-01  0.42934964126E-01  0.51100000000E-03 0. -1.
</event>
<event>
 8    1  0.1128298E+005  0.1043930E+01  0.7957747E-01            NaN
         13   -1    0    0    0    0  0.00000000000E+00  0.00000000000E+00  0.74505805969E-08  0.10566000000E+00  0.10566000000E+00 0. -1.
     999900   -1    0    0    0    0 -0.00000000000E+00 -0.00000000000E+00 -0.74505805969E-08  0.93827000000E+00  0.93827000000E+00 0. -1.
     999902    2    1    2    0    0 -0.12346277323E-01 -0.12847489427E-01  0.16433063505E-01  0.10196908968E+01  0.10194027619E+01 0.  0.
     999903    2    3    3    0    0 -0.57122429937E-01  0.40959480622E-01 -0.10564758908E+00  0.12850978186E+00  0.20315016638E-01 0.  0.
         14    1    1    2    0    0  0.12346277323E-01  0.12847489427E-01 -0.16433063505E-01  0.24239103211E-01  0.00000000000E+00 0.  1.
     999901    1    3    3    0    0  0.44776152614E-01 -0.53806970049E-01  0.12208065258E+00  0.89118111493E+00  0.88000000000E+00 0.  1.
        -11    1    4    4    0    0 -0.32357254592E-01  0.29468078773E-01 -0.79234880931E-01  0.90519539705E-01  0.51100000000E-03 0.  1.
         11    1    4    4    0    0 -0.24765175346E-01  0.11491401850E-01 -0.26412708148E-01  0.37990242156E-01  0.51100000000E-03 0. -1.
</event>
<event>
 8    1  0.1128298E+005  0.1043930E+01  0.7957747E-01            NaN
         13   -1    0    0    0    0  0.00000000000E+00  0.00000000000E+00  0.74505805969E-08  0.10566000000E+00  0.10566000000E+00 0.  1.
     999900   -1    0    0    0    0 -0.00000000000E+00 -0.00000000000E+00 -0.74505805969E-08  0.93827000000E+00  0.93827000000E+00 0.  1.
     999902    2    1    2    0    0 -0.60101956956E-02 -0.22016546315E-01  0.65529155655E-02  0.10201857067E+01  0.10199093512E+01 0.  0.
     999903    2    3    3    0    0 -0.81332484611E-01 -0.38310358313E-01  0.95201969453E-01  0.13238077861E+00  0.19457619320E-01 0.  0.
         14    1    1    2    0    0  0.60101956956E-02  0.22016546315E-01 -0.65529155655E-02  0.23744293342E-01  0.00000000000E+00 0. -1.
     999901    1    3    3    0    0  0.75322288916E-01  0.16293811999E-01 -0.88649053887E-01  0.88780492805E+00  0.88000000000E+00 0.  1.
        -11    1    4    4    0    0 -0.30213275355E-01 -0.45397090163E-02  0.28064179531E-01  0.41488676279E-01  0.51100000000E-03 0.  1.
         11    1    4    4    0    0 -0.51119209256E-01 -0.33770649297E-01  0.67137789922E-01  0.90892102327E-01  0.51100000000E-03 0. -1.
</event>
<event>
 8    1  0.1128298E+005  0.1043930E+01  0.7957747E-01            NaN
         13   -1    0    0    0    0  0.00000000000E+00  0.00000000000E+00  0.74505805969E-08  0.10566000000E+00  0.10566000000E+00 0.  1.
     999900   -1    0    0    0    0 -0.00000000000E+00 -0.00000000000E+00 -0.74505805969E-08  0.93827000000E+00  0.93827000000E+00 0.  1.
     999902    2    1    2    0    0 -0.10884542841E-01 -0.14046617436E-01  0.15881224228E-01  0.10200973749E+01  0.10198189351E+01 0.  0.
     999903    2    3    3    0    0  0.23273945795E-01 -0.49551280834E-01 -0.11511554318E+00  0.12903759213E+00  0.20052578759E-01 0.  0.
         14    1    1    2    0    0  0.10884542841E-01  0.14046617436E-01 -0.15881224228E-01  0.23832625060E-01  0.00000000000E+00 0. -1.
     999901    1    3    3    0    0 -0.34158488636E-01  0.35504663399E-01  0.13099676741E+00  0.89105978281E+00  0.88000000000E+00 0. -1.
        -11    1    4    4    0    0  0.17757770916E-01 -0.14857963774E-01 -0.46888420358E-01  0.52296105018E-01  0.51100000000E-03 0.  1.
         11    1    4    4    0    0  0.55161748782E-02 -0.34693317060E-01 -0.68227122827E-01  0.76741487112E-01  0.51100000000E-03 0. -1.
</event>
<event>
 8    1  0.1128298E+005  0.1043930E+01  0.7957747E-01            NaN
         13   -1    0    0    0    0  0.00000000000E+00  0.00000000000E+00  0.74505805969E-08  0.10566000000E+00  0.10566000000E+00 0.  1.
     999900   -1    0    0    0    0 -0.00000000000E+00 -0.00000000000E+00 -0.74505805969E-08  0.93827000000E+00  0.93827000000E+00 0.  1.
     999902    2    1    2    0    0 -0.21565101810E-02  0.22404027114E-01  0.78846770806E-02  0.10200813292E+01  0.10198025098E+01 0.  0.
     999903    2    3    3    0    0 -0.55888026669E-01 -0.10112161209E-01 -0.11478754033E+00  0.12935530436E+00  0.18190327713E-01 0.  0.
         14    1    1    2    0    0  0.21565101810E-02 -0.22404027114E-01 -0.78846770806E-02  0.23848670817E-01  0.00000000000E+00 0. -1.
     999901    1    3    3    0    0  0.53731516488E-01  0.32516188323E-01  0.12267221741E+00  0.89072602482E+00  0.88000000000E+00 0.  1.
        -11    1    4    4    0    0 -0.52485480234E-01 -0.91036572924E-02 -0.11377616888E+00  0.12562993249E+00  0.51100000000E-03 0. -1.
         11    1    4    4    0    0 -0.34025464342E-02 -0.10085039164E-02 -0.10113714534E-02  0.37253718745E-02  0.51100000000E-03 0.  1.
</event>
<event>
 8    1  0.1128298E+005  0.1043930E+01  0.7957747E-01            NaN
         13   -1    0    0    0    0  0.00000000000E+00  0.00000000000E+00  0.74505805969E-08  0.10566000000E+00  0.10566000000E+00 0.  1.
     999900   -1    0    0    0    0 -0.00000000000E+00 -0.00000000000E+00 -0.74505805969E-08  0.93827000000E+00  0.93827000000E+00 0. -1.
     999902    2    1    2    0    0 -0.36584339141E-02 -0.11938342794E-01  0.18349516331E-01  0.10217351151E+01  0.10214940198E+01 0.  0.
     999903    2    3    3    0    0  0.25749162763E-01  0.92661805293E-01  0.88463796616E-01  0.13228471734E+00  0.20595474929E-01 0.  0.
         14    1    1    2    0    0  0.36584339141E-02  0.11938342794E-01 -0.18349516331E-01  0.22194884928E-01  0.00000000000E+00 0. -1.
     999901    1    3    3    0    0 -0.29407596677E-01 -0.10460014809E+00 -0.70114280285E-01  0.88945039773E+00  0.88000000000E+00 0. -1.
        -11    1    4    4    0    0  0.78337842547E-02  0.64383596894E-01  0.57304587581E-01  0.86548787419E-01  0.51100000000E-03 0. -1.
         11    1    4    4    0    0  0.17915378508E-01  0.28278208398E-01  0.31159209035E-01  0.45735929923E-01  0.51100000000E-03 0.  1.
</event>
<event>
 8    1  0.1409861E+005  0.1043930E+01  0.7957747E-01            NaN
         13   -1    0    0    0    0  0.00000000000E+00  0.00000000000E+00  0.74505805969E-08  0.10566000000E+00  0.10566000000E+00 0.  1.
     999900   -1    0    0    0    0 -0.00000000000E+00 -0.00000000000E+00 -0.74505805969E-08  0.93827000000E+00  0.93827000000E+00 0. -1.
     999902    2    1    2    0    0 -0.15579124467E-01 -0.13979715138E-01 -0.10609858120E-01  0.10204627751E+01  0.10201929057E+01 0.  0.
     999903    2    3    3    0    0  0.88206880961E-01 -0.11378520508E-01  0.90793194130E-01  0.12857663880E+00  0.19458246788E-01 0.  0.
         14    1    1    2    0    0  0.15579124467E-01  0.13979715138E-01  0.10609858120E-01  0.23467224886E-01  0.00000000000E+00 0. -1.
     999901    1    3    3    0    0 -0.10378600543E+00 -0.26011946300E-02 -0.10140305225E+00  0.89188613631E+00  0.88000000000E+00 0. -1.
        -11    1    4    4    0    0  0.51117587543E-01 -0.15834137647E-01  0.49622256579E-01  0.72981895976E-01  0.51100000000E-03 0.  1.
         11    1    4    4    0    0  0.37089293417E-01  0.44556171387E-02  0.41170937551E-01  0.55594742828E-01  0.51100000000E-03 0. -1.
</event>
<event>
 8    1  0.1128298E+005  0.1043930E+01  0.7957747E-01            NaN
         13   -1    0    0    0    0  0.00000000000E+00  0.00000000000E+00  0.74505805969E-08  0.10566000000E+00  0.10566000000E+00 0.  1.
     999900   -1    0    0    0    0 -0.00000000000E+00 -0.00000000000E+00 -0.74505805969E-08  0.93827000000E+00  0.93827000000E+00 0.  1.
     999902    2    1    2    0    0 -0.31196973431E-02  0.19434051460E-01  0.13343519279E-01  0.10201505052E+01  0.10198733200E+01 0.  0.
     999903    2    3    3    0    0 -0.95639121146E-01  0.32878164116E-01 -0.79288395000E-01  0.13036330618E+00  0.21911796972E-01 0.  0.
         14    1    1    2    0    0  0.31196973431E-02 -0.19434051460E-01 -0.13343519279E-01  0.23779494831E-01  0.00000000000E+00 0. -1.
     999901    1    3    3    0    0  0.92519423803E-01 -0.13444112656E-01  0.92631914279E-01  0.88978719899E+00  0.88000000000E+00 0. -1.
        -11    1    4    4    0    0 -0.24688508089E-01  0.18862730641E-01 -0.26230528570E-01  0.40664810205E-01  0.51100000000E-03 0.  1.
         11    1    4    4    0    0 -0.70950613057E-01  0.14015433475E-01 -0.53057866430E-01  0.89698495973E-01  0.51100000000E-03 0. -1.
</event>
<event>
 8    1  0.1128298E+005  0.1043930E+01  0.7957747E-01            NaN
         13   -1    0    0    0    0  0.00000000000E+00  0.00000000000E+00  0.74505805969E-08  0.10566000000E+00  0.10566000000E+00 0.  1.
     999900   -1    0    0    0    0 -0.00000000000E+00 -0.00000000000E+00 -0.74505805969E-08  0.93827000000E+00  0.93827000000E+00 0.  1.
     999902    2    1    2    0    0  0.16132224245E-01 -0.72330722592E-02  0.15974054582E-01  0.10201027800E+01  0.10198244679E+01 0.  0.
     999903    2    3    3    0    0 -0.64339172549E-01 -0.10610076635E+00 -0.31544775518E-01  0.12964867907E+00  0.20415811958E-01 0.  0.
         14    1    1    2    0    0 -0.16132224245E-01  0.72330722592E-02 -0.15974054582E-01  0.23827220005E-01  0.00000000000E+00 0. -1.
     999901    1    3    3    0    0  0.80471396794E-01  0.98867694092E-01  0.47518830100E-01  0.89045410092E+00  0.88000000000E+00 0. -1.
        -11    1    4    4    0    0 -0.10186633355E-01 -0.12059004495E-01 -0.10879658326E-01  0.19178508148E-01  0.51100000000E-03 0.  1.
         11    1    4    4    0    0 -0.54152539194E-01 -0.94041761856E-01 -0.20665117192E-01  0.11047017092E+00  0.51100000000E-03 0. -1.
</event>
<event>
 8    1  0.1128298E+005  0.1043930E+01  0.7957747E-01            NaN
         13   -1    0    0    0    0  0.00000000000E+00  0.00000000000E+00  0.74505805969E-08  0.10566000000E+00  0.10566000000E+00 0. -1.
     999900   -1    0    0    0    0 -0.00000000000E+00 -0.00000000000E+00 -0.74505805969E-08  0.93827000000E+00  0.93827000000E+00 0.  1.
     999902    2    1    2    0    0 -0.15599317059E-02  0.15674370065E-01 -0.15326921350E-01  0.10219519705E+01  0.10217156141E+01 0.  0.
     999903    2    3    3    0    0 -0.25962750643E-01 -0.95775727414E-01 -0.84712738264E-01  0.13187837049E+00  0.19199015488E-01 0.  0.
         14    1    1    2    0    0  0.15599317059E-02 -0.15674370065E-01  0.15326921350E-01  0.21978029528E-01  0.00000000000E+00 0. -1.
     999901    1    3    3    0    0  0.24402818937E-01  0.11145009748E+00  0.69385816914E-01  0.89007359998E+00  0.88000000000E+00 0. -1.
        -11    1    4    4    0    0  0.89844575805E-03 -0.26046712403E-01 -0.26318126892E-01  0.37042453426E-01  0.51100000000E-03 0. -1.
         11    1    4    4    0    0 -0.26861196401E-01 -0.69729015011E-01 -0.58394611372E-01  0.94835917061E-01  0.51100000000E-03 0.  1.
</event>
<event>
 8    1  0.1128298E+005  0.1043930E+01  0.7957747E-01            NaN
         13   -1    0    0    0    0  0.00000000000E+00  0.00000000000E+00  0.74505805969E-08  0.10566000000E+00  0.10566000000E+00 0. -1.
     999900   -1    0    0    0    0 -0.00000000000E+00 -0.00000000000E+00 -0.74505805969E-08  0.93827000000E+00  0.93827000000E+00 0.  1.
     999902    2    1    2    0    0 -0.16969716578E-01 -0.14528760261E-02  0.21224236522E-02  0.10267664686E+01  0.10266230049E+01 0.  0.
     999903    2    3    3    0    0  0.30301158334E-01  0.60313133645E-01  0.11627437664E+00  0.13599138811E+00  0.20447315009E-01 0.  0.
         14    1    1    2    0    0  0.16969716578E-01  0.14528760261E-02 -0.21224236522E-02  0.17163531444E-01  0.00000000000E+00 0.  1.
     999901    1    3    3    0    0 -0.47270874911E-01 -0.61766009671E-01 -0.11415195299E+00  0.89077508044E+00  0.88000000000E+00 0.  1.
        -11    1    4    4    0    0  0.31033872698E-01  0.55979820938E-01  0.11459350921E+00  0.13125842861E+00  0.51100000000E-03 0. -1.
         11    1    4    4    0    0 -0.73271436477E-03  0.43333127071E-02  0.16808674347E-02  0.47329595066E-02  0.51100000000E-03 0.  1.
</event>
<event>
 8    1  0.1128298E+005  0.1043930E+01  0.7957747E-01            NaN
         13   -1    0    0    0    0  0.00000000000E+00  0.00000000000E+00  0.74505805969E-08  0.10566000000E+00  0.10566000000E+00 0. -1.
     999900   -1    0    0    0    0 -0.00000000000E+00 -0.00000000000E+00 -0.74505805969E-08  0.93827000000E+00  0.93827000000E+00 0.  1.
     999902    2    1    2    0    0  0.27403824536E-02 -0.22081195485E-01  0.82953936415E-02  0.10201833698E+01  0.10199069593E+01 0.  0.
     999903    2    3    3    0    0  0.16580562441E-01 -0.88056662149E-02 -0.12676046439E+00  0.12967347371E+00  0.19863021996E-01 0.  0.
         14    1    1    2    0    0 -0.27403824536E-02  0.22081195485E-01 -0.82953936415E-02  0.23746630197E-01  0.00000000000E+00 0.  1.
     999901    1    3    3    0    0 -0.13840179987E-01 -0.13275529271E-01  0.13505585803E+00  0.89050989610E+00  0.88000000000E+00 0. -1.
        -11    1    4    4    0    0  0.76965836403E-02  0.15906360416E-02 -0.91690564227E-01  0.92028192485E-01  0.51100000000E-03 0.  1.
         11    1    4    4    0    0  0.88839788003E-02 -0.10396302257E-01 -0.35069900160E-01  0.37645281221E-01  0.51100000000E-03 0. -1.
</event>
<event>
 8    1  0.1128298E+005  0.1043930E+01  0.7957747E-01            NaN
         13   -1    0    0    0    0  0.00000000000E+00  0.00000000000E+00  0.74505805969E-08  0.10566000000E+00  0.10566000000E+00 0.  1.
     999900   -1    0    0    0    0 -0.00000000000E+00 -0.00000000000E+00 -0.74505805969E-08  0.93827000000E+00  0.93827000000E+00 0.  1.
     999902    2    1    2    0    0  0.12715983221E-03 -0.22127581767E-01  0.89564935816E-02  0.10200581584E+01  0.10197787906E+01 0.  0.
     999903    2    3    3    0    0 -0.94806866699E-01  0.37033073084E-01  0.79390883948E-01  0.13018543950E+00  0.16898098390E-01 0.  0.
         14    1    1    2    0    0 -0.12715983221E-03  0.22127581767E-01 -0.89564935816E-02  0.23871841608E-01  0.00000000000E+00 0. -1.
     999901    1    3    3    0    0  0.94934026531E-01 -0.59160654852E-01 -0.70434390367E-01  0.88987271889E+00  0.88000000000E+00 0. -1.
        -11    1    4    4    0    0 -0.35706373975E-01  0.22788259464E-01  0.31360645765E-01  0.52706746585E-01  0.51100000000E-03 0.  1.
         11    1    4    4    0    0 -0.59100492724E-01  0.14244813621E-01  0.48030238183E-01  0.77478692918E-01  0.51100000000E-03 0. -1.
</event>
<event>
 8    1  0.1128298E+005  0.1043930E+01  0.7957747E-01            NaN
         13   -1    0    0    0    0  0.00000000000E+00  0.00000000000E+00  0.74505805969E-08  0.10566000000E+00  0.10566000000E+00 0.  1.
     999900   -1    0    0    0    0 -0.00000000000E+00 -0.00000000000E+00 -0.74505805969E-08  0.93827000000E+00  0.93827000000E+00 0. -1.
     999902    2    1    2    0    0  0.30193690653E-04 -0.17509143740E-02  0.23559688580E-01  0.10203053193E+01  0.10200317735E+01 0.  0.
     999903    2    3    3    0    0  0.11417261600E+00  0.23271090584E-01  0.56403691818E-01  0.13197355589E+00  0.25665406729E-01 0.  0.
         14    1    1    2    0    0 -0.30193690653E-04  0.17509143740E-02 -0.23559688580E-01  0.23624680713E-01  0.00000000000E+00 0. -1.
     999901    1    3    3    0    0 -0.11414242231E+00 -0.25022004958E-01 -0.32844003238E-01  0.88833176339E+00  0.88000000000E+00 0.  1.
        -11    1    4    4    0    0  0.67410812146E-01  0.26326585409E-01  0.36555314498E-01  0.81079336655E-01  0.51100000000E-03 0. -1.
         11    1    4    4    0    0  0.46761803858E-01 -0.30554948253E-02  0.19848377320E-01  0.50894219239E-01  0.51100000000E-03 0.  1.
</event>
<event>
 8    1  0.1128298E+005  0.1043930E+01  0.7957747E-01            NaN
         13   -1    0    0    0    0  0.00000000000E+00  0.00000000000E+00  0.74505805969E-08  0.10566000000E+00  0.10566000000E+00 0.  1.
     999900   -1    0    0    0    0 -0.00000000000E+00 -0.00000000000E+00 -0.74505805969E-08  0.93827000000E+00  0.93827000000E+00 0. -1.
     999902    2    1    2    0    0  0.17809346870E-01  0.83031659874E-02  0.13455193535E-01  0.10201149284E+01  0.10198369034E+01 0.  0.
     999903    2    3    3    0    0  0.83560065701E-01  0.91391138112E-01  0.44653433678E-01  0.13321014304E+00  0.20405596392E-01 0.  0.
         14    1    1    2    0    0 -0.17809346870E-01 -0.83031659874E-02 -0.13455193535E-01  0.23815071582E-01  0.00000000000E+00 0. -1.
     999901    1    3    3    0    0 -0.65750718831E-01 -0.83087972125E-01 -0.31198240143E-01  0.88690478538E+00  0.88000000000E+00 0. -1.
        -11    1    4    4    0    0  0.45204108694E-01  0.60273280516E-01  0.19724658772E-01  0.77881981688E-01  0.51100000000E-03 0.  1.
         11    1    4    4    0    0  0.38355957007E-01  0.31117857597E-01  0.24928774906E-01  0.55328161353E-01  0.51100000000E-03 0. -1.
</event>
<event>
 8    1  0.1128298E+005  0.1043930E+01  0.7957747E-01            NaN
         13   -1    0    0    0    0  0.00000000000E+00  0.00000000000E+00  0.74505805969E-08  0.10566000000E+00  0.10566000000E+00 0.  1.
     999900   -1    0    0    0    0 -0.00000000000E+00 -0.00000000000E+00 -0.74505805969E-08  0.93827000000E+00  0.93827000000E+00 0.  1.
     999902    2    1    2    0    0 -0.11657407548E-01 -0.73879363983E-02 -0.20506922997E-01  0.10192113705E+01  0.10189115796E+01 0.  0.
     999903    2    3    3    0    0 -0.28278818507E-01  0.12169346167E+00  0.25399484446E-01  0.12845569304E+00  0.15707993952E-01 0.  0.
         14    1    1    2    0    0  0.11657407548E-01  0.73879363983E-02  0.20506922997E-01  0.24718629529E-01  0.00000000000E+00 0.  1.
     999901    1    3    3    0    0  0.16621410959E-01 -0.12908139807E+00 -0.45906407443E-01  0.89075567743E+00  0.88000000000E+00 0.  1.
        -11    1    4    4    0    0 -0.72518160186E-02  0.64335727340E-01  0.10754373115E-01  0.65632250533E-01  0.51100000000E-03 0.  1.
         11    1    4    4    0    0 -0.21027002488E-01  0.57357734334E-01  0.14645111331E-01  0.62823442508E-01  0.51100000000E-03 0. -1.
</event>
<event>
 8    1  0.1128298E+005  0.1043930E+01  0.7957747E-01            NaN
         13   -1    0    0    0    0  0.00000000000E+00  0.00000000000E+00  0.74505805969E-08  0.10566000000E+00  0.10566000000E+00 0.  1.
     999900   -1    0    0    0    0 -0.00000000000E+00 -0.00000000000E+00 -0.74505805969E-08  0.93827000000E+00  0.93827000000E+00 0.  1.
     999902    2    1    2    0    0 -0.20790685179E-01 -0.45261698400E-02  0.12967563351E-01  0.10190122051E+01  0.10187075035E+01 0.  0.
     999903    2    3    3    0    0  0.11530983251E+00  0.27622573742E-01 -0.39608385393E-01  0.12641984404E+00  0.18809272195E-01 0.  0.
         14    1    1    2    0    0  0.20790685179E-01  0.45261698400E-02 -0.12967563351E-01  0.24917794905E-01  0.00000000000E+00 0. -1.
     999901    1    3    3    0    0 -0.13610051769E+00 -0.32148743582E-01  0.52575948744E-01  0.89259236106E+00  0.88000000000E+00 0. -1.
        -11    1    4    4    0    0  0.48710237734E-01  0.30626031203E-02 -0.12067129088E-01  0.50278658727E-01  0.51100000000E-03 0. -1.
         11    1    4    4    0    0  0.66599594774E-01  0.24559970622E-01 -0.27541256305E-01  0.76141185313E-01  0.51100000000E-03 0.  1.
</event>
<event>
 8    1  0.1128298E+005  0.1043930E+01  0.7957747E-01            NaN
         13   -1    0    0    0    0  0.00000000000E+00  0.00000000000E+00  0.74505805969E-08  0.10566000000E+00  0.10566000000E+00 0. -1.
     999900   -1    0    0    0    0 -0.00000000000E+00 -0.00000000000E+00 -0.74505805969E-08  0.93827000000E+00  0.93827000000E+00 0.  1.
     999902    2    1    2    0    0 -0.18267045948E-01 -0.11543714995E-01 -0.83050867973E-02  0.10207801233E+01  0.10205175860E+01 0.  0.
     999903    2    3    3    0    0 -0.61195325198E-01  0.74942421960E-01  0.84941007986E-01  0.13060175735E+00  0.21922813473E-01 0.  0.
         14    1    1    2    0    0  0.18267045948E-01  0.11543714995E-01  0.83050867973E-02  0.23149876679E-01  0.00000000000E+00 0.  1.
     999901    1    3    3    0    0  0.42928279251E-01 -0.86486136955E-01 -0.93246094783E-01  0.89017836597E+00  0.88000000000E+00 0.  1.
        -11    1    4    4    0    0 -0.43222785348E-01  0.60714071271E-01  0.53748881702E-01  0.91889123560E-01  0.51100000000E-03 0. -1.
         11    1    4    4    0    0 -0.17972539851E-01  0.14228350689E-01  0.31192126284E-01  0.38712633793E-01  0.51100000000E-03 0.  1.
</event>
<event>
 8    1  0.1128298E+005  0.1043930E+01  0.7957747E-01            NaN
         13   -1    0    0    0    0  0.00000000000E+00  0.00000000000E+00  0.74505805969E-08  0.10566000000E+00  0.10566000000E+00 0.  1.
     999900   -1    0    0    0    0 -0.00000000000E+00 -0.00000000000E+00 -0.74505805969E-08  0.93827000000E+00  0.93827000000E+00 0.  1.
     999902    2    1    2    0    0 -0.17170041251E-01 -0.69433907685E-02 -0.14193248257E-01  0.10205961343E+01  0.10203293586E+01 0.  0.
     999903    2    3    3    0    0 -0.18844474600E-02  0.10224113336E+00 -0.79479629197E-01  0.13131708855E+00  0.21687918219E-01 0.  0.
         14    1    1    2    0    0  0.17170041251E-01  0.69433907685E-02  0.14193248257E-01  0.23333865690E-01  0.00000000000E+00 0. -1.
     999901    1    3    3    0    0 -0.15285593791E-01 -0.10918452412E+00  0.65286380940E-01  0.88927904576E+00  0.88000000000E+00 0. -1.
        -11    1    4    4    0    0 -0.81243322583E-02  0.44206654764E-01 -0.44583411717E-01  0.63310147855E-01  0.51100000000E-03 0.  1.
         11    1    4    4    0    0  0.62398847984E-02  0.58034478593E-01 -0.34896217480E-01  0.68006940699E-01  0.51100000000E-03 0. -1.
</event>
<event>
 8    1  0.1128298E+005  0.1043930E+01  0.7957747E-01            NaN
         13   -1    0    0    0    0  0.00000000000E+00  0.00000000000E+00  0.74505805969E-08  0.10566000000E+00  0.10566000000E+00 0. -1.
     999900   -1    0    0    0    0 -0.00000000000E+00 -0.00000000000E+00 -0.74505805969E-08  0.93827000000E+00  0.93827000000E+00 0.  1.
     999902    2    1    2    0    0  0.22579501795E-01 -0.16445017155E-01 -0.53996702921E-02  0.10154795355E+01  0.10150809121E+01 0.  0.
     999903    2    3    3    0    0  0.85688829600E-01 -0.94663961314E-01 -0.16657803349E-01  0.12968738379E+00  0.15410840751E-01 0.  0.
         14    1    1    2    0    0 -0.22579501795E-01  0.16445017155E-01  0.53996702921E-02  0.28450464491E-01  0.00000000000E+00 0.  1.
     999901    1    3    3    0    0 -0.63109327806E-01  0.78218944159E-01  0.11258133056E-01  0.88579215172E+00  0.88000000000E+00 0.  1.
        -11    1    4    4    0    0  0.36043194890E-01 -0.38376682843E-01 -0.14459283596E-01  0.54600491638E-01  0.51100000000E-03 0.  1.
         11    1    4    4    0    0  0.49645634710E-01 -0.56287278471E-01 -0.21985197522E-02  0.75086892155E-01  0.51100000000E-03 0. -1.
</event>
<event>
 8    1  0.1128298E+005  0.1043930E+01  0.7957747E-01            NaN
         13   -1    0    0    0    0  0.00000000000E+00  0.00000000000E+00  0.74505805969E-08  0.10566000000E+00  0.10566000000E+00 0. -1.
     999900   -1    0    0    0    0 -0.00000000000E+00 -0.00000000000E+00 -0.74505805969E-08  0.93827000000E+00  0.93827000000E+00 0. -1.
     999902    2    1    2    0    0  0.57270625089E-02 -0.17714701114E-01 -0.14005463036E-01  0.10206327282E+01  0.10203667982E+01 0.  0.
     999903    2    3    3    0    0  0.11697154306E+00 -0.27727396608E-01  0.48904391874E-01  0.13134467675E+00  0.20214701547E-01 0.  0.
         14    1    1    2    0    0 -0.57270625089E-02  0.17714701114E-01  0.14005463036E-01  0.23297271844E-01  0.00000000000E+00 0. -1.
     999901    1    3    3    0    0 -0.11124448055E+00  0.10012695494E-01 -0.62909854910E-01  0.88928805140E+00  0.88000000000E+00 0. -1.
        -11    1    4    4    0    0  0.85556854643E-01 -0.11546778829E-01  0.31030564608E-01  0.91741269549E-01  0.51100000000E-03 0.  1.
         11    1    4    4    0    0  0.31414688415E-01 -0.16180617779E-01  0.17873827266E-01  0.39603407203E-01  0.51100000000E-03 0. -1.
</event>
<event>
 8    1  0.1128298E+005  0.1043930E+01  0.7957747E-01            NaN
         13   -1    0    0    0    0  0.00000000000E+00  0.00000000000E+00  0.74505805969E-08  0.10566000000E+00  0.10566000000E+00 0.  1.
     999900   -1    0    0    0    0 -0.00000000000E+00 -0.00000000000E+00 -0.74505805969E-08  0.93827000000E+00  0.93827000000E+00 0. -1.
     999902    2    1    2    0    0  0.13489138596E-01 -0.64821754332E-02  0.17996775219E-01  0.10205236039E+01  0.10202551479E+01 0.  0.
     999903    2    3    3    0    0  0.24390031141E-03  0.67486108245E-02  0.13055011190E+00  0.13315742042E+00  0.25337001837E-01 0.  0.
         14    1    1    2    0    0 -0.13489138596E-01  0.64821754332E-02 -0.17996775219E-01  0.23406396063E-01  0.00000000000E+00 0. -1.
     999901    1    3    3    0    0  0.13245238284E-01 -0.13230786258E-01 -0.11255333668E+00  0.88736618351E+00  0.88000000000E+00 0. -1.
        -11    1    4    4    0    0 -0.70386384883E-02 -0.58157014699E-02  0.81172874890E-01  0.81686360883E-01  0.51100000000E-03 0. -1.
         11    1    4    4    0    0  0.72825387997E-02  0.12564312294E-01  0.49377237008E-01  0.51471059542E-01  0.51100000000E-03 0.  1.
</event>
<event>
 8    1  0.1128298E+005  0.1043930E+01  0.7957747E-01            NaN
         13   -1    0    0    0    0  0.00000000000E+00  0.00000000000E+00  0.74505805969E-08  0.10566000000E+00  0.10566000000E+00 0. -1.
     999900   -1    0    0    0    0 -0.00000000000E+00 -0.00000000000E+00 -0.74505805969E-08  0.93827000000E+00  0.93827000000E+00 0. -1.
     999902    2    1    2    0    0  0.23386625745E-01 -0.11473126398E-02  0.39699368203E-02  0.10201810845E+01  0.10199046201E+01 0.  0.
     999903    2    3    3    0    0 -0.92719171806E-01 -0.19919437880E-01  0.84713308295E-01  0.12869219451E+00  0.19791601716E-01 0.  0.
         14    1    1    2    0    0 -0.23386625745E-01  0.11473126398E-02 -0.39699368203E-02  0.23748915520E-01  0.00000000000E+00 0.  1.
     999901    1    3    3    0    0  0.11610579755E+00  0.18772125240E-01 -0.80743371475E-01  0.89148888997E+00  0.88000000000E+00 0. -1.
        -11    1    4    4    0    0 -0.40750745936E-01 -0.12978679371E-01  0.26351443305E-01  0.50236730564E-01  0.51100000000E-03 0. -1.
         11    1    4    4    0    0 -0.51968425870E-01 -0.69407585094E-02  0.58361864990E-01  0.78455463941E-01  0.51100000000E-03 0.  1.
</event>
<event>
 8    1  0.1128298E+005  0.1043930E+01  0.7957747E-01            NaN
         13   -1    0    0    0    0  0.00000000000E+00  0.00000000000E+00  0.74505805969E-08  0.10566000000E+00  0.10566000000E+00 0.  1.
     999900   -1    0    0    0    0 -0.00000000000E+00 -0.00000000000E+00 -0.74505805969E-08  0.93827000000E+00  0.93827000000E+00 0.  1.
     999902    2    1    2    0    0  0.29963352861E-02  0.17350436852E-02 -0.24989085772E-01  0.10187021818E+01  0.10183897547E+01 0.  0.
     999903    2    3    3    0    0 -0.96522564929E-01  0.71645554484E-01  0.38989732665E-01  0.12803682367E+00  0.20580037536E-01 0.  0.
         14    1    1    2    0    0 -0.29963352861E-02 -0.17350436852E-02  0.24989085772E-01  0.25227818167E-01  0.00000000000E+00 0.  1.
     999901    1    3    3    0    0  0.99518900215E-01 -0.69910510799E-01 -0.63978818437E-01  0.89066535816E+00  0.88000000000E+00 0.  1.
        -11    1    4    4    0    0 -0.53406391207E-01  0.41028122143E-01  0.32423847745E-01  0.74747016342E-01  0.51100000000E-03 0. -1.
         11    1    4    4    0    0 -0.43116173721E-01  0.30617432341E-01  0.65658849200E-02  0.53289807330E-01  0.51100000000E-03 0.  1.
</event>
<event>
 8    1  0.1128298E+005  0.1043930E+01  0.7957747E-01            NaN
         13   -1    0    0    0    0  0.00000000000E+00  0.00000000000E+00  0.74505805969E-08  0.10566000000E+00  0.10566000000E+00 0. -1.
     999900   -1    0    0    0    0 -0.00000000000E+00 -0.00000000000E+00 -0.74505805969E-08  0.93827000000E+00  0.93827000000E+00 0. -1.
     999902    2    1    2    0    0 -0.11820240026E-01  0.12765361081E-01 -0.15654548033E-01  0.10205262099E+01  0.10202578143E+01 0.  0.
     999903    2    3    3    0    0  0.10900608488E+00 -0.52315246273E-01  0.37747959655E-01  0.12828951815E+00  0.20348967405E-01 0.  0.
         14    1    1    2    0    0  0.11820240026E-01 -0.12765361081E-01  0.15654548033E-01  0.23403790119E-01  0.00000000000E+00 0.  1.
     999901    1    3    3    0    0 -0.12082632491E+00  0.65080607354E-01 -0.53402507688E-01  0.89223669173E+00  0.88000000000E+00 0. -1.
        -11    1    4    4    0    0  0.55414482750E-02 -0.66228309809E-02  0.68636032591E-02  0.11042631475E-01  0.51100000000E-03 0. -1.
         11    1    4    4    0    0  0.10346463661E+00 -0.45692415293E-01  0.30884356396E-01  0.11724688668E+00  0.51100000000E-03 0.  1.
</event>
<event>
 8    1  0.1128298E+005  0.1043930E+01  0.7957747E-01            NaN
         13   -1    0    0    0    0  0.00000000000E+00  0.00000000000E+00  0.74505805969E-08  0.10566000000E+00  0.10566000000E+00 0. -1.
     999900   -1    0    0    0    0 -0.00000000000E+00 -0.00000000000E+00 -0.74505805969E-08  0.93827000000E+00  0.93827000000E+00 0.  1.
     999902    2    1    2    0    0 -0.17575547024E-01 -0.57061839343E-02 -0.14973177529E-01  0.10201464672E+01  0.10198691867E+01 0.  0.
     999903    2    3    3    0    0 -0.73282083509E-01 -0.19202080997E-01  0.10401172924E+00  0.13029099268E+00  0.20452854964E-01 0.  0.
         14    1    1    2    0    0  0.17575547024E-01  0.57061839343E-02  0.14973177529E-01  0.23783532824E-01  0.00000000000E+00 0. -1.
     999901    1    3    3    0    0  0.55706536486E-01  0.13495897063E-01 -0.11898490677E+00  0.88985547449E+00  0.88000000000E+00 0.  1.
        -11    1    4    4    0    0 -0.51615251282E-01 -0.19498666220E-01  0.85646108593E-01  0.10188154488E+00  0.51100000000E-03 0. -1.
         11    1    4    4    0    0 -0.21666832227E-01  0.29658522327E-03  0.18365620651E-01  0.28409447803E-01  0.51100000000E-03 0.  1.
</event>
<event>
 8    1  0.1128298E+005  0.1043930E+01  0.7957747E-01            NaN
         13   -1    0    0    0    0  0.00000000000E+00  0.00000000000E+00  0.74505805969E-08  0.10566000000E+00  0.10566000000E+00 0. -1.
     999900   -1    0    0    0    0 -0.00000000000E+00 -0.00000000000E+00 -0.74505805969E-08  0.93827000000E+00  0.93827000000E+00 0.  1.
     999902    2    1    2    0    0  0.37108491750E-02 -0.16724254311E-01  0.15268635343E-01  0.10209821829E+01  0.10207242603E+01 0.  0.
     999903    2    3    3    0    0 -0.96214738528E-01 -0.25035707420E-01  0.85576200864E-01  0.13250181898E+00  0.18691798243E-01 0.  0.
         14    1    1    2    0    0 -0.37108491750E-02  0.16724254311E-01 -0.15268635343E-01  0.22947817088E-01  0.00000000000E+00 0.  1.
     999901    1    3    3    0    0  0.99925587703E-01  0.83114531097E-02 -0.70307565521E-01  0.88848036394E+00  0.88000000000E+00 0. -1.
        -11    1    4    4    0    0 -0.87653193042E-01 -0.25255231194E-01  0.83518188197E-01  0.12367884958E+00  0.51100000000E-03 0. -1.
         11    1    4    4    0    0 -0.85615454859E-02  0.21952377393E-03  0.20580126672E-02  0.88229693943E-02  0.51100000000E-03 0.  1.
</event>
<event>
 8    1  0.1128298E+005  0.1043930E+01  0.7957747E-01            NaN
         13   -1    0    0    0    0  0.00000000000E+00  0.00000000000E+00  0.74505805969E-08  0.10566000000E+00  0.10566000000E+00 0. -1.
     999900   -1    0    0    0    0 -0.00000000000E+00 -0.00000000000E+00 -0.74505805969E-08  0.93827000000E+00  0.93827000000E+00 0.  1.
     999902    2    1    2    0    0 -0.31467965438E-02 -0.11927395389E-01 -0.20420095362E-01  0.10200732319E+01  0.10197942209E+01 0.  0.
     999903    2    3    3    0    0 -0.19515321752E-01 -0.77524405201E-01  0.99834143674E-01  0.12932524380E+00  0.19164583365E-01 0.  0.
         14    1    1    2    0    0  0.31467965438E-02  0.11927395389E-01  0.20420095362E-01  0.23856768093E-01  0.00000000000E+00 0.  1.
     999901    1    3    3    0    0  0.16368525208E-01  0.65597009812E-01 -0.12025423904E+00  0.89074798811E+00  0.88000000000E+00 0.  1.
        -11    1    4    4    0    0 -0.45552310190E-02 -0.19817097227E-02  0.41068345080E-02  0.64656410152E-02  0.51100000000E-03 0.  1.
         11    1    4    4    0    0 -0.14960090733E-01 -0.75542695479E-01  0.95727309166E-01  0.12285960278E+00  0.51100000000E-03 0. -1.
</event>
<event>
 8    1  0.1128298E+005  0.1043930E+01  0.7957747E-01            NaN
         13   -1    0    0    0    0  0.00000000000E+00  0.00000000000E+00  0.74505805969E-08  0.10566000000E+00  0.10566000000E+00 0.  1.
     999900   -1    0    0    0    0 -0.00000000000E+00 -0.00000000000E+00 -0.74505805969E-08  0.93827000000E+00  0.93827000000E+00 0. -1.
     999902    2    1    2    0    0 -0.16076486636E-01  0.10314469242E-01  0.14080220375E-01  0.10202003918E+01  0.10199243821E+01 0.  0.
     999903    2    3    3    0    0  0.56347547176E-01 -0.57677283768E-01  0.10071229927E+00  0.13038398590E+00  0.18849440855E-01 0.  0.
         14    1    1    2    0    0  0.16076486636E-01 -0.10314469242E-01 -0.14080220375E-01  0.23729608175E-01  0.00000000000E+00 0. -1.
     999901    1    3    3    0    0 -0.72424033812E-01  0.67991753010E-01 -0.86632078895E-01  0.88981640592E+00  0.88000000000E+00 0. -1.
        -11    1    4    4    0    0  0.13511292048E-01 -0.26161239299E-01  0.40012361097E-01  0.49681139439E-01  0.51100000000E-03 0. -1.
         11    1    4    4    0    0  0.42836255128E-01 -0.31516044469E-01  0.60699938173E-01  0.80702846466E-01  0.51100000000E-03 0.  1.
</event>
<event>
 8    1  0.1128298E+005  0.1043930E+01  0.7957747E-01            NaN
         13   -1    0    0    0    0  0.00000000000E+00  0.00000000000E+00  0.74505805969E-08  0.10566000000E+00  0.10566000000E+00 0. -1.
     999900   -1    0    0    0    0 -0.00000000000E+00 -0.00000000000E+00 -0.74505805969E-08  0.93827000000E+00  0.93827000000E+00 0. -1.
     999902    2    1    2    0    0 -0.17637772704E-01 -0.72365223713E-02  0.20836319803E-01  0.10156880010E+01  0.10152952797E+01 0.  0.
     999903    2    3    3    0    0  0.26807928618E-01  0.89035447218E-01 -0.79076784311E-01  0.12370911067E+00  0.20120396340E-01 0.  0.
         14    1    1    2    0    0  0.17637772704E-01  0.72365223713E-02 -0.20836319803E-01  0.28241998954E-01  0.00000000000E+00 0.  1.
     999901    1    3    3    0    0 -0.44445701322E-01 -0.96271969589E-01  0.99913104114E-01  0.89197889037E+00  0.88000000000E+00 0.  1.
        -11    1    4    4    0    0  0.15297640136E-01  0.34989646834E-01 -0.43970068498E-01  0.58240202816E-01  0.51100000000E-03 0. -1.
         11    1    4    4    0    0  0.11510288482E-01  0.54045800384E-01 -0.35106715813E-01  0.65468907859E-01  0.51100000000E-03 0.  1.
</event>
<event>
 8    1  0.1128298E+005  0.1043930E+01  0.7957747E-01            NaN
         13   -1    0    0    0    0  0.00000000000E+00  0.00000000000E+00  0.74505805969E-08  0.10566000000E+00  0.10566000000E+00 0.  1.
     999900   -1    0    0    0    0 -0.00000000000E+00 -0.00000000000E+00 -0.74505805969E-08  0.93827000000E+00  0.93827000000E+00 0. -1.
     999902    2    1    2    0    0 -0.15264728862E-01 -0.50930412485E-02  0.16768533582E-01  0.10206892011E+01  0.10204245736E+01 0.  0.
     999903    2    3    3    0    0  0.11522513683E+00  0.23691494971E-01  0.51790318508E-01  0.12991275325E+00  0.18893577580E-01 0.  0.
         14    1    1    2    0    0  0.15264728862E-01  0.50930412485E-02 -0.16768533582E-01  0.23240798930E-01  0.00000000000E+00 0. -1.
     999901    1    3    3    0    0 -0.13048986569E+00 -0.28784536220E-01 -0.35021784925E-01  0.89077644782E+00  0.88000000000E+00 0. -1.
        -11    1    4    4    0    0  0.21369489041E-01 -0.15864870228E-02  0.48765825622E-02  0.21982133232E-01  0.51100000000E-03 0.  1.
         11    1    4    4    0    0  0.93855647791E-01  0.25277981994E-01  0.46913735945E-01  0.10793062002E+00  0.51100000000E-03 0. -1.
</event>
<event>
 8    1  0.1128298E+005  0.1043930E+01  0.7957747E-01            NaN
         13   -1    0    0    0    0  0.00000000000E+00  0.00000000000E+00  0.74505805969E-08  0.10566000000E+00  0.10566000000E+00 0.  1.
     999900   -1    0    0    0    0 -0.00000000000E+00 -0.00000000000E+00 -0.74505805969E-08  0.93827000000E+00  0.93827000000E+00 0.  1.
     999902    2    1    2    0    0  0.71082529105E-02 -0.18826950272E-01  0.82611877490E-02  0.10221761833E+01  0.10219446762E+01 0.  0.
     999903    2    3    3    0    0 -0.18665642180E-01 -0.13090963880E+00  0.16371989129E-01  0.13465570029E+00  0.19451885871E-01 0.  0.
         14    1    1    2    0    0 -0.71082529105E-02  0.18826950272E-01 -0.82611877490E-02  0.21753816654E-01  0.00000000000E+00 0. -1.
     999901    1    3    3    0    0  0.25773895091E-01  0.11208268853E+00 -0.81108013801E-02  0.88752048305E+00  0.88000000000E+00 0.  1.
        -11    1    4    4    0    0 -0.68095546420E-02 -0.33646537765E-01 -0.40350590837E-02  0.34568806182E-01  0.51100000000E-03 0. -1.
         11    1    4    4    0    0 -0.11856087538E-01 -0.97263101039E-01  0.20407048213E-01  0.10008689411E+00  0.51100000000E-03 0.  1.
</event>
<event>
 8    1  0.1137947E+005  0.1043930E+01  0.7957747E-01            NaN
         13   -1    0    0    0    0  0.00000000000E+00  0.00000000000E+00  0.74505805969E-08  0.10566000000E+00  0.10566000000E+00 0.  1.
     999900   -1    0    0    0    0 -0.00000000000E+00 -0.00000000000E+00 -0.74505805969E-08  0.93827000000E+00  0.93827000000E+00 0.  1.
     999902    2    1    2    0    0  0.17250563404E-01  0.14467643061E-01  0.66497463873E-02  0.10204541878E+01  0.10201841185E+01 0.  0.
     999903    2    3    3    0    0  0.12509799812E+00  0.73816155449E-02  0.40789226383E-01  0.13318490222E+00  0.19247332509E-01 0.  0.
         14    1    1    2    0    0 -0.17250563404E-01 -0.14467643061E-01 -0.66497463873E-02  0.23475812244E-01  0.00000000000E+00 0.  1.
     999901    1    3    3    0    0 -0.10784743472E+00  0.70860275162E-02 -0.34139479995E-01  0.88726928554E+00  0.88000000000E+00 0. -1.
        -11    1    4    4    0    0  0.31462363273E-01  0.20514573076E-02  0.19283688577E-01  0.36962285454E-01  0.51100000000E-03 0.  1.
         11    1    4    4    0    0  0.93635634847E-01  0.53301582374E-02  0.21505537806E-01  0.96222616766E-01  0.51100000000E-03 0. -1.
</event>
<event>
 8    1  0.1328951E+005  0.1043930E+01  0.7957747E-01            NaN
         13   -1    0    0    0    0  0.00000000000E+00  0.00000000000E+00  0.74505805969E-08  0.10566000000E+00  0.10566000000E+00 0.  1.
     999900   -1    0    0    0    0 -0.00000000000E+00 -0.00000000000E+00 -0.74505805969E-08  0.93827000000E+00  0.93827000000E+00 0. -1.
     999902    2    1    2    0    0 -0.45230103146E-02 -0.39443368153E-02 -0.21204490753E-01  0.10218926262E+01  0.10216549778E+01 0.  0.
     999903    2    3    3    0    0  0.33272736806E-01 -0.11152832774E+00 -0.62610348493E-01  0.13356989282E+00  0.19370535026E-01 0.  0.
         14    1    1    2    0    0  0.45230103146E-02  0.39443368153E-02  0.21204490753E-01  0.22037373784E-01  0.00000000000E+00 0.  1.
     999901    1    3    3    0    0 -0.37795747121E-01  0.10758399093E+00  0.41405857740E-01  0.88832273339E+00  0.88000000000E+00 0.  1.
        -11    1    4    4    0    0  0.14942894785E-01 -0.36326869650E-01 -0.11951168020E-01  0.41061211638E-01  0.51100000000E-03 0.  1.
         11    1    4    4    0    0  0.18329842021E-01 -0.75201458092E-01 -0.50659180473E-01  0.92508681186E-01  0.51100000000E-03 0. -1.
</event>
<event>
 8    1  0.1128298E+005  0.1043930E+01  0.7957747E-01            NaN
         13   -1    0    0    0    0  0.00000000000E+00  0.00000000000E+00  0.74505805969E-08  0.10566000000E+00  0.10566000000E+00 0. -1.
     999900   -1    0    0    0    0 -0.00000000000E+00 -0.00000000000E+00 -0.74505805969E-08  0.93827000000E+00  0.93827000000E+00 0.  1.
     999902    2    1    2    0    0  0.19076330757E-01 -0.70652584749E-02  0.11277166179E-01  0.10206706202E+01  0.10204055645E+01 0.  0.
     999903    2    3    3    0    0  0.16574810743E-01 -0.59654363183E-01 -0.11288680720E+00  0.13039618844E+00  0.20648663888E-01 0.  0.
         14    1    1    2    0    0 -0.19076330757E-01  0.70652584749E-02 -0.11277166179E-01  0.23259379817E-01  0.00000000000E+00 0.  1.
     999901    1    3    3    0    0  0.25015200137E-02  0.52589104708E-01  0.12416397338E+00  0.89027443175E+00  0.88000000000E+00 0. -1.
        -11    1    4    4    0    0  0.14565033438E-01 -0.32580372780E-01 -0.46108607834E-01  0.58308539057E-01  0.51100000000E-03 0.  1.
         11    1    4    4    0    0  0.20097773050E-02 -0.27073990403E-01 -0.66778199369E-01  0.72087649379E-01  0.51100000000E-03 0. -1.
</event>
<event>
 7    1  0.1128298E+005  0.1043930E+01  0.7957747E-01            NaN
         13   -1    0    0    0    0  0.00000000000E+00  0.00000000000E+00  0.74505805969E-08  0.10566000000E+00  0.10566000000E+00 0.  1.
     999900   -1    0    0    0    0 -0.00000000000E+00 -0.00000000000E+00 -0.74505805969E-08  0.93827000000E+00  0.93827000000E+00 0. -1.
     999903    2    1    2    0    0  0.74216380603E-01  0.38144246237E-01  0.63989235883E-01  0.10696849414E+00  0.19610756201E-01 0.  0.
         14    1    1    2    0    0 -0.22411291173E-02 -0.79640865864E-02 -0.52792015050E-01  0.53436375138E-01  0.00000000000E+00 0. -1.
     999901    1    1    2    0    0 -0.71975251486E-01 -0.30180159650E-01 -0.11197220832E-01  0.88352513072E+00  0.88000000000E+00 0.  1.
        -11    1    3    3    0    0  0.24651254587E-01  0.90532192317E-02  0.99745933628E-02  0.28096241118E-01  0.51100000000E-03 0. -1.
         11    1    3    3    0    0  0.49565126016E-01  0.29091027005E-01  0.54014642520E-01  0.78872253022E-01  0.51100000000E-03 0.  1.
</event>
<event>
 8    1  0.1307520E+005  0.1043930E+01  0.7957747E-01            NaN
         13   -1    0    0    0    0  0.00000000000E+00  0.00000000000E+00  0.74505805969E-08  0.10566000000E+00  0.10566000000E+00 0. -1.
     999900   -1    0    0    0    0 -0.00000000000E+00 -0.00000000000E+00 -0.74505805969E-08  0.93827000000E+00  0.93827000000E+00 0.  1.
     999902    2    1    2    0    0  0.11428875590E-01  0.17939085820E-01  0.12320947115E-01  0.10193487931E+01  0.10190523667E+01 0.  0.
     999903    2    3    3    0    0 -0.99387027129E-01 -0.30656403576E-01  0.73725155887E-01  0.12894879151E+00  0.19359648240E-01 0.  0.
         14    1    1    2    0    0 -0.11428875590E-01 -0.17939085820E-01 -0.12320947115E-01  0.24581206950E-01  0.00000000000E+00 0.  1.
     999901    1    3    3    0    0  0.11081590272E+00  0.48595489396E-01 -0.61404208772E-01  0.89040000154E+00  0.88000000000E+00 0.  1.
        -11    1    4    4    0    0 -0.55093704683E-01 -0.11984344449E-01  0.49915973881E-01  0.75304756669E-01  0.51100000000E-03 0.  1.
         11    1    4    4    0    0 -0.44293322446E-01 -0.18672059127E-01  0.23809182007E-01  0.53644034842E-01  0.51100000000E-03 0. -1.
</event>
<event>
 8    1  0.1128298E+005  0.1043930E+01  0.7957747E-01            NaN
         13   -1    0    0    0    0  0.00000000000E+00  0.00000000000E+00  0.74505805969E-08  0.10566000000E+00  0.10566000000E+00 0.  1.
     999900   -1    0    0    0    0 -0.00000000000E+00 -0.00000000000E+00 -0.74505805969E-08  0.93827000000E+00  0.93827000000E+00 0.  1.
     999902    2    1    2    0    0  0.18443240853E-01  0.15958289323E-01 -0.56611661653E-02  0.10188926492E+01  0.10185849801E+01 0.  0.
     999903    2    3    3    0    0  0.95489143199E-02  0.52319064027E-01  0.11662010461E+00  0.12964919316E+00  0.19498673314E-01 0.  0.
         14    1    1    2    0    0 -0.18443240853E-01 -0.15958289323E-01  0.56611661653E-02  0.25037350771E-01  0.00000000000E+00 0.  1.
     999901    1    3    3    0    0  0.88943265335E-02 -0.36360774704E-01 -0.12228127078E+00  0.88924345607E+00  0.88000000000E+00 0. -1.
        -11    1    4    4    0    0 -0.58241299161E-02  0.16969965132E-01  0.32830450875E-01  0.37416571616E-01  0.51100000000E-03 0. -1.
         11    1    4    4    0    0  0.15373044236E-01  0.35349098895E-01  0.83789653739E-01  0.92232621542E-01  0.51100000000E-03 0.  1.
</event>
<event>
 8    1  0.1128298E+005  0.1043930E+01  0.7957747E-01            NaN
         13   -1    0    0    0    0  0.00000000000E+00  0.00000000000E+00  0.74505805969E-08  0.10566000000E+00  0.10566000000E+00 0. -1.
     999900   -1    0    0    0    0 -0.00000000000E+00 -0.00000000000E+00 -0.74505805969E-08  0.93827000000E+00  0.93827000000E+00 0.  1.
     999902    2    1    2    0    0  0.44590450034E-03 -0.14742808299E-01  0.19312554343E-01  0.10196293008E+01  0.10193396819E+01 0.  0.
     999903    2    3    3    0    0  0.26130378443E-01  0.47988825437E-01 -0.11294971274E+00  0.12716739270E+00  0.20692610140E-01 0.  0.
         14    1    1    2    0    0 -0.44590450034E-03  0.14742808299E-01 -0.19312554343E-01  0.24300699221E-01  0.00000000000E+00 0.  1.
     999901    1    3    3    0    0 -0.25684473943E-01 -0.62731633737E-01  0.13226226708E+00  0.89246190808E+00  0.88000000000E+00 0. -1.
        -11    1    4    4    0    0  0.32626934045E-02  0.27328511996E-01 -0.56585628120E-01  0.62926045219E-01  0.51100000000E-03 0.  1.
         11    1    4    4    0    0  0.22867685038E-01  0.20660313441E-01 -0.56364084620E-01  0.64241347484E-01  0.51100000000E-03 0. -1.
</event>
<event>
 8    1  0.1128298E+005  0.1043930E+01  0.7957747E-01            NaN
         13   -1    0    0    0    0  0.00000000000E+00  0.00000000000E+00  0.74505805969E-08  0.10566000000E+00  0.10566000000E+00 0. -1.
     999900   -1    0    0    0    0 -0.00000000000E+00 -0.00000000000E+00 -0.74505805969E-08  0.93827000000E+00  0.93827000000E+00 0.  1.
     999902    2    1    2    0    0  0.15309795175E-01  0.15037825181E-01  0.10702535771E-01  0.10199493769E+01  0.10196674267E+01 0.  0.
     999903    2    3    3    0    0 -0.11065160745E+00  0.54095553718E-01 -0.32533788222E-01  0.12907275194E+00  0.20765855460E-01 0.  0.
         14    1    1    2    0    0 -0.15309795175E-01 -0.15037825181E-01 -0.10702535771E-01  0.23980623144E-01  0.00000000000E+00 0.  1.
     999901    1    3    3    0    0  0.12596140263E+00 -0.39057728538E-01  0.43236323992E-01  0.89087662492E+00  0.88000000000E+00 0. -1.
        -11    1    4    4    0    0 -0.54859610093E-01  0.15331295722E-01 -0.14422439519E-01  0.58761325127E-01  0.51100000000E-03 0.  1.
         11    1    4    4    0    0 -0.55791997361E-01  0.38764257996E-01 -0.18111348703E-01  0.70311426812E-01  0.51100000000E-03 0. -1.
</event>
<event>
 8    1  0.1128298E+005  0.1043930E+01  0.7957747E-01            NaN
         13   -1    0    0    0    0  0.00000000000E+00  0.00000000000E+00  0.74505805969E-08  0.10566000000E+00  0.10566000000E+00 0.  1.
     999900   -1    0    0    0    0 -0.00000000000E+00 -0.00000000000E+00 -0.74505805969E-08  0.93827000000E+00  0.93827000000E+00 0. -1.
     999902    2    1    2    0    0  0.14181746804E-01 -0.11160109583E-01  0.15529352271E-01  0.10201217920E+01  0.10198439291E+01 0.  0.
     999903    2    3    3    0    0  0.84036012914E-01 -0.94201599185E-01 -0.33206003506E-01  0.13211805188E+00  0.20409512681E-01 0.  0.
         14    1    1    2    0    0 -0.14181746804E-01  0.11160109583E-01 -0.15529352271E-01  0.23808208044E-01  0.00000000000E+00 0.  1.
     999901    1    3    3    0    0 -0.69854266111E-01  0.83041489601E-01  0.48735355776E-01  0.88800374008E+00  0.88000000000E+00 0.  1.
        -11    1    4    4    0    0  0.30983732703E-01 -0.37051364159E-01 -0.26812173234E-02  0.48376082164E-01  0.51100000000E-03 0.  1.
         11    1    4    4    0    0  0.53052280212E-01 -0.57150235026E-01 -0.30524786182E-01  0.83741969714E-01  0.51100000000E-03 0. -1.
</event>
<event>
 8    1  0.1128298E+005  0.1043930E+01  0.7957747E-01            NaN
         13   -1    0    0    0    0  0.00000000000E+00  0.00000000000E+00  0.74505805969E-08  0.10566000000E+00  0.10566000000E+00 0.  1.
     999900   -1    0    0    0    0 -0.00000000000E+00 -0.00000000000E+00 -0.74505805969E-08  0.93827000000E+00  0.93827000000E+00 0.  1.
     999902    2    1    2    0    0  0.39314019295E-02  0.40645545548E-03  0.23581844279E-01  0.10200192387E+01  0.10197389483E+01 0.  0.
     999903    2    3    3    0    0  0.10428507649E+00  0.12787926928E-01 -0.72237569236E-01  0.12906159612E+00  0.19993022019E-01 0.  0.
         14    1    1    2    0    0 -0.39314019295E-02 -0.40645545548E-03 -0.23581844279E-01  0.23910761317E-01  0.00000000000E+00 0. -1.
     999901    1    3    3    0    0 -0.10035367457E+00 -0.12381471472E-01  0.95819413514E-01  0.89095764256E+00  0.88000000000E+00 0. -1.
        -11    1    4    4    0    0  0.44815352643E-01  0.12705315683E-01 -0.23531854777E-01  0.52190518194E-01  0.51100000000E-03 0.  1.
         11    1    4    4    0    0  0.59469723851E-01  0.82611244969E-04 -0.48705714459E-01  0.76871077926E-01  0.51100000000E-03 0. -1.
</event>
<event>
 8    1  0.1136190E+005  0.1043930E+01  0.7957747E-01            NaN
         13   -1    0    0    0    0  0.00000000000E+00  0.00000000000E+00  0.74505805969E-08  0.10566000000E+00  0.10566000000E+00 0. -1.
     999900   -1    0    0    0    0 -0.00000000000E+00 -0.00000000000E+00 -0.74505805969E-08  0.93827000000E+00  0.93827000000E+00 0.  1.
     999902    2    1    2    0    0 -0.11687296477E-01 -0.13359028039E-01  0.14030916968E-01  0.10213042810E+01  0.10210536280E+01 0.  0.
     999903    2    3    3    0    0 -0.10564159917E+00 -0.37967013808E-01  0.70804425590E-01  0.13414240443E+00  0.19475019168E-01 0.  0.
         14    1    1    2    0    0  0.11687296477E-01  0.13359028039E-01 -0.14030916968E-01  0.22625718995E-01  0.00000000000E+00 0.  1.
     999901    1    3    3    0    0  0.93954302693E-01  0.24607985769E-01 -0.56773508622E-01  0.88716187657E+00  0.88000000000E+00 0. -1.
        -11    1    4    4    0    0 -0.41581286706E-01 -0.84055331428E-02  0.35130202717E-01  0.55082199080E-01  0.51100000000E-03 0.  1.
         11    1    4    4    0    0 -0.64060312465E-01 -0.29561480665E-01  0.35674222874E-01  0.79060205355E-01  0.51100000000E-03 0. -1.
</event>
<event>
 8    1  0.1128298E+005  0.1043930E+01  0.7957747E-01            NaN
         13   -1    0    0    0    0  0.00000000000E+00  0.00000000000E+00  0.74505805969E-08  0.10566000000E+00  0.10566000000E+00 0.  1.
     999900   -1    0    0    0    0 -0.00000000000E+00 -0.00000000000E+00 -0.74505805969E-08  0.93827000000E+00  0.93827000000E+00 0.  1.
     999902    2    1    2    0    0 -0.13270698486E-01  0.18224932118E-01 -0.57610637766E-02  0.10206609337E+01  0.10203956547E+01 0.  0.
     999903    2    3    3    0    0  0.10396475192E+00 -0.53493820230E-01  0.49063409237E-01  0.12830817103E+00  0.19634413228E-01 0.  0.
         14    1    1    2    0    0  0.13270698486E-01 -0.18224932118E-01  0.57610637766E-02  0.23269066265E-01  0.00000000000E+00 0. -1.
     999901    1    3    3    0    0 -0.11723545040E+00  0.71718752349E-01 -0.54824473014E-01  0.89235276271E+00  0.88000000000E+00 0.  1.
        -11    1    4    4    0    0  0.53114712949E-01 -0.37601627197E-01  0.23266112037E-01  0.69113154970E-01  0.51100000000E-03 0. -1.
         11    1    4    4    0    0  0.50850038966E-01 -0.15892193033E-01  0.25797297200E-01  0.59195016058E-01  0.51100000000E-03 0.  1.
</event>
<event>
 8    1  0.1128298E+005  0.1043930E+01  0.7957747E-01            NaN
         13   -1    0    0    0    0  0.00000000000E+00  0.00000000000E+00  0.74505805969E-08  0.10566000000E+00  0.10566000000E+00 0.  1.
     999900   -1    0    0    0    0 -0.00000000000E+00 -0.00000000000E+00 -0.74505805969E-08  0.93827000000E+00  0.93827000000E+00 0. -1.
     999902    2    1    2    0    0  0.14195573448E-01  0.10067706751E-01  0.17696687147E-01  0.10191097308E+01  0.10188074390E+01 0.  0.
     999903    2    3    3    0    0 -0.48927012442E-01 -0.11009194631E+00 -0.35474656908E-01  0.12711758127E+00  0.19655508049E-01 0.  0.
         14    1    1    2    0    0 -0.14195573448E-01 -0.10067706751E-01 -0.17696687147E-01  0.24820269151E-01  0.00000000000E+00 0. -1.
     999901    1    3    3    0    0  0.63122585890E-01  0.12015965306E+00  0.53171344055E-01  0.89199214957E+00  0.88000000000E+00 0. -1.
        -11    1    4    4    0    0 -0.28076505138E-01 -0.79631269641E-01 -0.30920220099E-01  0.89920800582E-01  0.51100000000E-03 0.  1.
         11    1    4    4    0    0 -0.20850507305E-01 -0.30460676673E-01 -0.45544368089E-02  0.37196780692E-01  0.51100000000E-03 0. -1.
</event>
<event>
 8    1  0.1128298E+005  0.1043930E+01  0.7957747E-01            NaN
         13   -1    0    0    0    0  0.00000000000E+00  0.00000000000E+00  0.74505805969E-08  0.10566000000E+00  0.10566000000E+00 0. -1.
     999900   -1    0    0    0    0 -0.00000000000E+00 -0.00000000000E+00 -0.74505805969E-08  0.93827000000E+00  0.93827000000E+00 0. -1.
     999902    2    1    2    0    0 -0.19374204562E-01  0.15318648760E-01  0.10576295939E-01  0.10170621970E+01  0.10167072508E+01 0.  0.
     999903    2    3    3    0    0  0.17801664563E-01  0.11041197367E+00 -0.59985013686E-01  0.12835319845E+00  0.19199960829E-01 0.  0.
         14    1    1    2    0    0  0.19374204562E-01 -0.15318648760E-01 -0.10576295939E-01  0.26867803000E-01  0.00000000000E+00 0.  1.
     999901    1    3    3    0    0 -0.37175869125E-01 -0.95093324906E-01  0.70561309624E-01  0.88870899855E+00  0.88000000000E+00 0.  1.
        -11    1    4    4    0    0  0.93136051517E-02  0.33811632137E-01 -0.28118406788E-01  0.44954150309E-01  0.51100000000E-03 0.  1.
         11    1    4    4    0    0  0.84880594113E-02  0.76600341529E-01 -0.31866606897E-01  0.83399048142E-01  0.51100000000E-03 0. -1.
</event>
<event>
 8    1  0.1128298E+005  0.1043930E+01  0.7957747E-01            NaN
         13   -1    0    0    0    0  0.00000000000E+00  0.00000000000E+00  0.74505805969E-08  0.10566000000E+00  0.10566000000E+00 0. -1.
     999900   -1    0    0    0    0 -0.00000000000E+00 -0.00000000000E+00 -0.74505805969E-08  0.93827000000E+00  0.93827000000E+00 0.  1.
     999902    2    1    2    0    0 -0.86972448098E-02  0.16520924825E-01  0.14469123989E-01  0.10203092766E+01  0.10200358236E+01 0.  0.
     999903    2    3    3    0    0  0.37703280490E-01  0.12222169118E+00 -0.25176368434E-01  0.13188515164E+00  0.20004113134E-01 0.  0.
         14    1    1    2    0    0  0.86972448098E-02 -0.16520924825E-01 -0.14469123989E-01  0.23620723388E-01  0.00000000000E+00 0.  1.
     999901    1    3    3    0    0 -0.46400525300E-01 -0.10570076635E+00  0.39645492423E-01  0.88842412497E+00  0.88000000000E+00 0. -1.
        -11    1    4    4    0    0  0.22182830843E-01  0.62526842513E-01 -0.22808203722E-01  0.70158102147E-01  0.51100000000E-03 0.  1.
         11    1    4    4    0    0  0.15520449647E-01  0.59694848666E-01 -0.23681647122E-02  0.61727049497E-01  0.51100000000E-03 0. -1.
</event>
<event>
 8    1  0.1128298E+005  0.1043930E+01  0.7957747E-01            NaN
         13   -1    0    0    0    0  0.00000000000E+00  0.00000000000E+00  0.74505805969E-08  0.10566000000E+00  0.10566000000E+00 0.  1.
     999900   -1    0    0    0    0 -0.00000000000E+00 -0.00000000000E+00 -0.74505805969E-08  0.93827000000E+00  0.93827000000E+00 0.  1.
     999902    2    1    2    0    0 -0.14510968206E-02  0.23672917818E-01  0.18133470336E-02  0.10201434293E+01  0.10198660771E+01 0.  0.
     999903    2    3    3    0    0 -0.11378289546E+00  0.62045152488E-01 -0.15161736623E-01  0.13201111094E+00  0.20022659886E-01 0.  0.
         14    1    1    2    0    0  0.14510968206E-02 -0.23672917818E-01 -0.18133470336E-02  0.23786570738E-01  0.00000000000E+00 0. -1.
     999901    1    3    3    0    0  0.11233179864E+00 -0.38372234670E-01  0.16975083656E-01  0.88813231832E+00  0.88000000000E+00 0.  1.
        -11    1    4    4    0    0 -0.85146152941E-01  0.44742241011E-01 -0.24581351309E-02  0.96218704214E-01  0.51100000000E-03 0. -1.
         11    1    4    4    0    0 -0.28636742516E-01  0.17302911477E-01 -0.12703601492E-01  0.35792406728E-01  0.51100000000E-03 0.  1.
</event>
<event>
 8    1  0.1128298E+005  0.1043930E+01  0.7957747E-01            NaN
         13   -1    0    0    0    0  0.00000000000E+00  0.00000000000E+00  0.74505805969E-08  0.10566000000E+00  0.10566000000E+00 0.  1.
     999900   -1    0    0    0    0 -0.00000000000E+00 -0.00000000000E+00 -0.74505805969E-08  0.93827000000E+00  0.93827000000E+00 0.  1.
     999902    2    1    2    0    0  0.13757045303E-02 -0.23086694558E-01  0.31950625784E-02  0.10205826992E+01  0.10203156127E+01 0.  0.
     999903    2    3    3    0    0 -0.11508541096E+00  0.18440828089E-01 -0.54295221393E-01  0.13008123415E+00  0.19708892799E-01 0.  0.
         14    1    1    2    0    0 -0.13757045303E-02  0.23086694558E-01 -0.31950625784E-02  0.23347300774E-01  0.00000000000E+00 0.  1.
     999901    1    3    3    0    0  0.11646111549E+00 -0.41527522647E-01  0.57490283971E-01  0.89050146508E+00  0.88000000000E+00 0. -1.
        -11    1    4    4    0    0 -0.65865294602E-01  0.19970738820E-01 -0.34685091688E-01  0.77073887591E-01  0.51100000000E-03 0. -1.
         11    1    4    4    0    0 -0.49220116354E-01 -0.15299107308E-02 -0.19610129705E-01  0.53007346555E-01  0.51100000000E-03 0.  1.
</event>
<event>
 8    1  0.1128298E+005  0.1043930E+01  0.7957747E-01            NaN
         13   -1    0    0    0    0  0.00000000000E+00  0.00000000000E+00  0.74505805969E-08  0.10566000000E+00  0.10566000000E+00 0.  1.
     999900   -1    0    0    0    0 -0.00000000000E+00 -0.00000000000E+00 -0.74505805969E-08  0.93827000000E+00  0.93827000000E+00 0.  1.
     999902    2    1    2    0    0  0.11615417860E-01 -0.20592419195E-01 -0.62725986067E-02  0.10194696003E+01  0.10191761157E+01 0.  0.
     999903    2    3    3    0    0 -0.91287619776E-01 -0.86725418139E-01 -0.29087674183E-01  0.13071590192E+00  0.19642468010E-01 0.  0.
         14    1    1    2    0    0 -0.11615417860E-01  0.20592419195E-01  0.62725986067E-02  0.24460399704E-01  0.00000000000E+00 0.  1.
     999901    1    3    3    0    0  0.10290303764E+00  0.66132998944E-01  0.22815075576E-01  0.88875369838E+00  0.88000000000E+00 0.  1.
        -11    1    4    4    0    0 -0.26981990091E-01 -0.26251117978E-01 -0.18053016944E-01  0.41753101995E-01  0.51100000000E-03 0. -1.
         11    1    4    4    0    0 -0.64305629685E-01 -0.60474300161E-01 -0.11034657239E-01  0.88962799925E-01  0.51100000000E-03 0.  1.
</event>
<event>
 8    1  0.1128298E+005  0.1043930E+01  0.7957747E-01            NaN
         13   -1    0    0    0    0  0.00000000000E+00  0.00000000000E+00  0.74505805969E-08  0.10566000000E+00  0.10566000000E+00 0.  1.
     999900   -1    0    0    0    0 -0.00000000000E+00 -0.00000000000E+00 -0.74505805969E-08  0.93827000000E+00  0.93827000000E+00 0.  1.
     999902    2    1    2    0    0 -0.11961779292E-01 -0.17727340727E-01 -0.93646895443E-02  0.10205839043E+01  0.10203168457E+01 0.  0.
     999903    2    3    3    0    0 -0.96107946955E-01  0.54802397785E-01  0.65952495379E-01  0.13040761906E+00  0.20405273615E-01 0.  0.
         14    1    1    2    0    0  0.11961779292E-01  0.17727340727E-01  0.93646895443E-02  0.23346095677E-01  0.00000000000E+00 0.  1.
     999901    1    3    3    0    0  0.84146167662E-01 -0.72529738512E-01 -0.75317184923E-01  0.89017628526E+00  0.88000000000E+00 0.  1.
        -11    1    4    4    0    0 -0.53298144164E-01  0.22641182265E-01  0.43097463336E-01  0.72187033272E-01  0.51100000000E-03 0.  1.
         11    1    4    4    0    0 -0.42809802791E-01  0.32161215521E-01  0.22855032042E-01  0.58220585787E-01  0.51100000000E-03 0. -1.
</event>
<event>
 8    1  0.1128298E+005  0.1043930E+01  0.7957747E-01            NaN
         13   -1    0    0    0    0  0.00000000000E+00  0.00000000000E+00  0.74505805969E-08  0.10566000000E+00  0.10566000000E+00 0. -1.
     999900   -1    0    0    0    0 -0.00000000000E+00 -0.00000000000E+00 -0.74505805969E-08  0.93827000000E+00  0.93827000000E+00 0.  1.
     999902    2    1    2    0    0 -0.13543050028E-01 -0.14514608018E-01  0.11967228538E-01  0.10207502112E+01  0.10204869872E+01 0.  0.
     999903    2    3    3    0    0 -0.98936093073E-01 -0.57104161940E-01  0.66784354306E-01  0.13389579294E+00  0.20462100678E-01 0.  0.
         14    1    1    2    0    0  0.13543050028E-01  0.14514608018E-01 -0.11967228538E-01  0.23179788801E-01  0.00000000000E+00 0.  1.
     999901    1    3    3    0    0  0.85393043046E-01  0.42589553921E-01 -0.54817125769E-01  0.88685441826E+00  0.88000000000E+00 0.  1.
        -11    1    4    4    0    0 -0.50296670848E-01 -0.36912970068E-01  0.27450990611E-01  0.68162603121E-01  0.51100000000E-03 0.  1.
         11    1    4    4    0    0 -0.48639422225E-01 -0.20191191872E-01  0.39333363695E-01  0.65733189822E-01  0.51100000000E-03 0. -1.
</event>
<event>
 8    1  0.1128298E+005  0.1043930E+01  0.7957747E-01            NaN
         13   -1    0    0    0    0  0.00000000000E+00  0.00000000000E+00  0.74505805969E-08  0.10566000000E+00  0.10566000000E+00 0.  1.
     999900   -1    0    0    0    0 -0.00000000000E+00 -0.00000000000E+00 -0.74505805969E-08  0.93827000000E+00  0.93827000000E+00 0.  1.
     999902    2    1    2    0    0 -0.20139820346E-01 -0.67520926380E-03 -0.13266800010E-01  0.10198037435E+01  0.10195183171E+01 0.  0.
     999903    2    3    3    0    0 -0.52434524052E-01 -0.39119585745E-02 -0.12001585001E+00  0.13275877049E+00  0.21363617602E-01 0.  0.
         14    1    1    2    0    0  0.20139820346E-01  0.67520926380E-03  0.13266800010E-01  0.24126256519E-01  0.00000000000E+00 0.  1.
     999901    1    3    3    0    0  0.32294703706E-01  0.32367493107E-02  0.10674905000E+00  0.88704497299E+00  0.88000000000E+00 0. -1.
        -11    1    4    4    0    0 -0.22784650656E-01 -0.28955569665E-02 -0.28813385312E-01  0.36851008803E-01  0.51100000000E-03 0. -1.
         11    1    4    4    0    0 -0.29649873396E-01 -0.10164016080E-02 -0.91202464694E-01  0.95907761687E-01  0.51100000000E-03 0.  1.
</event>
<event>
 8    1  0.1128298E+005  0.1043930E+01  0.7957747E-01            NaN
         13   -1    0    0    0    0  0.00000000000E+00  0.00000000000E+00  0.74505805969E-08  0.10566000000E+00  0.10566000000E+00 0. -1.
     999900   -1    0    0    0    0 -0.00000000000E+00 -0.00000000000E+00 -0.74505805969E-08  0.93827000000E+00  0.93827000000E+00 0. -1.
     999902    2    1    2    0    0  0.98354432697E-02  0.21990717649E-01  0.18908555048E-02  0.10197659163E+01  0.10194795835E+01 0.  0.
     999903    2    3    3    0    0  0.41957572719E-01 -0.11211176337E+00 -0.40945556641E-01  0.12799786078E+00  0.19427515597E-01 0.  0.
         14    1    1    2    0    0 -0.98354432697E-02 -0.21990717649E-01 -0.18908555048E-02  0.24164083711E-01  0.00000000000E+00 0.  1.
     999901    1    3    3    0    0 -0.32122129450E-01  0.13410248102E+00  0.42836412146E-01  0.89176805551E+00  0.88000000000E+00 0.  1.
        -11    1    4    4    0    0  0.35180456151E-01 -0.71552374492E-01 -0.21970712948E-01  0.82706590662E-01  0.51100000000E-03 0.  1.
         11    1    4    4    0    0  0.67771165681E-02 -0.40559388877E-01 -0.18974843693E-01  0.45291270122E-01  0.51100000000E-03 0. -1.
</event>
<event>
 8    1  0.1128298E+005  0.1043930E+01  0.7957747E-01            NaN
         13   -1    0    0    0    0  0.00000000000E+00  0.00000000000E+00  0.74505805969E-08  0.10566000000E+00  0.10566000000E+00 0. -1.
     999900   -1    0    0    0    0 -0.00000000000E+00 -0.00000000000E+00 -0.74505805969E-08  0.93827000000E+00  0.93827000000E+00 0. -1.
     999902    2    1    2    0    0 -0.75041722662E-02 -0.20298119106E-01 -0.86410207721E-02  0.10206277795E+01  0.10203617353E+01 0.  0.
     999903    2    3    3    0    0  0.21055324525E-01  0.13307971839E-01 -0.12764056434E+00  0.13152378919E+00  0.19645983112E-01 0.  0.
         14    1    1    2    0    0  0.75041722662E-02  0.20298119106E-01  0.86410207721E-02  0.23302220509E-01  0.00000000000E+00 0. -1.
     999901    1    3    3    0    0 -0.28559496791E-01 -0.33606090945E-01  0.11899954357E+00  0.88910399030E+00  0.88000000000E+00 0.  1.
        -11    1    4    4    0    0  0.10405709266E-01  0.14915860118E-01 -0.10346768820E+00  0.10505515356E+00  0.51100000000E-03 0.  1.
         11    1    4    4    0    0  0.10649615258E-01 -0.16078882792E-02 -0.24172876140E-01  0.26468635623E-01  0.51100000000E-03 0. -1.
</event>
<event>
 8    1  0.1128298E+005  0.1043930E+01  0.7957747E-01            NaN
         13   -1    0    0    0    0  0.00000000000E+00  0.00000000000E+00  0.74505805969E-08  0.10566000000E+00  0.10566000000E+00 0. -1.
     999900   -1    0    0    0    0 -0.00000000000E+00 -0.00000000000E+00 -0.74505805969E-08  0.93827000000E+00  0.93827000000E+00 0.  1.
     999902    2    1    2    0    0  0.58427206158E-02  0.10879124309E-01 -0.20366962187E-01  0.10201118162E+01  0.10198337177E+01 0.  0.
     999903    2    3    3    0    0 -0.52423250108E-01  0.11860395551E+00 -0.10026962083E-01  0.13157004556E+00  0.19875651105E-01 0.  0.
         14    1    1    2    0    0 -0.58427206158E-02 -0.10879124309E-01  0.20366962187E-01  0.23818183782E-01  0.00000000000E+00 0. -1.
     999901    1    3    3    0    0  0.58265970724E-01 -0.10772483120E+00 -0.10340000104E-01  0.88854177066E+00  0.88000000000E+00 0.  1.
        -11    1    4    4    0    0 -0.25016556758E-01  0.77636683982E-01 -0.17507906958E-02  0.81588045697E-01  0.51100000000E-03 0.  1.
         11    1    4    4    0    0 -0.27406693351E-01  0.40967271524E-01 -0.82761713877E-02  0.49981999863E-01  0.51100000000E-03 0. -1.
</event>
<event>
 8    1  0.1128298E+005  0.1043930E+01  0.7957747E-01            NaN
         13   -1    0    0    0    0  0.00000000000E+00  0.00000000000E+00  0.74505805969E-08  0.10566000000E+00  0.10566000000E+00 0. -1.
     999900   -1    0    0    0    0 -0.00000000000E+00 -0.00000000000E+00 -0.74505805969E-08  0.93827000000E+00  0.93827000000E+00 0. -1.
     999902    2    1    2    0    0  0.14284642944E-01  0.50737770939E-02  0.17697692652E-01  0.10206275846E+01  0.10203615359E+01 0.  0.
     999903    2    3    3    0    0 -0.30251765110E-01  0.51130390722E-01  0.11703702171E+00  0.13272387046E+00  0.19709773989E-01 0.  0.
         14    1    1    2    0    0 -0.14284642944E-01 -0.50737770939E-02 -0.17697692652E-01  0.23302415395E-01  0.00000000000E+00 0.  1.
     999901    1    3    3    0    0  0.44536408054E-01 -0.46056613628E-01 -0.99339329057E-01  0.88790371415E+00  0.88000000000E+00 0. -1.
        -11    1    4    4    0    0 -0.31524191104E-01  0.38339839453E-01  0.95748178733E-01  0.10785032576E+00  0.51100000000E-03 0.  1.
         11    1    4    4    0    0  0.12724259945E-02  0.12790551269E-01  0.21288842977E-01  0.24873544700E-01  0.51100000000E-03 0. -1.
</event>
<event>
 8    1  0.1128298E+005  0.1043930E+01  0.7957747E-01            NaN
         13   -1    0    0    0    0  0.00000000000E+00  0.00000000000E+00  0.74505805969E-08  0.10566000000E+00  0.10566000000E+00 0.  1.
     999900   -1    0    0    0    0 -0.00000000000E+00 -0.00000000000E+00 -0.74505805969E-08  0.93827000000E+00  0.93827000000E+00 0.  1.
     999902    2    1    2    0    0 -0.34377837466E-02 -0.22108484765E-01  0.30222981917E-02  0.10213526277E+01  0.10211030566E+01 0.  0.
     999903    2    3    3    0    0  0.73923331719E-01  0.58614482364E-01  0.86576986477E-01  0.13035188380E+00  0.24407427321E-01 0.  0.
         14    1    1    2    0    0  0.34377837466E-02  0.22108484765E-01 -0.30222981917E-02  0.22577372346E-01  0.00000000000E+00 0. -1.
     999901    1    3    3    0    0 -0.77361115465E-01 -0.80722967129E-01 -0.83554688286E-01  0.89100074385E+00  0.88000000000E+00 0. -1.
        -11    1    4    4    0    0  0.26794564638E-01  0.19341872330E-01  0.46587657764E-01  0.57120291459E-01  0.51100000000E-03 0. -1.
         11    1    4    4    0    0  0.47128767081E-01  0.39272610034E-01  0.39989328713E-01  0.73231592345E-01  0.51100000000E-03 0.  1.
</event>
<event>
 8    1  0.1128298E+005  0.1043930E+01  0.7957747E-01            NaN
         13   -1    0    0    0    0  0.00000000000E+00  0.00000000000E+00  0.74505805969E-08  0.10566000000E+00  0.10566000000E+00 0. -1.
     999900   -1    0    0    0    0 -0.00000000000E+00 -0.00000000000E+00 -0.74505805969E-08  0.93827000000E+00  0.93827000000E+00 0.  1.
     999902    2    1    2    0    0 -0.91470168997E-02  0.62061459779E-02 -0.21023060662E-01  0.10201780896E+01  0.10199015547E+01 0.  0.
     999903    2    3    3    0    0  0.73378894438E-01 -0.10561275203E+00 -0.64477955902E-02  0.12915259599E+00  0.10015160592E-01 0.  0.
         14    1    1    2    0    0  0.91470168997E-02 -0.62061459779E-02  0.21023060662E-01  0.23751910358E-01  0.00000000000E+00 0. -1.
     999901    1    3    3    0    0 -0.82525911338E-01  0.11181889801E+00 -0.14575265072E-01  0.89102549366E+00  0.88000000000E+00 0.  1.
        -11    1    4    4    0    0  0.18089375175E-01 -0.30430024836E-01 -0.54528261045E-02  0.35821869567E-01  0.51100000000E-03 0. -1.
         11    1    4    4    0    0  0.55289519263E-01 -0.75182727193E-01 -0.99496948567E-03  0.93330726418E-01  0.51100000000E-03 0.  1.
</event>
<event>
 8    1  0.1128298E+005  0.1043930E+01  0.7957747E-01            NaN
         13   -1    0    0    0    0  0.00000000000E+00  0.00000000000E+00  0.74505805969E-08  0.10566000000E+00  0.10566000000E+00 0.  1.
     999900   -1    0    0    0    0 -0.00000000000E+00 -0.00000000000E+00 -0.74505805969E-08  0.93827000000E+00  0.93827000000E+00 0.  1.
     999902    2    1    2    0    0 -0.90980879766E-02 -0.12698177442E-01 -0.17347389534E-01  0.10205858179E+01  0.10203188035E+01 0.  0.
     999903    2    3    3    0    0  0.10721867774E+00 -0.29974166009E-01  0.62498490207E-01  0.12918051485E+00  0.19678634462E-01 0.  0.
         14    1    1    2    0    0  0.90980879766E-02  0.12698177442E-01  0.17347389534E-01  0.23344182119E-01  0.00000000000E+00 0.  1.
     999901    1    3    3    0    0 -0.11631676571E+00  0.17275988566E-01 -0.79845879740E-01  0.89140530303E+00  0.88000000000E+00 0.  1.
        -11    1    4    4    0    0  0.62758884596E-01 -0.11218223280E-01  0.26823013406E-01  0.69168354748E-01  0.51100000000E-03 0.  1.
         11    1    4    4    0    0  0.44459793141E-01 -0.18755942729E-01  0.35675476800E-01  0.60012160099E-01  0.51100000000E-03 0. -1.
</event>
<event>
 8    1  0.1128298E+005  0.1043930E+01  0.7957747E-01            NaN
         13   -1    0    0    0    0  0.00000000000E+00  0.00000000000E+00  0.74505805969E-08  0.10566000000E+00  0.10566000000E+00 0.  1.
     999900   -1    0    0    0    0 -0.00000000000E+00 -0.00000000000E+00 -0.74505805969E-08  0.93827000000E+00  0.93827000000E+00 0. -1.
     999902    2    1    2    0    0 -0.87143568119E-02 -0.16620870658E-01  0.12969343709E-01  0.10211177833E+01  0.10208629340E+01 0.  0.
     999903    2    3    3    0    0 -0.11441282746E+00  0.58990402892E-02  0.64525066315E-01  0.13300894668E+00  0.20069926549E-01 0.  0.
         14    1    1    2    0    0  0.87143568119E-02  0.16620870658E-01 -0.12969343709E-01  0.22812216734E-01  0.00000000000E+00 0. -1.
     999901    1    3    3    0    0  0.10569847064E+00 -0.22519910947E-01 -0.51555722607E-01  0.88810883658E+00  0.88000000000E+00 0. -1.
        -11    1    4    4    0    0 -0.77098848253E-01  0.32118865678E-02  0.32392429803E-01  0.83690377265E-01  0.51100000000E-03 0.  1.
         11    1    4    4    0    0 -0.37313979202E-01  0.26871537214E-02  0.32132636513E-01  0.49318569417E-01  0.51100000000E-03 0. -1.
</event>
<event>
 8    1  0.1128298E+005  0.1043930E+01  0.7957747E-01            NaN
         13   -1    0    0    0    0  0.00000000000E+00  0.00000000000E+00  0.74505805969E-08  0.10566000000E+00  0.10566000000E+00 0. -1.
     999900   -1    0    0    0    0 -0.00000000000E+00 -0.00000000000E+00 -0.74505805969E-08  0.93827000000E+00  0.93827000000E+00 0. -1.
     999902    2    1    2    0    0 -0.42758979248E-02 -0.10722435900E-01  0.19113866844E-01  0.10216007850E+01  0.10213567301E+01 0.  0.
     999903    2    3    3    0    0  0.11959687269E+00  0.20446575380E-01  0.46709778569E-01  0.13195057013E+00  0.22531647540E-01 0.  0.
         14    1    1    2    0    0  0.42758979248E-02  0.10722435900E-01 -0.19113866844E-01  0.22329214953E-01  0.00000000000E+00 0.  1.
     999901    1    3    3    0    0 -0.12387277061E+00 -0.31169011280E-01 -0.27595911725E-01  0.88965021492E+00  0.88000000000E+00 0.  1.
        -11    1    4    4    0    0  0.90960685862E-01  0.23675872264E-01  0.41107652537E-01  0.10258895417E+00  0.51100000000E-03 0.  1.
         11    1    4    4    0    0  0.28636186828E-01 -0.32292968846E-02  0.56021260320E-02  0.29361615955E-01  0.51100000000E-03 0. -1.
</event>
<event>
 8    1  0.1128298E+005  0.1043930E+01  0.7957747E-01            NaN
         13   -1    0    0    0    0  0.00000000000E+00  0.00000000000E+00  0.74505805969E-08  0.10566000000E+00  0.10566000000E+00 0.  1.
     999900   -1    0    0    0    0 -0.00000000000E+00 -0.00000000000E+00 -0.74505805969E-08  0.93827000000E+00  0.93827000000E+00 0. -1.
     999902    2    1    2    0    0  0.16944932939E-02 -0.19096122303E-01 -0.13813507581E-01  0.10203006499E+01  0.10200269947E+01 0.  0.
     999903    2    3    3    0    0 -0.86058810600E-01 -0.96516718342E-01  0.18277342517E-01  0.13197390050E+00  0.19011926853E-01 0.  0.
         14    1    1    2    0    0 -0.16944932939E-02  0.19096122303E-01  0.13813507581E-01  0.23629350102E-01  0.00000000000E+00 0. -1.
     999901    1    3    3    0    0  0.87753303893E-01  0.77420596038E-01 -0.32090850098E-01  0.88832674940E+00  0.88000000000E+00 0.  1.
        -11    1    4    4    0    0 -0.33830026159E-01 -0.41825568787E-01  0.16708996750E-01  0.56332056306E-01  0.51100000000E-03 0.  1.
         11    1    4    4    0    0 -0.52228784441E-01 -0.54691149555E-01  0.15683457670E-02  0.75641844195E-01  0.51100000000E-03 0. -1.
</event>
<event>
 8    1  0.1128298E+005  0.1043930E+01  0.7957747E-01            NaN
         13   -1    0    0    0    0  0.00000000000E+00  0.00000000000E+00  0.74505805969E-08  0.10566000000E+00  0.10566000000E+00 0.  1.
     999900   -1    0    0    0    0 -0.00000000000E+00 -0.00000000000E+00 -0.74505805969E-08  0.93827000000E+00  0.93827000000E+00 0. -1.
     999902    2    1    2    0    0 -0.10758939876E-02 -0.14370557368E-01  0.19796261148E-01  0.10194440362E+01  0.10191499304E+01 0.  0.
     999903    2    3    3    0    0  0.32465179897E-01  0.10380724715E+00 -0.62689802035E-01  0.12709043605E+00  0.19799878519E-01 0.  0.
         14    1    1    2    0    0  0.10758939876E-02  0.14370557368E-01 -0.19796261148E-01  0.24485963783E-01  0.00000000000E+00 0. -1.
     999901    1    3    3    0    0 -0.33541073885E-01 -0.11817780452E+00  0.82486063183E-01  0.89235360017E+00  0.88000000000E+00 0.  1.
        -11    1    4    4    0    0  0.40535647082E-02  0.41760070845E-01 -0.19015991784E-01  0.46067385083E-01  0.51100000000E-03 0. -1.
         11    1    4    4    0    0  0.28411615189E-01  0.62047176302E-01 -0.43673810251E-01  0.81023050964E-01  0.51100000000E-03 0.  1.
</event>
<event>
 8    1  0.1128298E+005  0.1043930E+01  0.7957747E-01            NaN
         13   -1    0    0    0    0  0.00000000000E+00  0.00000000000E+00  0.74505805969E-08  0.10566000000E+00  0.10566000000E+00 0. -1.
     999900   -1    0    0    0    0 -0.00000000000E+00 -0.00000000000E+00 -0.74505805969E-08  0.93827000000E+00  0.93827000000E+00 0. -1.
     999902    2    1    2    0    0  0.20155648878E-01 -0.60649301496E-02 -0.11282878084E-01  0.10200482727E+01  0.10197686707E+01 0.  0.
     999903    2    3    3    0    0 -0.86310223454E-01 -0.77513556680E-01  0.51566130007E-01  0.12853838158E+00  0.20130664011E-01 0.  0.
         14    1    1    2    0    0 -0.20155648878E-01  0.60649301496E-02  0.11282878084E-01  0.23881727267E-01  0.00000000000E+00 0. -1.
     999901    1    3    3    0    0  0.10646587233E+00  0.71448626531E-01 -0.62849008091E-01  0.89150989115E+00  0.88000000000E+00 0.  1.
        -11    1    4    4    0    0 -0.78490292678E-01 -0.61060182798E-01  0.41930938014E-01  0.10792375388E+00  0.51100000000E-03 0. -1.
         11    1    4    4    0    0 -0.78199307758E-02 -0.16453373882E-01  0.96351919929E-02  0.20614627699E-01  0.51100000000E-03 0.  1.
</event>
<event>
 8    1  0.1128298E+005  0.1043930E+01  0.7957747E-01            NaN
         13   -1    0    0    0    0  0.00000000000E+00  0.00000000000E+00  0.74505805969E-08  0.10566000000E+00  0.10566000000E+00 0.  1.
     999900   -1    0    0    0    0 -0.00000000000E+00 -0.00000000000E+00 -0.74505805969E-08  0.93827000000E+00  0.93827000000E+00 0.  1.
     999902    2    1    2    0    0  0.32342260108E-01 -0.26669048350E-02  0.12800462014E-01  0.10090446736E+01  0.10084414546E+01 0.  0.
     999903    2    3    3    0    0 -0.19154996552E-01  0.81551711867E-01  0.83707083491E-01  0.12069086356E+00  0.23276879493E-01 0.  0.
         14    1    1    2    0    0 -0.32342260108E-01  0.26669048350E-02 -0.12800462014E-01  0.34885326401E-01  0.00000000000E+00 0.  1.
     999901    1    3    3    0    0  0.51497256660E-01 -0.84218616702E-01 -0.70906621476E-01  0.88835381004E+00  0.88000000000E+00 0.  1.
        -11    1    4    4    0    0 -0.14886156233E-01  0.30535446333E-01  0.45616935025E-01  0.56878616476E-01  0.51100000000E-03 0.  1.
         11    1    4    4    0    0 -0.42688403182E-02  0.51016265535E-01  0.38090148466E-01  0.63812247084E-01  0.51100000000E-03 0. -1.
</event>
<event>
 8    1  0.1128298E+005  0.1043930E+01  0.7957747E-01            NaN
         13   -1    0    0    0    0  0.00000000000E+00  0.00000000000E+00  0.74505805969E-08  0.10566000000E+00  0.10566000000E+00 0.  1.
     999900   -1    0    0    0    0 -0.00000000000E+00 -0.00000000000E+00 -0.74505805969E-08  0.93827000000E+00  0.93827000000E+00 0. -1.
     999902    2    1    2    0    0  0.23456642417E-01  0.33256763555E-02 -0.12981543414E-02  0.10202032345E+01  0.10199272917E+01 0.  0.
     999903    2    3    3    0    0 -0.19393498796E-01 -0.79623585996E-01  0.98427693741E-01  0.12966297179E+00  0.20210198295E-01 0.  0.
         14    1    1    2    0    0 -0.23456642417E-01 -0.33256763555E-02  0.12981543414E-02  0.23726765506E-01  0.00000000000E+00 0.  1.
     999901    1    3    3    0    0  0.42850141213E-01  0.82949262351E-01 -0.99725848082E-01  0.89054026271E+00  0.88000000000E+00 0. -1.
        -11    1    4    4    0    0 -0.22371210565E-01 -0.65392260878E-01  0.87298173461E-01  0.11134563779E+00  0.51100000000E-03 0.  1.
         11    1    4    4    0    0  0.29777117692E-02 -0.14231325118E-01  0.11129520280E-01  0.18317333994E-01  0.51100000000E-03 0. -1.
</event>
<event>
 7    1  0.1128298E+005  0.1043930E+01  0.7957747E-01            NaN
         13   -1    0    0    0    0  0.00000000000E+00  0.00000000000E+00  0.74505805969E-08  0.10566000000E+00  0.10566000000E+00 0.  1.
     999900   -1    0    0    0    0 -0.00000000000E+00 -0.00000000000E+00 -0.74505805969E-08  0.93827000000E+00  0.93827000000E+00 0.  1.
     999903    2    1    2    0    0 -0.23621019862E-01  0.64398004427E-02 -0.10037470418E+00  0.10523257270E+00  0.19984731871E-01 0.  0.
         14    1    1    2    0    0 -0.78484573041E-02  0.12064575960E-01 -0.43902634657E-01  0.46201662361E-01  0.00000000000E+00 0. -1.
     999901    1    1    2    0    0  0.31469477166E-01 -0.18504376402E-01  0.14427733884E+00  0.89249576494E+00  0.88000000000E+00 0. -1.
        -11    1    3    3    0    0 -0.79000608001E-02 -0.72624436248E-02 -0.33888975745E-01  0.35551059704E-01  0.51100000000E-03 0.  1.
         11    1    3    3    0    0 -0.15720959062E-01  0.13702244067E-01 -0.66485728435E-01  0.69681512992E-01  0.51100000000E-03 0. -1.
</event>
<event>
 8    1  0.1128298E+005  0.1043930E+01  0.7957747E-01            NaN
         13   -1    0    0    0    0  0.00000000000E+00  0.00000000000E+00  0.74505805969E-08  0.10566000000E+00  0.10566000000E+00 0. -1.
     999900   -1    0    0    0    0 -0.00000000000E+00 -0.00000000000E+00 -0.74505805969E-08  0.93827000000E+00  0.93827000000E+00 0.  1.
     999902    2    1    2    0    0 -0.82859681960E-02  0.18283741037E-01 -0.12341126063E-01  0.10203661326E+01  0.10200940097E+01 0.  0.
     999903    2    3    3    0    0 -0.87777561667E-01  0.96650007360E-01 -0.17729467639E-01  0.13329836778E+00  0.20198925077E-01 0.  0.
         14    1    1    2    0    0  0.82859681960E-02 -0.18283741037E-01  0.12341126063E-01  0.23563867419E-01  0.00000000000E+00 0. -1.
     999901    1    3    3    0    0  0.79491593471E-01 -0.78366266323E-01  0.53883415763E-02  0.88706776480E+00  0.88000000000E+00 0. -1.
        -11    1    4    4    0    0 -0.39010803524E-01  0.56303900662E-01 -0.45872286637E-02  0.68653301516E-01  0.51100000000E-03 0.  1.
         11    1    4    4    0    0 -0.48766758143E-01  0.40346106698E-01 -0.13142238976E-01  0.64645066260E-01  0.51100000000E-03 0. -1.
</event>
<event>
 8    1  0.1128298E+005  0.1043930E+01  0.7957747E-01            NaN
         13   -1    0    0    0    0  0.00000000000E+00  0.00000000000E+00  0.74505805969E-08  0.10566000000E+00  0.10566000000E+00 0.  1.
     999900   -1    0    0    0    0 -0.00000000000E+00 -0.00000000000E+00 -0.74505805969E-08  0.93827000000E+00  0.93827000000E+00 0. -1.
     999902    2    1    2    0    0 -0.96310286740E-02  0.23541302851E-01  0.24262407888E-03  0.10184936378E+01  0.10181759582E+01 0.  0.
     999903    2    3    3    0    0 -0.40493662303E-01  0.85028761967E-01  0.89331002881E-01  0.13132400975E+00  0.19908300077E-01 0.  0.
         14    1    1    2    0    0  0.96310286740E-02 -0.23541302851E-01 -0.24262407888E-03  0.25436362155E-01  0.00000000000E+00 0.  1.
     999901    1    3    3    0    0  0.30862633629E-01 -0.61487459116E-01 -0.89088378802E-01  0.88716962810E+00  0.88000000000E+00 0. -1.
        -11    1    4    4    0    0 -0.17984704129E-01  0.48628493825E-01  0.60697098366E-01  0.79828433940E-01  0.51100000000E-03 0.  1.
         11    1    4    4    0    0 -0.22508958174E-01  0.36400268142E-01  0.28633904515E-01  0.51495575806E-01  0.51100000000E-03 0. -1.
</event>
<event>
 8    1  0.1128298E+005  0.1043930E+01  0.7957747E-01            NaN
         13   -1    0    0    0    0  0.00000000000E+00  0.00000000000E+00  0.74505805969E-08  0.10566000000E+00  0.10566000000E+00 0.  1.
     999900   -1    0    0    0    0 -0.00000000000E+00 -0.00000000000E+00 -0.74505805969E-08  0.93827000000E+00  0.93827000000E+00 0. -1.
     999902    2    1    2    0    0  0.49754320183E-02 -0.26824034892E-02  0.23615908387E-01  0.10196470566E+01  0.10193578658E+01 0.  0.
     999903    2    3    3    0    0  0.63411297983E-01 -0.97117274888E-01  0.60630745361E-01  0.13189551841E+00  0.16357955247E-01 0.  0.
         14    1    1    2    0    0 -0.49754320183E-02  0.26824034892E-02 -0.23615908387E-01  0.24282943421E-01  0.00000000000E+00 0. -1.
     999901    1    3    3    0    0 -0.58435865964E-01  0.94434871399E-01 -0.37014836974E-01  0.88775153817E+00  0.88000000000E+00 0. -1.
        -11    1    4    4    0    0  0.18627146126E-01 -0.25788948631E-01  0.88381094781E-02  0.33021413423E-01  0.51100000000E-03 0.  1.
         11    1    4    4    0    0  0.44784151857E-01 -0.71328326257E-01  0.51792635883E-01  0.98874104987E-01  0.51100000000E-03 0. -1.
</event>
<event>
 8    1  0.1128298E+005  0.1043930E+01  0.7957747E-01            NaN
         13   -1    0    0    0    0  0.00000000000E+00  0.00000000000E+00  0.74505805969E-08  0.10566000000E+00  0.10566000000E+00 0. -1.
     999900   -1    0    0    0    0 -0.00000000000E+00 -0.00000000000E+00 -0.74505805969E-08  0.93827000000E+00  0.93827000000E+00 0. -1.
     999902    2    1    2    0    0 -0.59096492441E-02 -0.42183217011E-02 -0.20620287001E-01  0.10220687460E+01  0.10218349216E+01 0.  0.
     999903    2    3    3    0    0  0.54628918238E-01  0.83764951377E-02  0.11535356406E+00  0.12948125124E+00  0.20111322760E-01 0.  0.
         14    1    1    2    0    0  0.59096492441E-02  0.42183217011E-02  0.20620287001E-01  0.21861254039E-01  0.00000000000E+00 0. -1.
     999901    1    3    3    0    0 -0.60538567482E-01 -0.12594816839E-01 -0.13597385106E+00  0.89258749472E+00  0.88000000000E+00 0. -1.
        -11    1    4    4    0    0  0.18969579244E-01 -0.61889248477E-02  0.46072679274E-01  0.50210562872E-01  0.51100000000E-03 0. -1.
         11    1    4    4    0    0  0.35659338994E-01  0.14565419985E-01  0.69280884782E-01  0.79270688366E-01  0.51100000000E-03 0.  1.
</event>
<event>
 8    1  0.1128298E+005  0.1043930E+01  0.7957747E-01            NaN
         13   -1    0    0    0    0  0.00000000000E+00  0.00000000000E+00  0.74505805969E-08  0.10566000000E+00  0.10566000000E+00 0.  1.
     999900   -1    0    0    0    0 -0.00000000000E+00 -0.00000000000E+00 -0.74505805969E-08  0.93827000000E+00  0.93827000000E+00 0.  1.
     999902    2    1    2    0    0 -0.79496791369E-02 -0.75337447670E-04 -0.22108725002E-01  0.10204353454E+01  0.10201648373E+01 0.  0.
     999903    2    3    3    0    0  0.89766669739E-01  0.53746047406E-01  0.71751932623E-01  0.12844036258E+00  0.20047301488E-01 0.  0.
         14    1    1    2    0    0  0.79496791369E-02  0.75337447670E-04  0.22108725002E-01  0.23494654611E-01  0.00000000000E+00 0.  1.
     999901    1    3    3    0    0 -0.97716348875E-01 -0.53821384853E-01 -0.93860657625E-01  0.89199498281E+00  0.88000000000E+00 0.  1.
        -11    1    4    4    0    0  0.38853646022E-01  0.30172484832E-01  0.23881503300E-01  0.54686122288E-01  0.51100000000E-03 0. -1.
         11    1    4    4    0    0  0.50913023717E-01  0.23573562574E-01  0.47870429324E-01  0.73754240292E-01  0.51100000000E-03 0.  1.
</event>
<event>
 8    1  0.1128298E+005  0.1043930E+01  0.7957747E-01            NaN
         13   -1    0    0    0    0  0.00000000000E+00  0.00000000000E+00  0.74505805969E-08  0.10566000000E+00  0.10566000000E+00 0.  1.
     999900   -1    0    0    0    0 -0.00000000000E+00 -0.00000000000E+00 -0.74505805969E-08  0.93827000000E+00  0.93827000000E+00 0.  1.
     999902    2    1    2    0    0  0.31129603524E-02 -0.21909282627E-01 -0.83212411647E-02  0.10202878715E+01  0.10200139168E+01 0.  0.
     999903    2    3    3    0    0 -0.11939722202E+00 -0.50332169069E-01 -0.20908803470E-02  0.13132475487E+00  0.21278994129E-01 0.  0.
         14    1    1    2    0    0 -0.31129603524E-02  0.21909282627E-01  0.83212411647E-02  0.23642128540E-01  0.00000000000E+00 0.  1.
     999901    1    3    3    0    0  0.12251018238E+00  0.28422886442E-01 -0.62303608177E-02  0.88896311659E+00  0.88000000000E+00 0.  1.
        -11    1    4    4    0    0 -0.74212348623E-01 -0.25673217707E-01  0.77628196971E-02  0.78912035117E-01  0.51100000000E-03 0. -1.
         11    1    4    4    0    0 -0.45184873400E-01 -0.24658951361E-01 -0.98537000441E-02  0.52412719754E-01  0.51100000000E-03 0.  1.
</event>
<event>
 8    1  0.1128298E+005  0.1043930E+01  0.7957747E-01            NaN
         13   -1    0    0    0    0  0.00000000000E+00  0.00000000000E+00  0.74505805969E-08  0.10566000000E+00  0.10566000000E+00 0. -1.
     999900   -1    0    0    0    0 -0.00000000000E+00 -0.00000000000E+00 -0.74505805969E-08  0.93827000000E+00  0.93827000000E+00 0. -1.
     999902    2    1    2    0    0  0.43887611168E-02  0.36790715320E-02 -0.23120111211E-01  0.10201111769E+01  0.10198330633E+01 0.  0.
     999903    2    3    3    0    0  0.46111294726E-01 -0.40601326741E-01  0.11023333254E+00  0.12798749464E+00  0.21323506924E-01 0.  0.
         14    1    1    2    0    0 -0.43887611168E-02 -0.36790715320E-02  0.23120111211E-01  0.23818823100E-01  0.00000000000E+00 0. -1.
     999901    1    3    3    0    0 -0.41722533609E-01  0.44280398273E-01 -0.13335344375E+00  0.89212368226E+00  0.88000000000E+00 0. -1.
        -11    1    4    4    0    0  0.25974919363E-01 -0.11901987764E-01  0.62854453274E-01  0.69045616559E-01  0.51100000000E-03 0. -1.
         11    1    4    4    0    0  0.20136375363E-01 -0.28699338978E-01  0.47378879268E-01  0.58941878085E-01  0.51100000000E-03 0.  1.
</event>
<event>
 7    1  0.1128298E+005  0.1043930E+01  0.7957747E-01            NaN
         13   -1    0    0    0    0  0.00000000000E+00  0.00000000000E+00  0.74505805969E-08  0.10566000000E+00  0.10566000000E+00 0. -1.
     999900   -1    0    0    0    0 -0.00000000000E+00 -0.00000000000E+00 -0.74505805969E-08  0.93827000000E+00  0.93827000000E+00 0. -1.
     999903    2    1    2    0    0  0.82862313769E-01 -0.42039831378E-02  0.57630194413E-01  0.10305083375E+00  0.20356780483E-01 0.  0.
         14    1    1    2    0    0  0.11652909754E-01  0.44684924427E-01 -0.28799694807E-01  0.54423847694E-01  0.00000000000E+00 0.  1.
     999901    1    1    2    0    0 -0.94515223523E-01 -0.40480941289E-01 -0.28830499606E-01  0.88645531855E+00  0.88000000000E+00 0. -1.
        -11    1    3    3    0    0  0.34409757142E-01  0.31137602579E-02  0.13478085099E-01  0.37089712704E-01  0.51100000000E-03 0.  1.
         11    1    3    3    0    0  0.48452556626E-01 -0.73177433957E-02  0.44152109314E-01  0.65961121048E-01  0.51100000000E-03 0. -1.
</event>
<event>
 8    1  0.1128298E+005  0.1043930E+01  0.7957747E-01            NaN
         13   -1    0    0    0    0  0.00000000000E+00  0.00000000000E+00  0.74505805969E-08  0.10566000000E+00  0.10566000000E+00 0.  1.
     999900   -1    0    0    0    0 -0.00000000000E+00 -0.00000000000E+00 -0.74505805969E-08  0.93827000000E+00  0.93827000000E+00 0. -1.
     999902    2    1    2    0    0  0.43745524403E-03  0.22377437847E-01  0.55615607443E-02  0.10208676487E+01  0.10206071154E+01 0.  0.
     999903    2    3    3    0    0  0.10136026208E-02 -0.27044659689E-01  0.12671853849E+00  0.13119248944E+00  0.20529010686E-01 0.  0.
         14    1    1    2    0    0 -0.43745524403E-03 -0.22377437847E-01 -0.55615607443E-02  0.23062351346E-01  0.00000000000E+00 0.  1.
     999901    1    3    3    0    0 -0.57614737675E-03  0.49422097536E-01 -0.12115697775E+00  0.88967515922E+00  0.88000000000E+00 0. -1.
        -11    1    4    4    0    0 -0.38574215815E-02 -0.25765359130E-01  0.78562769699E-01  0.82771392015E-01  0.51100000000E-03 0.  1.
         11    1    4    4    0    0  0.48710242022E-02 -0.12793005589E-02  0.48155768791E-01  0.48421097422E-01  0.51100000000E-03 0. -1.
</event>
<event>
 8    1  0.1128298E+005  0.1043930E+01  0.7957747E-01            NaN
         13   -1    0    0    0    0  0.00000000000E+00  0.00000000000E+00  0.74505805969E-08  0.10566000000E+00  0.10566000000E+00 0. -1.
     999900   -1    0    0    0    0 -0.00000000000E+00 -0.00000000000E+00 -0.74505805969E-08  0.93827000000E+00  0.93827000000E+00 0. -1.
     999902    2    1    2    0    0  0.92547703888E-02  0.13171947168E-01 -0.16884769952E-01  0.10206009104E+01  0.10203342451E+01 0.  0.
     999903    2    3    3    0    0 -0.21356349183E-01 -0.21123776969E-01 -0.12739008369E+00  0.13249919226E+00  0.20627528253E-01 0.  0.
         14    1    1    2    0    0 -0.92547703888E-02 -0.13171947168E-01  0.16884769952E-01  0.23329089641E-01  0.00000000000E+00 0.  1.
     999901    1    3    3    0    0  0.30611119572E-01  0.34295724136E-01  0.11050531374E+00  0.88810171810E+00  0.88000000000E+00 0.  1.
        -11    1    4    4    0    0 -0.19987454671E-01 -0.10250541690E-01 -0.57160933649E-01  0.61418282342E-01  0.51100000000E-03 0.  1.
         11    1    4    4    0    0 -0.13688945113E-02 -0.10873235278E-01 -0.70229150041E-01  0.71080909913E-01  0.51100000000E-03 0. -1.
</event>
<event>
 8    1  0.1128298E+005  0.1043930E+01  0.7957747E-01            NaN
         13   -1    0    0    0    0  0.00000000000E+00  0.00000000000E+00  0.74505805969E-08  0.10566000000E+00  0.10566000000E+00 0. -1.
     999900   -1    0    0    0    0 -0.00000000000E+00 -0.00000000000E+00 -0.74505805969E-08  0.93827000000E+00  0.93827000000E+00 0.  1.
     999902    2    1    2    0    0  0.62445995009E-02 -0.21918659605E-01 -0.82794020850E-02  0.10196818834E+01  0.10193935315E+01 0.  0.
     999903    2    3    3    0    0 -0.11184526967E+00 -0.64517016979E-01  0.36244496636E-02  0.13069282890E+00  0.19891431921E-01 0.  0.
         14    1    1    2    0    0 -0.62445995009E-02  0.21918659605E-01  0.82794020850E-02  0.24248116642E-01  0.00000000000E+00 0.  1.
     999901    1    3    3    0    0  0.11808986917E+00  0.42598357374E-01 -0.11903851749E-01  0.88898905445E+00  0.88000000000E+00 0. -1.
        -11    1    4    4    0    0 -0.29869197241E-01 -0.21516910296E-01 -0.71284608478E-02  0.37499632632E-01  0.51100000000E-03 0.  1.
         11    1    4    4    0    0 -0.81976072431E-01 -0.43000106683E-01  0.10752910511E-01  0.93193196272E-01  0.51100000000E-03 0. -1.
</event>
<event>
 8    1  0.1128298E+005  0.1043930E+01  0.7957747E-01            NaN
         13   -1    0    0    0    0  0.00000000000E+00  0.00000000000E+00  0.74505805969E-08  0.10566000000E+00  0.10566000000E+00 0.  1.
     999900   -1    0    0    0    0 -0.00000000000E+00 -0.00000000000E+00 -0.74505805969E-08  0.93827000000E+00  0.93827000000E+00 0.  1.
     999902    2    1    2    0    0  0.19209371129E-01 -0.19775697025E-01 -0.73972028313E-03  0.10163505635E+01  0.10159763002E+01 0.  0.
     999903    2    3    3    0    0  0.93207717430E-01  0.35351383691E-01  0.77841314013E-01  0.12804333666E+00  0.19960635748E-01 0.  0.
         14    1    1    2    0    0 -0.19209371129E-01  0.19775697025E-01  0.73972028313E-03  0.27579436508E-01  0.00000000000E+00 0.  1.
     999901    1    3    3    0    0 -0.73998346300E-01 -0.55127080716E-01 -0.78581034296E-01  0.88830722683E+00  0.88000000000E+00 0.  1.
        -11    1    4    4    0    0  0.28388102892E-01  0.18257667304E-02  0.25831357591E-01  0.38428348468E-01  0.51100000000E-03 0. -1.
         11    1    4    4    0    0  0.64819614538E-01  0.33525616961E-01  0.52009956422E-01  0.89614988197E-01  0.51100000000E-03 0.  1.
</event>
<event>
 8    1  0.1128298E+005  0.1043930E+01  0.7957747E-01            NaN
         13   -1    0    0    0    0  0.00000000000E+00  0.00000000000E+00  0.74505805969E-08  0.10566000000E+00  0.10566000000E+00 0. -1.
     999900   -1    0    0    0    0 -0.00000000000E+00 -0.00000000000E+00 -0.74505805969E-08  0.93827000000E+00  0.93827000000E+00 0. -1.
     999902    2    1    2    0    0  0.19410399422E-01  0.46043766050E-02 -0.12948141973E-01  0.10201472695E+01  0.10198700080E+01 0.  0.
     999903    2    3    3    0    0  0.48520130257E-01 -0.11904873188E+00 -0.16208675618E-01  0.13101955159E+00  0.19406136454E-01 0.  0.
         14    1    1    2    0    0 -0.19410399422E-01 -0.46043766050E-02  0.12948141973E-01  0.23782730503E-01  0.00000000000E+00 0. -1.
     999901    1    3    3    0    0 -0.29109730835E-01  0.12365310848E+00  0.32605336443E-02  0.88912771790E+00  0.88000000000E+00 0. -1.
        -11    1    4    4    0    0  0.26936351944E-01 -0.58793446148E-01 -0.17507122210E-01  0.66999976232E-01  0.51100000000E-03 0. -1.
         11    1    4    4    0    0  0.21583778314E-01 -0.60255285730E-01  0.12984465926E-02  0.64019575360E-01  0.51100000000E-03 0.  1.
</event>
<event>
 8    1  0.1128298E+005  0.1043930E+01  0.7957747E-01            NaN
         13   -1    0    0    0    0  0.00000000000E+00  0.00000000000E+00  0.74505805969E-08  0.10566000000E+00  0.10566000000E+00 0. -1.
     999900   -1    0    0    0    0 -0.00000000000E+00 -0.00000000000E+00 -0.74505805969E-08  0.93827000000E+00  0.93827000000E+00 0.  1.
     999902    2    1    2    0    0 -0.34908501271E-02  0.16777458742E-01 -0.15976065722E-01  0.10205013032E+01  0.10202323295E+01 0.  0.
     999903    2    3    3    0    0 -0.12148337660E+00  0.44958678435E-01 -0.17441600428E-01  0.13217784568E+00  0.19679428451E-01 0.  0.
         14    1    1    2    0    0  0.34908501271E-02 -0.16777458742E-01  0.15976065722E-01  0.23428696772E-01  0.00000000000E+00 0. -1.
     999901    1    3    3    0    0  0.11799252648E+00 -0.28181219692E-01  0.14655347057E-02  0.88832345755E+00  0.88000000000E+00 0. -1.
        -11    1    4    4    0    0 -0.62879238210E-01  0.16814765305E-01 -0.91785476198E-03  0.65097146700E-01  0.51100000000E-03 0.  1.
         11    1    4    4    0    0 -0.58604138394E-01  0.28143913130E-01 -0.16523745666E-01  0.67080698975E-01  0.51100000000E-03 0. -1.
</event>
<event>
 8    1  0.1128298E+005  0.1043930E+01  0.7957747E-01            NaN
         13   -1    0    0    0    0  0.00000000000E+00  0.00000000000E+00  0.74505805969E-08  0.10566000000E+00  0.10566000000E+00 0.  1.
     999900   -1    0    0    0    0 -0.00000000000E+00 -0.00000000000E+00 -0.74505805969E-08  0.93827000000E+00  0.93827000000E+00 0. -1.
     999902    2    1    2    0    0  0.14066867754E-01 -0.73434527254E-02  0.18434978858E-01  0.10196061123E+01  0.10193159337E+01 0.  0.
     999903    2    3    3    0    0 -0.65673301766E-01  0.39600836015E-01  0.10393804616E+00  0.13063308945E+00  0.19510967181E-01 0.  0.
         14    1    1    2    0    0 -0.14066867754E-01  0.73434527254E-02 -0.18434978858E-01  0.24323887679E-01  0.00000000000E+00 0. -1.
     999901    1    3    3    0    0  0.79740169520E-01 -0.46944288740E-01 -0.85503067304E-01  0.88897302287E+00  0.88000000000E+00 0. -1.
        -11    1    4    4    0    0 -0.60113672977E-01  0.40163979766E-01  0.10124468943E+00  0.12440879072E+00  0.51100000000E-03 0. -1.
         11    1    4    4    0    0 -0.55596287894E-02 -0.56314375131E-03  0.26933567325E-02  0.62242987275E-02  0.51100000000E-03 0.  1.
</event>
<event>
 8    1  0.1128298E+005  0.1043930E+01  0.7957747E-01            NaN
         13   -1    0    0    0    0  0.00000000000E+00  0.00000000000E+00  0.74505805969E-08  0.10566000000E+00  0.10566000000E+00 0. -1.
     999900   -1    0    0    0    0 -0.00000000000E+00 -0.00000000000E+00 -0.74505805969E-08  0.93827000000E+00  0.93827000000E+00 0. -1.
     999902    2    1    2    0    0  0.13434364949E-01 -0.16881115983E-01 -0.78768919363E-02  0.10209626391E+01  0.10207042720E+01 0.  0.
     999903    2    3    3    0    0 -0.70107766578E-01 -0.10042145761E+00  0.43758816352E-01  0.13156704505E+00  0.19886810970E-01 0.  0.
         14    1    1    2    0    0 -0.13434364949E-01  0.16881115983E-01  0.78768919363E-02  0.22967360863E-01  0.00000000000E+00 0. -1.
     999901    1    3    3    0    0  0.83542131527E-01  0.83540341626E-01 -0.51635708288E-01  0.88939559409E+00  0.88000000000E+00 0.  1.
        -11    1    4    4    0    0 -0.51993683057E-01 -0.79710386632E-01  0.41898015095E-01  0.10398458350E+00  0.51100000000E-03 0.  1.
         11    1    4    4    0    0 -0.18114083521E-01 -0.20711070977E-01  0.18608012570E-02  0.27582461550E-01  0.51100000000E-03 0. -1.
</event>
<event>
 8    1  0.1128298E+005  0.1043930E+01  0.7957747E-01            NaN
         13   -1    0    0    0    0  0.00000000000E+00  0.00000000000E+00  0.74505805969E-08  0.10566000000E+00  0.10566000000E+00 0.  1.
     999900   -1    0    0    0    0 -0.00000000000E+00 -0.00000000000E+00 -0.74505805969E-08  0.93827000000E+00  0.93827000000E+00 0. -1.
     999902    2    1    2    0    0 -0.12831103888E-01  0.14709939239E-02  0.22259109515E-01  0.10181954123E+01  0.10178701433E+01 0.  0.
     999903    2    3    3    0    0 -0.39399459025E-01 -0.88641239402E-01  0.85712150992E-01  0.13092297350E+00  0.19612890390E-01 0.  0.
         14    1    1    2    0    0  0.12831103888E-01 -0.14709939239E-02 -0.22259109515E-01  0.25734587747E-01  0.00000000000E+00 0. -1.
     999901    1    3    3    0    0  0.26568355137E-01  0.90112233326E-01 -0.63453041477E-01  0.88727243875E+00  0.88000000000E+00 0. -1.
        -11    1    4    4    0    0 -0.21872970050E-01 -0.60684295815E-01  0.66910118420E-01  0.92942109107E-01  0.51100000000E-03 0. -1.
         11    1    4    4    0    0 -0.17526488975E-01 -0.27956943587E-01  0.18802032572E-01  0.37980864398E-01  0.51100000000E-03 0.  1.
</event>
<event>
 8    1  0.1128298E+005  0.1043930E+01  0.7957747E-01            NaN
         13   -1    0    0    0    0  0.00000000000E+00  0.00000000000E+00  0.74505805969E-08  0.10566000000E+00  0.10566000000E+00 0. -1.
     999900   -1    0    0    0    0 -0.00000000000E+00 -0.00000000000E+00 -0.74505805969E-08  0.93827000000E+00  0.93827000000E+00 0.  1.
     999902    2    1    2    0    0 -0.19872262781E-01  0.10949829819E-01  0.57808821841E-02  0.10205158120E+01  0.10202471751E+01 0.  0.
     999903    2    3    3    0    0  0.49097077992E-01  0.10379869485E+00  0.59733148726E-01  0.13130912693E+00  0.22121158149E-01 0.  0.
         14    1    1    2    0    0  0.19872262781E-01 -0.10949829819E-01 -0.57808821841E-02  0.23414188005E-01  0.00000000000E+00 0.  1.
     999901    1    3    3    0    0 -0.68969340773E-01 -0.92848865030E-01 -0.53952266542E-01  0.88920668507E+00  0.88000000000E+00 0.  1.
        -11    1    4    4    0    0  0.14752509329E-01  0.23907007642E-01  0.25194933345E-01  0.37738936566E-01  0.51100000000E-03 0. -1.
         11    1    4    4    0    0  0.34344568663E-01  0.79891687207E-01  0.34538215382E-01  0.93570190361E-01  0.51100000000E-03 0.  1.
</event>
<event>
 8    1  0.1128298E+005  0.1043930E+01  0.7957747E-01            NaN
         13   -1    0    0    0    0  0.00000000000E+00  0.00000000000E+00  0.74505805969E-08  0.10566000000E+00  0.10566000000E+00 0.  1.
     999900   -1    0    0    0    0 -0.00000000000E+00 -0.00000000000E+00 -0.74505805969E-08  0.93827000000E+00  0.93827000000E+00 0.  1.
     999902    2    1    2    0    0  0.34818898675E-03  0.18672795132E-01  0.14002735132E-01  0.10205875257E+01  0.10203205509E+01 0.  0.
     999903    2    3    3    0    0  0.90601269306E-01 -0.61382022486E-01  0.68739926715E-01  0.13067148898E+00  0.19326609208E-01 0.  0.
         14    1    1    2    0    0 -0.34818898675E-03 -0.18672795132E-01 -0.14002735132E-01  0.23342474264E-01  0.00000000000E+00 0. -1.
     999901    1    3    3    0    0 -0.90253080319E-01  0.80054817617E-01 -0.54737191582E-01  0.88991603675E+00  0.88000000000E+00 0.  1.
        -11    1    4    4    0    0  0.96623420580E-02 -0.55649124260E-03  0.39360720693E-02  0.10460608055E-01  0.51100000000E-03 0. -1.
         11    1    4    4    0    0  0.80938927248E-01 -0.60825531243E-01  0.64803854646E-01  0.12021088093E+00  0.51100000000E-03 0.  1.
</event>
<event>
 8    1  0.1128298E+005  0.1043930E+01  0.7957747E-01            NaN
         13   -1    0    0    0    0  0.00000000000E+00  0.00000000000E+00  0.74505805969E-08  0.10566000000E+00  0.10566000000E+00 0. -1.
     999900   -1    0    0    0    0 -0.00000000000E+00 -0.00000000000E+00 -0.74505805969E-08  0.93827000000E+00  0.93827000000E+00 0. -1.
     999902    2    1    2    0    0  0.23777344561E-01 -0.22596941951E-01 -0.13095876273E-02  0.10111016750E+01  0.10105686015E+01 0.  0.
     999903    2    3    3    0    0 -0.59327161102E-01 -0.10665674434E+00 -0.12998563730E-01  0.12312135915E+00  0.97228217276E-02 0.  0.
         14    1    1    2    0    0 -0.23777344561E-01  0.22596941951E-01  0.13095876273E-02  0.32828324960E-01  0.00000000000E+00 0.  1.
     999901    1    3    3    0    0  0.83104505663E-01  0.84059802392E-01  0.11688976103E-01  0.88798031589E+00  0.88000000000E+00 0.  1.
        -11    1    4    4    0    0 -0.31466750896E-01 -0.52441266506E-01 -0.20871003573E-02  0.61195260875E-01  0.51100000000E-03 0.  1.
         11    1    4    4    0    0 -0.27860410206E-01 -0.54215477838E-01 -0.10911463373E-01  0.61926098278E-01  0.51100000000E-03 0. -1.
</event>
<event>
 8    1  0.1128298E+005  0.1043930E+01  0.7957747E-01            NaN
         13   -1    0    0    0    0  0.00000000000E+00  0.00000000000E+00  0.74505805969E-08  0.10566000000E+00  0.10566000000E+00 0. -1.
     999900   -1    0    0    0    0 -0.00000000000E+00 -0.00000000000E+00 -0.74505805969E-08  0.93827000000E+00  0.93827000000E+00 0.  1.
     999902    2    1    2    0    0  0.16861649743E-01  0.44157849608E-02 -0.15955746544E-01  0.10202995062E+01  0.10200258243E+01 0.  0.
     999903    2    3    3    0    0 -0.68696155991E-02  0.11574621052E+00  0.55432149187E-01  0.13010072601E+00  0.20226192848E-01 0.  0.
         14    1    1    2    0    0 -0.16861649743E-01 -0.44157849608E-02  0.15955746544E-01  0.23630493788E-01  0.00000000000E+00 0. -1.
     999901    1    3    3    0    0  0.23731265342E-01 -0.11133042556E+00 -0.71387895731E-01  0.89019878020E+00  0.88000000000E+00 0.  1.
        -11    1    4    4    0    0 -0.57481614026E-02  0.69938460562E-01  0.44146285367E-01  0.82907088105E-01  0.51100000000E-03 0.  1.
         11    1    4    4    0    0 -0.11214541965E-02  0.45807749960E-01  0.11285863819E-01  0.47193637909E-01  0.51100000000E-03 0. -1.
</event>
<event>
 8    1  0.1128298E+005  0.1043930E+01  0.7957747E-01            NaN
         13   -1    0    0    0    0  0.00000000000E+00  0.00000000000E+00  0.74505805969E-08  0.10566000000E+00  0.10566000000E+00 0.  1.
     999900   -1    0    0    0    0 -0.00000000000E+00 -0.00000000000E+00 -0.74505805969E-08  0.93827000000E+00  0.93827000000E+00 0.  1.
     999902    2    1    2    0    0  0.64970857209E-02  0.51855565591E-03 -0.22984262036E-01  0.10200394721E+01  0.10197596615E+01 0.  0.
     999903    2    3    3    0    0 -0.58232906811E-01 -0.11374526138E+00  0.92417608597E-02  0.12971104483E+00  0.20260530216E-01 0.  0.
         14    1    1    2    0    0 -0.64970857209E-02 -0.51855565591E-03  0.22984262036E-01  0.23890527918E-01  0.00000000000E+00 0. -1.
     999901    1    3    3    0    0  0.64729992532E-01  0.11426381704E+00 -0.32226022896E-01  0.89032842725E+00  0.88000000000E+00 0.  1.
        -11    1    4    4    0    0 -0.46428078802E-01 -0.69604634119E-01  0.69778936407E-02  0.83960250790E-01  0.51100000000E-03 0. -1.
         11    1    4    4    0    0 -0.11804828009E-01 -0.44140627265E-01  0.22638672191E-02  0.45750794042E-01  0.51100000000E-03 0.  1.
</event>
<event>
 8    1  0.1128298E+005  0.1043930E+01  0.7957747E-01            NaN
         13   -1    0    0    0    0  0.00000000000E+00  0.00000000000E+00  0.74505805969E-08  0.10566000000E+00  0.10566000000E+00 0. -1.
     999900   -1    0    0    0    0 -0.00000000000E+00 -0.00000000000E+00 -0.74505805969E-08  0.93827000000E+00  0.93827000000E+00 0.  1.
     999902    2    1    2    0    0  0.15369255101E-01 -0.17343025653E-01 -0.39479248472E-02  0.10204229659E+01  0.10201521694E+01 0.  0.
     999903    2    3    3    0    0  0.68960988014E-01  0.85100980007E-01  0.67069412850E-01  0.13002400455E+00  0.20251937041E-01 0.  0.
         14    1    1    2    0    0 -0.15369255101E-01  0.17343025653E-01  0.39479248472E-02  0.23507034091E-01  0.00000000000E+00 0. -1.
     999901    1    3    3    0    0 -0.53591732913E-01 -0.10244400566E+00 -0.71017337697E-01  0.89039896136E+00  0.88000000000E+00 0.  1.
        -11    1    4    4    0    0  0.84225374755E-02  0.64039225141E-02  0.13644554063E-01  0.17273804956E-01  0.51100000000E-03 0.  1.
         11    1    4    4    0    0  0.60538450538E-01  0.78697057492E-01  0.53424858787E-01  0.11275019960E+00  0.51100000000E-03 0. -1.
</event>
<event>
 8    1  0.1128298E+005  0.1043930E+01  0.7957747E-01            NaN
         13   -1    0    0    0    0  0.00000000000E+00  0.00000000000E+00  0.74505805969E-08  0.10566000000E+00  0.10566000000E+00 0.  1.
     999900   -1    0    0    0    0 -0.00000000000E+00 -0.00000000000E+00 -0.74505805969E-08  0.93827000000E+00  0.93827000000E+00 0. -1.
     999902    2    1    2    0    0  0.19180943351E-01  0.11683601439E-01  0.84581059996E-02  0.10199309440E+01  0.10196485551E+01 0.  0.
     999903    2    3    3    0    0  0.79420245719E-01 -0.50942140918E-01  0.90185526019E-01  0.13188244967E+00  0.18891116304E-01 0.  0.
         14    1    1    2    0    0 -0.19180943351E-01 -0.11683601439E-01 -0.84581059996E-02  0.23999055971E-01  0.00000000000E+00 0. -1.
     999901    1    3    3    0    0 -0.60239302368E-01  0.62625742357E-01 -0.81727420020E-01  0.88804849436E+00  0.88000000000E+00 0. -1.
        -11    1    4    4    0    0  0.11457274560E-01 -0.39949552188E-02  0.47389178742E-02  0.13036382595E-01  0.51100000000E-03 0.  1.
         11    1    4    4    0    0  0.67962971159E-01 -0.46947185699E-01  0.85446608145E-01  0.11884606707E+00  0.51100000000E-03 0. -1.
</event>
<event>
 8    1  0.1128298E+005  0.1043930E+01  0.7957747E-01            NaN
         13   -1    0    0    0    0  0.00000000000E+00  0.00000000000E+00  0.74505805969E-08  0.10566000000E+00  0.10566000000E+00 0. -1.
     999900   -1    0    0    0    0 -0.00000000000E+00 -0.00000000000E+00 -0.74505805969E-08  0.93827000000E+00  0.93827000000E+00 0.  1.
     999902    2    1    2    0    0 -0.20926269155E-01 -0.15493578460E-02  0.92790061474E-02  0.10209863907E+01  0.10207285638E+01 0.  0.
     999903    2    3    3    0    0  0.10176385958E+00 -0.58094919290E-01  0.51888888846E-01  0.12965824112E+00  0.19695175587E-01 0.  0.
         14    1    1    2    0    0  0.20926269155E-01  0.15493578460E-02 -0.92790061474E-02  0.22943609253E-01  0.00000000000E+00 0. -1.
     999901    1    3    3    0    0 -0.12269012874E+00  0.56545561444E-01 -0.42609882699E-01  0.89132814962E+00  0.88000000000E+00 0.  1.
        -11    1    4    4    0    0  0.20380082626E-01 -0.31709756239E-02  0.95185815366E-02  0.22721517769E-01  0.51100000000E-03 0.  1.
         11    1    4    4    0    0  0.81383776954E-01 -0.54923943666E-01  0.42370307310E-01  0.10693672335E+00  0.51100000000E-03 0. -1.
</event>
<event>
 8    1  0.1128298E+005  0.1043930E+01  0.7957747E-01            NaN
         13   -1    0    0    0    0  0.00000000000E+00  0.00000000000E+00  0.74505805969E-08  0.10566000000E+00  0.10566000000E+00 0. -1.
     999900   -1    0    0    0    0 -0.00000000000E+00 -0.00000000000E+00 -0.74505805969E-08  0.93827000000E+00  0.93827000000E+00 0. -1.
     999902    2    1    2    0    0  0.16751036875E-01  0.16616458672E-01  0.44205946539E-02  0.10199248840E+01  0.10196423508E+01 0.  0.
     999903    2    3    3    0    0  0.10131282993E+00 -0.64939993695E-01 -0.47197989917E-01  0.13061805845E+00  0.18759921426E-01 0.  0.
         14    1    1    2    0    0 -0.16751036875E-01 -0.16616458672E-01 -0.44205946539E-02  0.24005115960E-01  0.00000000000E+00 0. -1.
     999901    1    3    3    0    0 -0.84561793054E-01  0.81556452366E-01  0.51618584571E-01  0.88930682559E+00  0.88000000000E+00 0.  1.
        -11    1    4    4    0    0  0.30352755585E-01 -0.97456136866E-02 -0.11640816782E-01  0.33941663101E-01  0.51100000000E-03 0.  1.
         11    1    4    4    0    0  0.70960074343E-01 -0.55194380008E-01 -0.35557173135E-01  0.96676395349E-01  0.51100000000E-03 0. -1.
</event>
<event>
 8    1  0.1128298E+005  0.1043930E+01  0.7957747E-01            NaN
         13   -1    0    0    0    0  0.00000000000E+00  0.00000000000E+00  0.74505805969E-08  0.10566000000E+00  0.10566000000E+00 0.  1.
     999900   -1    0    0    0    0 -0.00000000000E+00 -0.00000000000E+00 -0.74505805969E-08  0.93827000000E+00  0.93827000000E+00 0. -1.
     999902    2    1    2    0    0 -0.25243386430E-02  0.23457432878E-01  0.35596167501E-02  0.10200701108E+01  0.10197910259E+01 0.  0.
     999903    2    3    3    0    0  0.79542888674E-01  0.38181731256E-01 -0.95686653940E-01  0.13057494102E+00  0.10438569780E-01 0.  0.
         14    1    1    2    0    0  0.25243386430E-02 -0.23457432878E-01 -0.35596167501E-02  0.23859889233E-01  0.00000000000E+00 0.  1.
     999901    1    3    3    0    0 -0.82067227317E-01 -0.14724298378E-01  0.99246270691E-01  0.88949516975E+00  0.88000000000E+00 0.  1.
        -11    1    4    4    0    0  0.40247273158E-01  0.21710869156E-01 -0.42574991585E-01  0.62482764549E-01  0.51100000000E-03 0. -1.
         11    1    4    4    0    0  0.39295615516E-01  0.16470862100E-01 -0.53111662355E-01  0.68092176469E-01  0.51100000000E-03 0.  1.
</event>
<event>
 8    1  0.1128298E+005  0.1043930E+01  0.7957747E-01            NaN
         13   -1    0    0    0    0  0.00000000000E+00  0.00000000000E+00  0.74505805969E-08  0.10566000000E+00  0.10566000000E+00 0.  1.
     999900   -1    0    0    0    0 -0.00000000000E+00 -0.00000000000E+00 -0.74505805969E-08  0.93827000000E+00  0.93827000000E+00 0.  1.
     999902    2    1    2    0    0  0.76820240266E-02  0.21133421856E-01  0.20554066059E-02  0.10213499267E+01  0.10211002953E+01 0.  0.
     999903    2    3    3    0    0 -0.54738094990E-01 -0.42122426528E-03  0.11799455358E+00  0.13129219836E+00  0.17846293861E-01 0.  0.
         14    1    1    2    0    0 -0.76820240266E-02 -0.21133421856E-01 -0.20554066059E-02  0.22580073269E-01  0.00000000000E+00 0. -1.
     999901    1    3    3    0    0  0.62420119016E-01  0.21554646121E-01 -0.11593914697E+00  0.89005772837E+00  0.88000000000E+00 0.  1.
        -11    1    4    4    0    0 -0.24083416207E-01  0.77224196221E-02  0.43424844203E-01  0.50255595868E-01  0.51100000000E-03 0.  1.
         11    1    4    4    0    0 -0.30654678783E-01 -0.81436438874E-02  0.74569709372E-01  0.81036602495E-01  0.51100000000E-03 0. -1.
</event>
<event>
 7    1  0.1128298E+005  0.1043930E+01  0.7957747E-01            NaN
         13   -1    0    0    0    0  0.00000000000E+00  0.00000000000E+00  0.74505805969E-08  0.10566000000E+00  0.10566000000E+00 0. -1.
     999900   -1    0    0    0    0 -0.00000000000E+00 -0.00000000000E+00 -0.74505805969E-08  0.93827000000E+00  0.93827000000E+00 0.  1.
     999903    2    1    2    0    0  0.71365175225E-01 -0.50937246417E-01  0.65023548106E-01  0.11392105600E+00  0.32593770642E-01 0.  0.
         14    1    1    2    0    0  0.47738414470E-02 -0.83690731182E-02 -0.43412429651E-01  0.44468753021E-01  0.00000000000E+00 0.  1.
     999901    1    1    2    0    0 -0.76139016672E-01  0.59306319535E-01 -0.21611118455E-01  0.88554019098E+00  0.88000000000E+00 0.  1.
        -11    1    3    3    0    0  0.46629777457E-02  0.15516127773E-02  0.14092883195E-01  0.14933899070E-01  0.51100000000E-03 0. -1.
         11    1    3    3    0    0  0.66702197480E-01 -0.52488859194E-01  0.50930664910E-01  0.98987156931E-01  0.51100000000E-03 0.  1.
</event>
<event>
 8    1  0.1128298E+005  0.1043930E+01  0.7957747E-01            NaN
         13   -1    0    0    0    0  0.00000000000E+00  0.00000000000E+00  0.74505805969E-08  0.10566000000E+00  0.10566000000E+00 0. -1.
     999900   -1    0    0    0    0 -0.00000000000E+00 -0.00000000000E+00 -0.74505805969E-08  0.93827000000E+00  0.93827000000E+00 0. -1.
     999902    2    1    2    0    0 -0.19890067685E-01 -0.52887989936E-02  0.12042502274E-01  0.10200844963E+01  0.10198057518E+01 0.  0.
     999903    2    3    3    0    0  0.42124184104E-01 -0.84893795607E-01  0.88338444831E-01  0.13103793182E+00  0.19643200356E-01 0.  0.
         14    1    1    2    0    0  0.19890067685E-01  0.52887989936E-02 -0.12042502274E-01  0.23845503734E-01  0.00000000000E+00 0.  1.
     999901    1    3    3    0    0 -0.62014251789E-01  0.79604996614E-01 -0.76295942556E-01  0.88904656445E+00  0.88000000000E+00 0. -1.
        -11    1    4    4    0    0  0.13684956488E-01 -0.10873505247E-01  0.15731641002E-01  0.23521411523E-01  0.51100000000E-03 0. -1.
         11    1    4    4    0    0  0.28439227616E-01 -0.74020290360E-01  0.72606803829E-01  0.10751652029E+00  0.51100000000E-03 0.  1.
</event>
<event>
 8    1  0.1128298E+005  0.1043930E+01  0.7957747E-01            NaN
         13   -1    0    0    0    0  0.00000000000E+00  0.00000000000E+00  0.74505805969E-08  0.10566000000E+00  0.10566000000E+00 0.  1.
     999900   -1    0    0    0    0 -0.00000000000E+00 -0.00000000000E+00 -0.74505805969E-08  0.93827000000E+00  0.93827000000E+00 0.  1.
     999902    2    1    2    0    0 -0.12186208379E-01 -0.17405537256E-01  0.10239173567E-01  0.10203440492E+01  0.10200714100E+01 0.  0.
     999903    2    3    3    0    0  0.97089406066E-01  0.78925859210E-01 -0.17887269556E-01  0.12792486813E+00  0.19727479621E-01 0.  0.
         14    1    1    2    0    0  0.12186208379E-01  0.17405537256E-01 -0.10239173567E-01  0.23585950843E-01  0.00000000000E+00 0. -1.
     999901    1    3    3    0    0 -0.10927561444E+00 -0.96331396467E-01  0.28126443123E-01  0.89241918102E+00  0.88000000000E+00 0.  1.
        -11    1    4    4    0    0  0.75509194704E-02  0.88206715439E-03  0.89180727530E-03  0.76714319738E-02  0.51100000000E-03 0.  1.
         11    1    4    4    0    0  0.89538486595E-01  0.78043792056E-01 -0.18779076831E-01  0.12025343616E+00  0.51100000000E-03 0. -1.
</event>
<event>
 8    1  0.1128298E+005  0.1043930E+01  0.7957747E-01            NaN
         13   -1    0    0    0    0  0.00000000000E+00  0.00000000000E+00  0.74505805969E-08  0.10566000000E+00  0.10566000000E+00 0. -1.
     999900   -1    0    0    0    0 -0.00000000000E+00 -0.00000000000E+00 -0.74505805969E-08  0.93827000000E+00  0.93827000000E+00 0.  1.
     999902    2    1    2    0    0 -0.19754673314E-01 -0.10564622273E-01 -0.43457765533E-02  0.10211101811E+01  0.10208551600E+01 0.  0.
     999903    2    3    3    0    0 -0.88594738263E-01 -0.62570345199E-01  0.74978186817E-01  0.13334003013E+00  0.19843371451E-01 0.  0.
         14    1    1    2    0    0  0.19754673314E-01  0.10564622273E-01  0.43457765533E-02  0.22819818916E-01  0.00000000000E+00 0. -1.
     999901    1    3    3    0    0  0.68840064948E-01  0.52005722927E-01 -0.79323963370E-01  0.88777015095E+00  0.88000000000E+00 0.  1.
        -11    1    4    4    0    0 -0.16631957756E-01 -0.20372166854E-01  0.23769532391E-01  0.35452771291E-01  0.51100000000E-03 0.  1.
         11    1    4    4    0    0 -0.71962780507E-01 -0.42198178346E-01  0.51208654426E-01  0.97887258839E-01  0.51100000000E-03 0. -1.
</event>
<event>
 8    1  0.1128298E+005  0.1043930E+01  0.7957747E-01            NaN
         13   -1    0    0    0    0  0.00000000000E+00  0.00000000000E+00  0.74505805969E-08  0.10566000000E+00  0.10566000000E+00 0. -1.
     999900   -1    0    0    0    0 -0.00000000000E+00 -0.00000000000E+00 -0.74505805969E-08  0.93827000000E+00  0.93827000000E+00 0.  1.
     999902    2    1    2    0    0 -0.28840800760E-01  0.55394454102E-02 -0.16956519921E-01  0.10100183381E+01  0.10094488806E+01 0.  0.
     999903    2    3    3    0    0 -0.26110883217E-02  0.64516157965E-01 -0.10332122369E+00  0.12343776507E+00  0.19810455848E-01 0.  0.
         14    1    1    2    0    0  0.28840800760E-01 -0.55394454102E-02  0.16956519921E-01  0.33911661884E-01  0.00000000000E+00 0.  1.
     999901    1    3    3    0    0 -0.26229712438E-01 -0.58976712555E-01  0.86364703769E-01  0.88658057304E+00  0.88000000000E+00 0. -1.
        -11    1    4    4    0    0  0.75835063179E-02  0.42520356261E-01 -0.69296599821E-01  0.81656415133E-01  0.51100000000E-03 0.  1.
         11    1    4    4    0    0 -0.10194594640E-01  0.21995801704E-01 -0.34024623868E-01  0.41781349941E-01  0.51100000000E-03 0. -1.
</event>
<event>
 8    1  0.1128298E+005  0.1043930E+01  0.7957747E-01            NaN
         13   -1    0    0    0    0  0.00000000000E+00  0.00000000000E+00  0.74505805969E-08  0.10566000000E+00  0.10566000000E+00 0. -1.
     999900   -1    0    0    0    0 -0.00000000000E+00 -0.00000000000E+00 -0.74505805969E-08  0.93827000000E+00  0.93827000000E+00 0.  1.
     999902    2    1    2    0    0 -0.43897701524E-02 -0.21711352324E-01 -0.68467839843E-02  0.10207452776E+01  0.10204819403E+01 0.  0.
     999903    2    3    3    0    0  0.12722914365E+00  0.16047956809E-01  0.73438760737E-02  0.13004292624E+00  0.20308575442E-01 0.  0.
         14    1    1    2    0    0  0.43897701524E-02  0.21711352324E-01  0.68467839843E-02  0.23184722397E-01  0.00000000000E+00 0. -1.
     999901    1    3    3    0    0 -0.13161891380E+00 -0.37759309133E-01 -0.14190660058E-01  0.89070235137E+00  0.88000000000E+00 0.  1.
        -11    1    4    4    0    0  0.11820378116E+00  0.18095429365E-01  0.25529990251E-02  0.11960918598E+00  0.51100000000E-03 0. -1.
         11    1    4    4    0    0  0.90253624881E-02 -0.20474725554E-02  0.47908770487E-02  0.10433740260E-01  0.51100000000E-03 0.  1.
</event>
<event>
 8    1  0.1128298E+005  0.1043930E+01  0.7957747E-01            NaN
         13   -1    0    0    0    0  0.00000000000E+00  0.00000000000E+00  0.74505805969E-08  0.10566000000E+00  0.10566000000E+00 0.  1.
     999900   -1    0    0    0    0 -0.00000000000E+00 -0.00000000000E+00 -0.74505805969E-08  0.93827000000E+00  0.93827000000E+00 0.  1.
     999902    2    1    2    0    0 -0.21702674997E-01 -0.57184232727E-02 -0.78292218839E-02  0.10201602044E+01  0.10198832480E+01 0.  0.
     999903    2    3    3    0    0  0.34511282597E-01 -0.16728180781E-01  0.12139869819E+00  0.12887962059E+00  0.20036267669E-01 0.  0.
         14    1    1    2    0    0  0.21702674997E-01  0.57184232727E-02  0.78292218839E-02  0.23769795583E-01  0.00000000000E+00 0.  1.
     999901    1    3    3    0    0 -0.56213957594E-01  0.11009757509E-01 -0.12922792007E+00  0.89128058383E+00  0.88000000000E+00 0.  1.
        -11    1    4    4    0    0  0.18524469342E-01 -0.62457288565E-03  0.35723796276E-01  0.40249183806E-01  0.51100000000E-03 0. -1.
         11    1    4    4    0    0  0.15986813255E-01 -0.16103607896E-01  0.85674901911E-01  0.88630436780E-01  0.51100000000E-03 0.  1.
</event>
<event>
 8    1  0.1128298E+005  0.1043930E+01  0.7957747E-01            NaN
         13   -1    0    0    0    0  0.00000000000E+00  0.00000000000E+00  0.74505805969E-08  0.10566000000E+00  0.10566000000E+00 0.  1.
     999900   -1    0    0    0    0 -0.00000000000E+00 -0.00000000000E+00 -0.74505805969E-08  0.93827000000E+00  0.93827000000E+00 0. -1.
     999902    2    1    2    0    0 -0.88199459984E-02 -0.11952332390E-01 -0.17616863035E-01  0.10208864855E+01  0.10206263825E+01 0.  0.
     999903    2    3    3    0    0 -0.70693662757E-01 -0.58621971999E-01  0.91060250329E-01  0.13082068622E+00  0.19696527580E-01 0.  0.
         14    1    1    2    0    0  0.88199459984E-02  0.11952332390E-01  0.17616863035E-01  0.23043514493E-01  0.00000000000E+00 0.  1.
     999901    1    3    3    0    0  0.61873716758E-01  0.46669639609E-01 -0.10867711336E+00  0.89006579928E+00  0.88000000000E+00 0. -1.
        -11    1    4    4    0    0 -0.13622262120E-01 -0.34402027006E-02  0.92843529060E-02  0.16848185355E-01  0.51100000000E-03 0. -1.
         11    1    4    4    0    0 -0.57071400637E-01 -0.55181769299E-01  0.81775897423E-01  0.11397250087E+00  0.51100000000E-03 0.  1.
</event>
<event>
 8    1  0.1128298E+005  0.1043930E+01  0.7957747E-01            NaN
         13   -1    0    0    0    0  0.00000000000E+00  0.00000000000E+00  0.74505805969E-08  0.10566000000E+00  0.10566000000E+00 0. -1.
     999900   -1    0    0    0    0 -0.00000000000E+00 -0.00000000000E+00 -0.74505805969E-08  0.93827000000E+00  0.93827000000E+00 0.  1.
     999902    2    1    2    0    0  0.17713286146E-01  0.12878741515E-01 -0.66076849929E-02  0.10210545986E+01  0.10207983196E+01 0.  0.
     999903    2    3    3    0    0 -0.11535639729E+00 -0.50997213563E-01  0.13581450423E-01  0.12853273360E+00  0.20697671936E-01 0.  0.
         14    1    1    2    0    0 -0.17713286146E-01 -0.12878741515E-01  0.66076849929E-02  0.22875401419E-01  0.00000000000E+00 0.  1.
     999901    1    3    3    0    0  0.13306968344E+00  0.63875955078E-01 -0.20189135416E-01  0.89252186498E+00  0.88000000000E+00 0.  1.
        -11    1    4    4    0    0 -0.99444641150E-01 -0.38339986287E-01  0.57404325043E-02  0.10673520922E+00  0.51100000000E-03 0. -1.
         11    1    4    4    0    0 -0.15911756139E-01 -0.12657227276E-01  0.78410179186E-02  0.21797524372E-01  0.51100000000E-03 0.  1.
</event>
<event>
 8    1  0.1128298E+005  0.1043930E+01  0.7957747E-01            NaN
         13   -1    0    0    0    0  0.00000000000E+00  0.00000000000E+00  0.74505805969E-08  0.10566000000E+00  0.10566000000E+00 0.  1.
     999900   -1    0    0    0    0 -0.00000000000E+00 -0.00000000000E+00 -0.74505805969E-08  0.93827000000E+00  0.93827000000E+00 0.  1.
     999902    2    1    2    0    0  0.18263585381E-01  0.13870674024E-01  0.51198544358E-02  0.10204317648E+01  0.10201611733E+01 0.  0.
     999903    2    3    3    0    0  0.10197259949E+00  0.14670272283E-01  0.81761291221E-01  0.13314277678E+00  0.20699331631E-01 0.  0.
         14    1    1    2    0    0 -0.18263585381E-01 -0.13870674024E-01 -0.51198544358E-02  0.23498235217E-01  0.00000000000E+00 0. -1.
     999901    1    3    3    0    0 -0.83709014113E-01 -0.79959825852E-03 -0.76641436785E-01  0.88728898800E+00  0.88000000000E+00 0.  1.
        -11    1    4    4    0    0  0.67765733847E-01  0.80069213039E-03  0.58343740298E-01  0.89426444325E-01  0.51100000000E-03 0.  1.
         11    1    4    4    0    0  0.34206865647E-01  0.13869580152E-01  0.23417550923E-01  0.43716332454E-01  0.51100000000E-03 0. -1.
</event>
<event>
 8    1  0.1128298E+005  0.1043930E+01  0.7957747E-01            NaN
         13   -1    0    0    0    0  0.00000000000E+00  0.00000000000E+00  0.74505805969E-08  0.10566000000E+00  0.10566000000E+00 0. -1.
     999900   -1    0    0    0    0 -0.00000000000E+00 -0.00000000000E+00 -0.74505805969E-08  0.93827000000E+00  0.93827000000E+00 0. -1.
     999902    2    1    2    0    0 -0.22237937631E-01 -0.40053591433E-03  0.82906439991E-02  0.10201935075E+01  0.10199173357E+01 0.  0.
     999903    2    3    3    0    0  0.43602994344E-01 -0.80703192918E-01  0.90495331337E-01  0.13028275035E+00  0.19234437376E-01 0.  0.
         14    1    1    2    0    0  0.22237937631E-01  0.40053591433E-03 -0.82906439991E-02  0.23736492517E-01  0.00000000000E+00 0.  1.
     999901    1    3    3    0    0 -0.65840931975E-01  0.80302657004E-01 -0.82204687338E-01  0.88991075714E+00  0.88000000000E+00 0.  1.
        -11    1    4    4    0    0  0.34728835653E-01 -0.51258130352E-01  0.50955382504E-01  0.80188528357E-01  0.51100000000E-03 0.  1.
         11    1    4    4    0    0  0.88741586907E-02 -0.29445062567E-01  0.39539948834E-01  0.50094221990E-01  0.51100000000E-03 0. -1.
</event>
<event>
 8    1  0.1128298E+005  0.1043930E+01  0.7957747E-01            NaN
         13   -1    0    0    0    0  0.00000000000E+00  0.00000000000E+00  0.74505805969E-08  0.10566000000E+00  0.10566000000E+00 0. -1.
     999900   -1    0    0    0    0 -0.00000000000E+00 -0.00000000000E+00 -0.74505805969E-08  0.93827000000E+00  0.93827000000E+00 0.  1.
     999902    2    1    2    0    0 -0.10946285011E-01  0.32299647960E-01 -0.82970312536E-03  0.10098158267E+01  0.10092394300E+01 0.  0.
     999903    2    3    3    0    0 -0.80221768298E-01 -0.84483892890E-01 -0.15927816873E-01  0.11927360925E+00  0.19985951203E-01 0.  0.
         14    1    1    2    0    0  0.10946285011E-01 -0.32299647960E-01  0.82970312536E-03  0.34114173318E-01  0.00000000000E+00 0.  1.
     999901    1    3    3    0    0  0.69275483287E-01  0.11678354085E+00  0.15098113747E-01  0.89054221744E+00  0.88000000000E+00 0.  1.
        -11    1    4    4    0    0 -0.44389856125E-01 -0.55086819772E-01 -0.16257755666E-02  0.70766668048E-01  0.51100000000E-03 0.  1.
         11    1    4    4    0    0 -0.35831912173E-01 -0.29397073118E-01 -0.14302041306E-01  0.48506941198E-01  0.51100000000E-03 0. -1.
</event>
<event>
 8    1  0.1128298E+005  0.1043930E+01  0.7957747E-01            NaN
         13   -1    0    0    0    0  0.00000000000E+00  0.00000000000E+00  0.74505805969E-08  0.10566000000E+00  0.10566000000E+00 0.  1.
     999900   -1    0    0    0    0 -0.00000000000E+00 -0.00000000000E+00 -0.74505805969E-08  0.93827000000E+00  0.93827000000E+00 0. -1.
     999902    2    1    2    0    0 -0.14795426868E-01  0.10124534235E-01  0.16214563286E-01  0.10197572279E+01  0.10194706866E+01 0.  0.
     999903    2    3    3    0    0  0.44874823788E-01 -0.47435189687E-01  0.11154926940E+00  0.13073396225E+00  0.19603120971E-01 0.  0.
         14    1    1    2    0    0  0.14795426868E-01 -0.10124534235E-01 -0.16214563286E-01  0.24172772126E-01  0.00000000000E+00 0. -1.
     999901    1    3    3    0    0 -0.59670250656E-01  0.57559723922E-01 -0.95334706112E-01  0.88902326562E+00  0.88000000000E+00 0.  1.
        -11    1    4    4    0    0  0.25090935687E-01 -0.34944411042E-01  0.57311439034E-01  0.71662605883E-01  0.51100000000E-03 0. -1.
         11    1    4    4    0    0  0.19783888100E-01 -0.12490778645E-01  0.54237830364E-01  0.59071356368E-01  0.51100000000E-03 0.  1.
</event>
<event>
 8    1  0.1128298E+005  0.1043930E+01  0.7957747E-01            NaN
         13   -1    0    0    0    0  0.00000000000E+00  0.00000000000E+00  0.74505805969E-08  0.10566000000E+00  0.10566000000E+00 0.  1.
     999900   -1    0    0    0    0 -0.00000000000E+00 -0.00000000000E+00 -0.74505805969E-08  0.93827000000E+00  0.93827000000E+00 0. -1.
     999902    2    1    2    0    0 -0.17349037889E-01  0.14783859700E-01 -0.61778812117E-02  0.10203139495E+01  0.10200406059E+01 0.  0.
     999903    2    3    3    0    0  0.14113181470E-01 -0.10440956609E+00  0.70677670308E-01  0.12840379722E+00  0.19790469399E-01 0.  0.
         14    1    1    2    0    0  0.17349037889E-01 -0.14783859700E-01  0.61778812117E-02  0.23616050465E-01  0.00000000000E+00 0.  1.
     999901    1    3    3    0    0 -0.31462219359E-01  0.11919342579E+00 -0.76855551520E-01  0.89191015231E+00  0.88000000000E+00 0.  1.
        -11    1    4    4    0    0  0.40866640552E-02 -0.83443298822E-01  0.59782808698E-01  0.10273135003E+00  0.51100000000E-03 0.  1.
         11    1    4    4    0    0  0.10026517414E-01 -0.20966267267E-01  0.10894861610E-01  0.25672447196E-01  0.51100000000E-03 0. -1.
</event>
<event>
 8    1  0.1128298E+005  0.1043930E+01  0.7957747E-01            NaN
         13   -1    0    0    0    0  0.00000000000E+00  0.00000000000E+00  0.74505805969E-08  0.10566000000E+00  0.10566000000E+00 0. -1.
     999900   -1    0    0    0    0 -0.00000000000E+00 -0.00000000000E+00 -0.74505805969E-08  0.93827000000E+00  0.93827000000E+00 0. -1.
     999902    2    1    2    0    0  0.21050019527E-01 -0.41803873562E-02 -0.19265052628E-02  0.10223826015E+01  0.10221555133E+01 0.  0.
     999903    2    3    3    0    0  0.90844257556E-01  0.89791945889E-01  0.34255911217E-01  0.13389444605E+00  0.20951910456E-01 0.  0.
         14    1    1    2    0    0 -0.21050019527E-01  0.41803873562E-02  0.19265052628E-02  0.21547398522E-01  0.00000000000E+00 0. -1.
     999901    1    3    3    0    0 -0.69794238029E-01 -0.93972333245E-01 -0.36182416480E-01  0.88848815543E+00  0.88000000000E+00 0.  1.
        -11    1    4    4    0    0  0.30311212478E-01  0.27688624366E-01  0.11756524739E-02  0.41073991782E-01  0.51100000000E-03 0. -1.
         11    1    4    4    0    0  0.60533045077E-01  0.62103321523E-01  0.33080258744E-01  0.92820454266E-01  0.51100000000E-03 0.  1.
</event>
<event>
 8    1  0.1128298E+005  0.1043930E+01  0.7957747E-01            NaN
         13   -1    0    0    0    0  0.00000000000E+00  0.00000000000E+00  0.74505805969E-08  0.10566000000E+00  0.10566000000E+00 0. -1.
     999900   -1    0    0    0    0 -0.00000000000E+00 -0.00000000000E+00 -0.74505805969E-08  0.93827000000E+00  0.93827000000E+00 0. -1.
     999902    2    1    2    0    0 -0.33366490019E-02  0.14623109932E-01  0.18071103034E-01  0.10204452531E+01  0.10201749758E+01 0.  0.
     999903    2    3    3    0    0 -0.98013798128E-02 -0.10982287171E+00 -0.61616831586E-01  0.12810072213E+00  0.21354879473E-01 0.  0.
         14    1    1    2    0    0  0.33366490019E-02 -0.14623109932E-01 -0.18071103034E-01  0.23484746869E-01  0.00000000000E+00 0.  1.
     999901    1    3    3    0    0  0.64647308109E-02  0.12444598164E+00  0.79687934620E-01  0.89234453101E+00  0.88000000000E+00 0.  1.
        -11    1    4    4    0    0 -0.10809570661E-01 -0.35720738295E-01 -0.28329060191E-01  0.46857387193E-01  0.51100000000E-03 0.  1.
         11    1    4    4    0    0  0.10081908478E-02 -0.74102133416E-01 -0.33287771395E-01  0.81243334932E-01  0.51100000000E-03 0. -1.
</event>
<event>
 8    1  0.1128298E+005  0.1043930E+01  0.7957747E-01            NaN
         13   -1    0    0    0    0  0.00000000000E+00  0.00000000000E+00  0.74505805969E-08  0.10566000000E+00  0.10566000000E+00 0.  1.
     999900   -1    0    0    0    0 -0.00000000000E+00 -0.00000000000E+00 -0.74505805969E-08  0.93827000000E+00  0.93827000000E+00 0.  1.
     999902    2    1    2    0    0  0.15788675409E-01  0.39532892416E-02 -0.15058032100E-01  0.10217567030E+01  0.10215160817E+01 0.  0.
     999903    2    3    3    0    0 -0.93163380101E-01  0.47304804252E-01 -0.77928378670E-01  0.13175525095E+00  0.19221187640E-01 0.  0.
         14    1    1    2    0    0 -0.15788675409E-01 -0.39532892416E-02  0.15058032100E-01  0.22173296952E-01  0.00000000000E+00 0.  1.
     999901    1    3    3    0    0  0.10895205551E+00 -0.43351515011E-01  0.62870346570E-01  0.89000145210E+00  0.88000000000E+00 0. -1.
        -11    1    4    4    0    0 -0.52174532100E-01  0.24506113176E-01 -0.54475954646E-01  0.79313442356E-01  0.51100000000E-03 0.  1.
         11    1    4    4    0    0 -0.40988848002E-01  0.22798691076E-01 -0.23452424024E-01  0.52441808597E-01  0.51100000000E-03 0. -1.
</event>
<event>
 8    1  0.1128298E+005  0.1043930E+01  0.7957747E-01            NaN
         13   -1    0    0    0    0  0.00000000000E+00  0.00000000000E+00  0.74505805969E-08  0.10566000000E+00  0.10566000000E+00 0. -1.
     999900   -1    0    0    0    0 -0.00000000000E+00 -0.00000000000E+00 -0.74505805969E-08  0.93827000000E+00  0.93827000000E+00 0.  1.
     999902    2    1    2    0    0  0.22253792143E-01 -0.31484020922E-02 -0.82416913930E-02  0.10199911367E+01  0.10197101793E+01 0.  0.
     999903    2    3    3    0    0  0.74735400643E-01 -0.25168172975E-02  0.10559133632E+00  0.13110831181E+00  0.21169427058E-01 0.  0.
         14    1    1    2    0    0 -0.22253792143E-01  0.31484020922E-02  0.82416913930E-02  0.23938863329E-01  0.00000000000E+00 0. -1.
     999901    1    3    3    0    0 -0.52481608501E-01 -0.63158479470E-03 -0.11383302771E+00  0.88888282486E+00  0.88000000000E+00 0.  1.
        -11    1    4    4    0    0  0.52869766399E-01  0.11209679495E-02  0.88566214097E-01  0.10315378892E+00  0.51100000000E-03 0.  1.
         11    1    4    4    0    0  0.21865634245E-01 -0.36377852469E-02  0.17025122222E-01  0.27954522892E-01  0.51100000000E-03 0. -1.
</event>
<event>
 8    1  0.1128298E+005  0.1043930E+01  0.7957747E-01            NaN
         13   -1    0    0    0    0  0.00000000000E+00  0.00000000000E+00  0.74505805969E-08  0.10566000000E+00  0.10566000000E+00 0.  1.
     999900   -1    0    0    0    0 -0.00000000000E+00 -0.00000000000E+00 -0.74505805969E-08  0.93827000000E+00  0.93827000000E+00 0.  1.
     999902    2    1    2    0    0 -0.21248540317E-01 -0.38118547575E-02  0.12832961262E-01  0.10188159482E+01  0.10185063676E+01 0.  0.
     999903    2    3    3    0    0 -0.94867312170E-01 -0.87703547105E-01 -0.11158484883E-01  0.13144165903E+00  0.21463430558E-01 0.  0.
         14    1    1    2    0    0  0.21248540317E-01  0.38118547575E-02 -0.12832961262E-01  0.25114051784E-01  0.00000000000E+00 0.  1.
     999901    1    3    3    0    0  0.73618771854E-01  0.83891692347E-01  0.23991446145E-01  0.88737428918E+00  0.88000000000E+00 0. -1.
        -11    1    4    4    0    0 -0.18857544737E-01 -0.24928259907E-01 -0.10103261269E-01  0.32853647358E-01  0.51100000000E-03 0. -1.
         11    1    4    4    0    0 -0.76009767433E-01 -0.62775287198E-01 -0.10552236138E-02  0.98588011675E-01  0.51100000000E-03 0.  1.
</event>
<event>
 8    1  0.1128298E+005  0.1043930E+01  0.7957747E-01            NaN
         13   -1    0    0    0    0  0.00000000000E+00  0.00000000000E+00  0.74505805969E-08  0.10566000000E+00  0.10566000000E+00 0. -1.
     999900   -1    0    0    0    0 -0.00000000000E+00 -0.00000000000E+00 -0.74505805969E-08  0.93827000000E+00  0.93827000000E+00 0. -1.
     999902    2    1    2    0    0  0.14865868290E-01  0.13637272671E-01  0.11917797968E-01  0.10204991837E+01  0.10202301606E+01 0.  0.
     999903    2    3    3    0    0 -0.18432790860E-03  0.11968278245E+00 -0.51357748630E-01  0.13174952636E+00  0.19907711098E-01 0.  0.
         14    1    1    2    0    0 -0.14865868290E-01 -0.13637272671E-01 -0.11917797968E-01  0.23430816339E-01  0.00000000000E+00 0.  1.
     999901    1    3    3    0    0  0.15050196198E-01 -0.10604550978E+00  0.63275546598E-01  0.88874965730E+00  0.88000000000E+00 0.  1.
        -11    1    4    4    0    0  0.60525699565E-02  0.70883159194E-01 -0.22045963677E-01  0.74480477280E-01  0.51100000000E-03 0.  1.
         11    1    4    4    0    0 -0.62368978651E-02  0.48799623255E-01 -0.29311784953E-01  0.57269049083E-01  0.51100000000E-03 0. -1.
</event>
<event>
 8    1  0.1128298E+005  0.1043930E+01  0.7957747E-01            NaN
         13   -1    0    0    0    0  0.00000000000E+00  0.00000000000E+00  0.74505805969E-08  0.10566000000E+00  0.10566000000E+00 0. -1.
     999900   -1    0    0    0    0 -0.00000000000E+00 -0.00000000000E+00 -0.74505805969E-08  0.93827000000E+00  0.93827000000E+00 0.  1.
     999902    2    1    2    0    0 -0.14991063100E-01  0.22622039091E-02  0.17612154676E-01  0.10206912924E+01  0.10204267131E+01 0.  0.
     999903    2    3    3    0    0 -0.96391064374E-01  0.80546456118E-01  0.39500366405E-01  0.13320412168E+00  0.20101994973E-01 0.  0.
         14    1    1    2    0    0  0.14991063100E-01 -0.22622039091E-02 -0.17612154676E-01  0.23238707617E-01  0.00000000000E+00 0.  1.
     999901    1    3    3    0    0  0.81400001274E-01 -0.78284252208E-01 -0.21888211729E-01  0.88748717070E+00  0.88000000000E+00 0.  1.
        -11    1    4    4    0    0 -0.90569938135E-01  0.70398522322E-01  0.39989739390E-01  0.12148376853E+00  0.51100000000E-03 0. -1.
         11    1    4    4    0    0 -0.58211262390E-02  0.10147933795E-01 -0.48937298480E-03  0.11720353148E-01  0.51100000000E-03 0.  1.
</event>
<event>
 8    1  0.1128298E+005  0.1043930E+01  0.7957747E-01            NaN
         13   -1    0    0    0    0  0.00000000000E+00  0.00000000000E+00  0.74505805969E-08  0.10566000000E+00  0.10566000000E+00 0. -1.
     999900   -1    0    0    0    0 -0.00000000000E+00 -0.00000000000E+00 -0.74505805969E-08  0.93827000000E+00  0.93827000000E+00 0. -1.
     999902    2    1    2    0    0  0.46344037445E-02 -0.10691018070E-01 -0.20969689343E-01  0.10199403473E+01  0.10196581822E+01 0.  0.
     999903    2    3    3    0    0 -0.65351699286E-01  0.10643689848E+00 -0.27497682385E-01  0.12940139917E+00  0.19721602675E-01 0.  0.
         14    1    1    2    0    0 -0.46344037445E-02  0.10691018070E-01  0.20969689343E-01  0.23989652699E-01  0.00000000000E+00 0.  1.
     999901    1    3    3    0    0  0.69986103031E-01 -0.11712791655E+00  0.65279930413E-02  0.89053894814E+00  0.88000000000E+00 0. -1.
        -11    1    4    4    0    0 -0.34081762986E-01  0.70019874829E-01 -0.11032106441E-01  0.78653149542E-01  0.51100000000E-03 0. -1.
         11    1    4    4    0    0 -0.31269936300E-01  0.36417023650E-01 -0.16465575943E-01  0.50748249624E-01  0.51100000000E-03 0.  1.
</event>
<event>
 8    1  0.1128298E+005  0.1043930E+01  0.7957747E-01            NaN
         13   -1    0    0    0    0  0.00000000000E+00  0.00000000000E+00  0.74505805969E-08  0.10566000000E+00  0.10566000000E+00 0. -1.
     999900   -1    0    0    0    0 -0.00000000000E+00 -0.00000000000E+00 -0.74505805969E-08  0.93827000000E+00  0.93827000000E+00 0. -1.
     999902    2    1    2    0    0  0.18308094941E-02 -0.23370465256E-01 -0.64070989308E-02  0.10196281189E+01  0.10193384714E+01 0.  0.
     999903    2    3    3    0    0  0.97876579816E-01 -0.39112437245E-01  0.74395299252E-01  0.13058277288E+00  0.20188917702E-01 0.  0.
         14    1    1    2    0    0 -0.18308094941E-02  0.23370465256E-01  0.64070989308E-02  0.24301881129E-01  0.00000000000E+00 0.  1.
     999901    1    3    3    0    0 -0.96045770322E-01  0.15741971989E-01 -0.80802398183E-01  0.88904534599E+00  0.88000000000E+00 0. -1.
        -11    1    4    4    0    0  0.77565472333E-01 -0.33525801375E-01  0.49369217613E-01  0.97867066088E-01  0.51100000000E-03 0. -1.
         11    1    4    4    0    0  0.20311107484E-01 -0.55866358702E-02  0.25026081639E-01  0.32715706790E-01  0.51100000000E-03 0.  1.
</event>
<event>
 8    1  0.1128298E+005  0.1043930E+01  0.7957747E-01            NaN
         13   -1    0    0    0    0  0.00000000000E+00  0.00000000000E+00  0.74505805969E-08  0.10566000000E+00  0.10566000000E+00 0.  1.
     999900   -1    0    0    0    0 -0.00000000000E+00 -0.00000000000E+00 -0.74505805969E-08  0.93827000000E+00  0.93827000000E+00 0.  1.
     999902    2    1    2    0    0 -0.11723445345E-01  0.61299048361E-02 -0.17511376399E-01  0.10219831732E+01  0.10217474948E+01 0.  0.
     999903    2    3    3    0    0 -0.11730769578E+00 -0.31473666149E-01  0.48881559819E-01  0.13239333260E+00  0.19669785833E-01 0.  0.
         14    1    1    2    0    0  0.11723445345E-01 -0.61299048361E-02  0.17511376399E-01  0.21946826819E-01  0.00000000000E+00 0.  1.
     999901    1    3    3    0    0  0.10558425044E+00  0.37603570986E-01 -0.66392936218E-01  0.88958984058E+00  0.88000000000E+00 0.  1.
        -11    1    4    4    0    0 -0.88952066029E-01 -0.17296793938E-01  0.42323543866E-01  0.10001596181E+00  0.51100000000E-03 0. -1.
         11    1    4    4    0    0 -0.28355629755E-01 -0.14176872212E-01  0.65580159526E-02  0.32377370781E-01  0.51100000000E-03 0.  1.
</event>
<event>
 8    1  0.1128298E+005  0.1043930E+01  0.7957747E-01            NaN
         13   -1    0    0    0    0  0.00000000000E+00  0.00000000000E+00  0.74505805969E-08  0.10566000000E+00  0.10566000000E+00 0. -1.
     999900   -1    0    0    0    0 -0.00000000000E+00 -0.00000000000E+00 -0.74505805969E-08  0.93827000000E+00  0.93827000000E+00 0. -1.
     999902    2    1    2    0    0 -0.17785822934E-01  0.55953872734E-02  0.13792223910E-01  0.10207379907E+01  0.10204744859E+01 0.  0.
     999903    2    3    3    0    0  0.81419294666E-01  0.75967717770E-01 -0.62259257093E-01  0.12912274405E+00  0.19906588083E-01 0.  0.
         14    1    1    2    0    0  0.17785822934E-01 -0.55953872734E-02 -0.13792223910E-01  0.23192009326E-01  0.00000000000E+00 0.  1.
     999901    1    3    3    0    0 -0.99205117600E-01 -0.70372330497E-01  0.76051481003E-01  0.89161524663E+00  0.88000000000E+00 0.  1.
        -11    1    4    4    0    0  0.75459627783E-01  0.61183692918E-01 -0.52532977515E-01  0.11044263014E+00  0.51100000000E-03 0. -1.
         11    1    4    4    0    0  0.59596668826E-02  0.14784024852E-01 -0.97262795774E-02  0.18680113907E-01  0.51100000000E-03 0.  1.
</event>
<event>
 8    1  0.1128298E+005  0.1043930E+01  0.7957747E-01            NaN
         13   -1    0    0    0    0  0.00000000000E+00  0.00000000000E+00  0.74505805969E-08  0.10566000000E+00  0.10566000000E+00 0.  1.
     999900   -1    0    0    0    0 -0.00000000000E+00 -0.00000000000E+00 -0.74505805969E-08  0.93827000000E+00  0.93827000000E+00 0.  1.
     999902    2    1    2    0    0 -0.39436886722E-02  0.21804097456E-01  0.81525704938E-02  0.10203199227E+01  0.10200467189E+01 0.  0.
     999903    2    3    3    0    0  0.84287034615E-01  0.87802766095E-01  0.46859838149E-01  0.13260446298E+00  0.23968087792E-01 0.  0.
         14    1    1    2    0    0  0.39436886722E-02 -0.21804097456E-01 -0.81525704938E-02  0.23610077337E-01  0.00000000000E+00 0. -1.
     999901    1    3    3    0    0 -0.88230723287E-01 -0.65998668639E-01 -0.38707267655E-01  0.88771545968E+00  0.88000000000E+00 0.  1.
        -11    1    4    4    0    0  0.46747281150E-01  0.49899758022E-01  0.38888628853E-01  0.78663083595E-01  0.51100000000E-03 0.  1.
         11    1    4    4    0    0  0.37539753465E-01  0.37903008072E-01  0.79712092959E-02  0.53941379383E-01  0.51100000000E-03 0. -1.
</event>
<event>
 8    1  0.1128298E+005  0.1043930E+01  0.7957747E-01            NaN
         13   -1    0    0    0    0  0.00000000000E+00  0.00000000000E+00  0.74505805969E-08  0.10566000000E+00  0.10566000000E+00 0.  1.
     999900   -1    0    0    0    0 -0.00000000000E+00 -0.00000000000E+00 -0.74505805969E-08  0.93827000000E+00  0.93827000000E+00 0. -1.
     999902    2    1    2    0    0  0.47884283869E-02  0.22606435524E-01  0.32098912655E-02  0.10206001184E+01  0.10203334349E+01 0.  0.
     999903    2    3    3    0    0  0.42084493775E-01 -0.18764719705E-01 -0.12015039459E+00  0.13025168711E+00  0.20153544430E-01 0.  0.
         14    1    1    2    0    0 -0.47884283869E-02 -0.22606435524E-01 -0.32098912655E-02  0.23329881599E-01  0.00000000000E+00 0. -1.
     999901    1    3    3    0    0 -0.37296065388E-01  0.41371155229E-01  0.12336028585E+00  0.89034843129E+00  0.88000000000E+00 0.  1.
        -11    1    4    4    0    0  0.37335657703E-01 -0.21958122096E-01 -0.94338958822E-01  0.10380852920E+00  0.51100000000E-03 0. -1.
         11    1    4    4    0    0  0.47488360723E-02  0.31934023907E-02 -0.25811435766E-01  0.26443157909E-01  0.51100000000E-03 0.  1.
</event>
<event>
 8    1  0.1128298E+005  0.1043930E+01  0.7957747E-01            NaN
         13   -1    0    0    0    0  0.00000000000E+00  0.00000000000E+00  0.74505805969E-08  0.10566000000E+00  0.10566000000E+00 0.  1.
     999900   -1    0    0    0    0 -0.00000000000E+00 -0.00000000000E+00 -0.74505805969E-08  0.93827000000E+00  0.93827000000E+00 0.  1.
     999902    2    1    2    0    0 -0.18234823764E-01  0.14849741825E-01 -0.37065595597E-02  0.10201232318E+01  0.10198454029E+01 0.  0.
     999903    2    3    3    0    0  0.66549018814E-01 -0.10033167417E+00 -0.37660576935E-01  0.12793046456E+00  0.21275994941E-01 0.  0.
         14    1    1    2    0    0  0.18234823764E-01 -0.14849741825E-01  0.37065595597E-02  0.23806768234E-01  0.00000000000E+00 0.  1.
     999901    1    3    3    0    0 -0.84783842578E-01  0.11518141600E+00  0.33954017375E-01  0.89219276720E+00  0.88000000000E+00 0.  1.
        -11    1    4    4    0    0  0.23569911957E-02 -0.15150376678E-01 -0.75601776288E-02  0.17102828063E-01  0.51100000000E-03 0.  1.
         11    1    4    4    0    0  0.64192027618E-01 -0.85181297494E-01 -0.30100399306E-01  0.11082763650E+00  0.51100000000E-03 0. -1.
</event>
<event>
 8    1  0.1128298E+005  0.1043930E+01  0.7957747E-01            NaN
         13   -1    0    0    0    0  0.00000000000E+00  0.00000000000E+00  0.74505805969E-08  0.10566000000E+00  0.10566000000E+00 0.  1.
     999900   -1    0    0    0    0 -0.00000000000E+00 -0.00000000000E+00 -0.74505805969E-08  0.93827000000E+00  0.93827000000E+00 0.  1.
     999902    2    1    2    0    0 -0.28660674871E-02  0.10255302030E-01  0.20906963267E-01  0.10204675475E+01  0.10201977891E+01 0.  0.
     999903    2    3    3    0    0 -0.33094868888E-01 -0.51080298520E-01 -0.11088898348E+00  0.12802930995E+00  0.19765381482E-01 0.  0.
         14    1    1    2    0    0  0.28660674871E-02 -0.10255302030E-01 -0.20906963267E-01  0.23462452464E-01  0.00000000000E+00 0. -1.
     999901    1    3    3    0    0  0.30228801401E-01  0.61335600550E-01  0.13179594675E+00  0.89243823759E+00  0.88000000000E+00 0. -1.
        -11    1    4    4    0    0 -0.11051838516E-01 -0.34986519206E-01 -0.63169598425E-01  0.73053808572E-01  0.51100000000E-03 0.  1.
         11    1    4    4    0    0 -0.22043030371E-01 -0.16093779313E-01 -0.47719385055E-01  0.54975501377E-01  0.51100000000E-03 0. -1.
</event>
<event>
 8    1  0.1128298E+005  0.1043930E+01  0.7957747E-01            NaN
         13   -1    0    0    0    0  0.00000000000E+00  0.00000000000E+00  0.74505805969E-08  0.10566000000E+00  0.10566000000E+00 0.  1.
     999900   -1    0    0    0    0 -0.00000000000E+00 -0.00000000000E+00 -0.74505805969E-08  0.93827000000E+00  0.93827000000E+00 0. -1.
     999902    2    1    2    0    0  0.60922703227E-02  0.39334368904E-02 -0.23788822968E-01  0.10190604246E+01  0.10187569156E+01 0.  0.
     999903    2    3    3    0    0  0.56515588329E-01  0.16900012424E-01 -0.11723796831E+00  0.13258234485E+00  0.18807307280E-01 0.  0.
         14    1    1    2    0    0 -0.60922703227E-02 -0.39334368904E-02  0.23788822968E-01  0.24869575422E-01  0.00000000000E+00 0.  1.
     999901    1    3    3    0    0 -0.50423318006E-01 -0.12966575534E-01  0.93449145343E-01  0.88647807973E+00  0.88000000000E+00 0.  1.
        -11    1    4    4    0    0  0.11828239993E-01  0.12101005599E-01 -0.34162758234E-01  0.38127375585E-01  0.51100000000E-03 0. -1.
         11    1    4    4    0    0  0.44687348337E-01  0.47990068254E-02 -0.83075210076E-01  0.94454969261E-01  0.51100000000E-03 0.  1.
</event>
<event>
 8    1  0.1128298E+005  0.1043930E+01  0.7957747E-01            NaN
         13   -1    0    0    0    0  0.00000000000E+00  0.00000000000E+00  0.74505805969E-08  0.10566000000E+00  0.10566000000E+00 0. -1.
     999900   -1    0    0    0    0 -0.00000000000E+00 -0.00000000000E+00 -0.74505805969E-08  0.93827000000E+00  0.93827000000E+00 0. -1.
     999902    2    1    2    0    0  0.19090507014E-01  0.81903504086E-02 -0.79201284786E-02  0.10216980920E+01  0.10214561828E+01 0.  0.
     999903    2    3    3    0    0 -0.59230850981E-01  0.89361397721E-02  0.11352128812E+00  0.12991178970E+00  0.20045995706E-01 0.  0.
         14    1    1    2    0    0 -0.19090507014E-01 -0.81903504086E-02  0.79201284786E-02  0.22231907992E-01  0.00000000000E+00 0. -1.
     999901    1    3    3    0    0  0.78321357995E-01 -0.74578936344E-03 -0.12144141660E+00  0.89178630231E+00  0.88000000000E+00 0. -1.
        -11    1    4    4    0    0 -0.32559664411E-01  0.12260944583E-01  0.77611062235E-01  0.85054104021E-01  0.51100000000E-03 0.  1.
         11    1    4    4    0    0 -0.26671186569E-01 -0.33248048107E-02  0.35910225888E-01  0.44857685678E-01  0.51100000000E-03 0. -1.
</event>
<event>
 8    1  0.1128298E+005  0.1043930E+01  0.7957747E-01            NaN
         13   -1    0    0    0    0  0.00000000000E+00  0.00000000000E+00  0.74505805969E-08  0.10566000000E+00  0.10566000000E+00 0.  1.
     999900   -1    0    0    0    0 -0.00000000000E+00 -0.00000000000E+00 -0.74505805969E-08  0.93827000000E+00  0.93827000000E+00 0. -1.
     999902    2    1    2    0    0 -0.17338811506E-01 -0.46602664901E-02  0.15701531807E-01  0.10200785730E+01  0.10197996884E+01 0.  0.
     999903    2    3    3    0    0  0.11025773075E+00 -0.40016548036E-01 -0.47266549503E-01  0.12794858052E+00  0.19458192334E-01 0.  0.
         14    1    1    2    0    0  0.17338811506E-01  0.46602664901E-02 -0.15701531807E-01  0.23851426986E-01  0.00000000000E+00 0. -1.
     999901    1    3    3    0    0 -0.12759654226E+00  0.35356281546E-01  0.62968081310E-01  0.89212999249E+00  0.88000000000E+00 0.  1.
        -11    1    4    4    0    0  0.94338588732E-01 -0.33024198749E-01 -0.47239211281E-01  0.11055392906E+00  0.51100000000E-03 0. -1.
         11    1    4    4    0    0  0.15919142017E-01 -0.69923492870E-02 -0.27338221362E-04  0.17394651462E-01  0.51100000000E-03 0.  1.
</event>
<event>
 8    1  0.1128298E+005  0.1043930E+01  0.7957747E-01            NaN
         13   -1    0    0    0    0  0.00000000000E+00  0.00000000000E+00  0.74505805969E-08  0.10566000000E+00  0.10566000000E+00 0.  1.
     999900   -1    0    0    0    0 -0.00000000000E+00 -0.00000000000E+00 -0.74505805969E-08  0.93827000000E+00  0.93827000000E+00 0. -1.
     999902    2    1    2    0    0 -0.20232297212E-01  0.43320270407E-02 -0.17471296683E-01  0.10168494070E+01  0.10164887397E+01 0.  0.
     999903    2    3    3    0    0  0.10699801203E+00 -0.87828393093E-02 -0.63720625551E-01  0.12640089546E+00  0.19777649205E-01 0.  0.
         14    1    1    2    0    0  0.20232297212E-01 -0.43320270407E-02  0.17471296683E-01  0.27080592987E-01  0.00000000000E+00 0.  1.
     999901    1    3    3    0    0 -0.12723030924E+00  0.13114866350E-01  0.46249328868E-01  0.89044851155E+00  0.88000000000E+00 0.  1.
        -11    1    4    4    0    0  0.43584447862E-01 -0.12930501261E-01 -0.29836918807E-01  0.54381107042E-01  0.51100000000E-03 0. -1.
         11    1    4    4    0    0  0.63413564165E-01  0.41476619514E-02 -0.33883706744E-01  0.72019788416E-01  0.51100000000E-03 0.  1.
</event>
<event>
 8    1  0.1128298E+005  0.1043930E+01  0.7957747E-01            NaN
         13   -1    0    0    0    0  0.00000000000E+00  0.00000000000E+00  0.74505805969E-08  0.10566000000E+00  0.10566000000E+00 0. -1.
     999900   -1    0    0    0    0 -0.00000000000E+00 -0.00000000000E+00 -0.74505805969E-08  0.93827000000E+00  0.93827000000E+00 0.  1.
     999902    2    1    2    0    0 -0.11257235594E-01 -0.20696218417E-01  0.43040667877E-02  0.10199803904E+01  0.10196991777E+01 0.  0.
     999903    2    3    3    0    0  0.77502442091E-01  0.16156388288E-01  0.10050358857E+00  0.12953626356E+00  0.20273501134E-01 0.  0.
         14    1    1    2    0    0  0.11257235594E-01  0.20696218417E-01 -0.43040667877E-02  0.23949609619E-01  0.00000000000E+00 0.  1.
     999901    1    3    3    0    0 -0.88759677685E-01 -0.36852606705E-01 -0.96199521783E-01  0.89044412682E+00  0.88000000000E+00 0.  1.
        -11    1    4    4    0    0  0.60506428416E-01  0.13119937270E-01  0.63440951607E-01  0.88646354102E-01  0.51100000000E-03 0.  1.
         11    1    4    4    0    0  0.16996013674E-01  0.30364510183E-02  0.37062636963E-01  0.40889909456E-01  0.51100000000E-03 0. -1.
</event>
<event>
 8    1  0.1128298E+005  0.1043930E+01  0.7957747E-01            NaN
         13   -1    0    0    0    0  0.00000000000E+00  0.00000000000E+00  0.74505805969E-08  0.10566000000E+00  0.10566000000E+00 0.  1.
     999900   -1    0    0    0    0 -0.00000000000E+00 -0.00000000000E+00 -0.74505805969E-08  0.93827000000E+00  0.93827000000E+00 0.  1.
     999902    2    1    2    0    0 -0.49647640607E-02 -0.22986595235E-01 -0.10154091288E-03  0.10204131390E+01  0.10201421133E+01 0.  0.
     999903    2    3    3    0    0  0.41197297080E-01  0.11240758083E+00 -0.41315263106E-01  0.12791042765E+00  0.17928887913E-01 0.  0.
         14    1    1    2    0    0  0.49647640607E-02  0.22986595235E-01  0.10154091288E-03  0.23516861041E-01  0.00000000000E+00 0. -1.
     999901    1    3    3    0    0 -0.46162061141E-01 -0.13539417606E+00  0.41213722193E-01  0.89250271131E+00  0.88000000000E+00 0. -1.
        -11    1    4    4    0    0  0.18421281497E-01  0.50932113817E-01 -0.93225739913E-02  0.54959943019E-01  0.51100000000E-03 0. -1.
         11    1    4    4    0    0  0.22776015584E-01  0.61475467009E-01 -0.31992689115E-01  0.72950484629E-01  0.51100000000E-03 0.  1.
</event>
<event>
 8    1  0.1128298E+005  0.1043930E+01  0.7957747E-01            NaN
         13   -1    0    0    0    0  0.00000000000E+00  0.00000000000E+00  0.74505805969E-08  0.10566000000E+00  0.10566000000E+00 0.  1.
     999900   -1    0    0    0    0 -0.00000000000E+00 -0.00000000000E+00 -0.74505805969E-08  0.93827000000E+00  0.93827000000E+00 0. -1.
     999902    2    1    2    0    0 -0.21836273171E-01  0.10240433271E-01 -0.75258876528E-03  0.10198000251E+01  0.10195145097E+01 0.  0.
     999903    2    3    3    0    0 -0.62959965607E-01  0.51235511744E-01 -0.10216212949E+00  0.13207503981E+00  0.20437233315E-01 0.  0.
         14    1    1    2    0    0  0.21836273171E-01 -0.10240433271E-01  0.75258876528E-03  0.24129974915E-01  0.00000000000E+00 0. -1.
     999901    1    3    3    0    0  0.41123692436E-01 -0.40995078474E-01  0.10140954072E+00  0.88772498528E+00  0.88000000000E+00 0.  1.
        -11    1    4    4    0    0 -0.43274927977E-01  0.46022182976E-01 -0.73628229810E-01  0.97016174236E-01  0.51100000000E-03 0.  1.
         11    1    4    4    0    0 -0.19685037630E-01  0.52133287680E-02 -0.28533899676E-01  0.35058865570E-01  0.51100000000E-03 0. -1.
</event>
<event>
 8    1  0.1128298E+005  0.1043930E+01  0.7957747E-01            NaN
         13   -1    0    0    0    0  0.00000000000E+00  0.00000000000E+00  0.74505805969E-08  0.10566000000E+00  0.10566000000E+00 0. -1.
     999900   -1    0    0    0    0 -0.00000000000E+00 -0.00000000000E+00 -0.74505805969E-08  0.93827000000E+00  0.93827000000E+00 0. -1.
     999902    2    1    2    0    0 -0.46089798932E-02 -0.30026613393E-01 -0.21924161922E-02  0.10134727037E+01  0.10130149428E+01 0.  0.
     999903    2    3    3    0    0  0.56970908077E-01  0.96848496243E-01  0.39743332244E-01  0.12125749256E+00  0.22327817882E-01 0.  0.
         14    1    1    2    0    0  0.46089798932E-02  0.30026613393E-01  0.21924161922E-02  0.30457296273E-01  0.00000000000E+00 0.  1.
     999901    1    3    3    0    0 -0.61579887970E-01 -0.12687510964E+00 -0.41935748436E-01  0.89221521117E+00  0.88000000000E+00 0. -1.
        -11    1    4    4    0    0  0.19276512265E-01  0.27053384103E-01  0.16592878117E-02  0.33263852356E-01  0.51100000000E-03 0.  1.
         11    1    4    4    0    0  0.37694395812E-01  0.69795112140E-01  0.38084044432E-01  0.87993640200E-01  0.51100000000E-03 0. -1.
</event>
<event>
 8    1  0.1128298E+005  0.1043930E+01  0.7957747E-01            NaN
         13   -1    0    0    0    0  0.00000000000E+00  0.00000000000E+00  0.74505805969E-08  0.10566000000E+00  0.10566000000E+00 0.  1.
     999900   -1    0    0    0    0 -0.00000000000E+00 -0.00000000000E+00 -0.74505805969E-08  0.93827000000E+00  0.93827000000E+00 0.  1.
     999902    2    1    2    0    0 -0.11609023648E-02  0.21677617672E-01 -0.21710653854E-01  0.10132278943E+01  0.10127626309E+01 0.  0.
     999903    2    3    3    0    0 -0.59569173590E-01 -0.64385997312E-01  0.81785048294E-01  0.12107889761E+00  0.16651193053E-01 0.  0.
         14    1    1    2    0    0  0.11609023648E-02 -0.21677617672E-01  0.21710653854E-01  0.30702105677E-01  0.00000000000E+00 0. -1.
     999901    1    3    3    0    0  0.58408271225E-01  0.86063614985E-01 -0.10349570215E+00  0.89214899671E+00  0.88000000000E+00 0.  1.
        -11    1    4    4    0    0 -0.19075769209E-01 -0.11040439060E-01  0.24366585388E-01  0.32859821515E-01  0.51100000000E-03 0. -1.
         11    1    4    4    0    0 -0.40493404381E-01 -0.53345558252E-01  0.57418462906E-01  0.88219076095E-01  0.51100000000E-03 0.  1.
</event>
<event>
 8    1  0.1128298E+005  0.1043930E+01  0.7957747E-01            NaN
         13   -1    0    0    0    0  0.00000000000E+00  0.00000000000E+00  0.74505805969E-08  0.10566000000E+00  0.10566000000E+00 0.  1.
     999900   -1    0    0    0    0 -0.00000000000E+00 -0.00000000000E+00 -0.74505805969E-08  0.93827000000E+00  0.93827000000E+00 0. -1.
     999902    2    1    2    0    0  0.52336984560E-02 -0.19617926323E-01 -0.87741267868E-02  0.10218112312E+01  0.10215718047E+01 0.  0.
     999903    2    3    3    0    0 -0.93121983131E-01  0.20458395336E-01  0.86476805156E-01  0.13032220058E+00  0.20381080756E-01 0.  0.
         14    1    1    2    0    0 -0.52336984560E-02  0.19617926323E-01  0.87741267868E-02  0.22118768809E-01  0.00000000000E+00 0. -1.
     999901    1    3    3    0    0  0.98355681587E-01 -0.40076321660E-01 -0.95250931943E-01  0.89148903061E+00  0.88000000000E+00 0. -1.
        -11    1    4    4    0    0 -0.63721828164E-01  0.16649176474E-01  0.71113178146E-01  0.96927868484E-01  0.51100000000E-03 0.  1.
         11    1    4    4    0    0 -0.29400154967E-01  0.38092188626E-02  0.15363627010E-01  0.33394332099E-01  0.51100000000E-03 0. -1.
</event>
<event>
 8    1  0.1128298E+005  0.1043930E+01  0.7957747E-01            NaN
         13   -1    0    0    0    0  0.00000000000E+00  0.00000000000E+00  0.74505805969E-08  0.10566000000E+00  0.10566000000E+00 0. -1.
     999900   -1    0    0    0    0 -0.00000000000E+00 -0.00000000000E+00 -0.74505805969E-08  0.93827000000E+00  0.93827000000E+00 0.  1.
     999902    2    1    2    0    0  0.22718299907E-01  0.28240503002E-02  0.67523356718E-02  0.10200618110E+01  0.10197825296E+01 0.  0.
     999903    2    3    3    0    0 -0.15923559105E-01 -0.93601614427E-01 -0.85502755507E-01  0.12916220723E+00  0.18903243630E-01 0.  0.
         14    1    1    2    0    0 -0.22718299907E-01 -0.28240503002E-02 -0.67523356718E-02  0.23868189034E-01  0.00000000000E+00 0.  1.
     999901    1    3    3    0    0  0.38641859012E-01  0.96425664727E-01  0.92255091179E-01  0.89089960373E+00  0.88000000000E+00 0. -1.
        -11    1    4    4    0    0 -0.76353147908E-02 -0.30644897406E-01 -0.17459319643E-01  0.36090119595E-01  0.51100000000E-03 0. -1.
         11    1    4    4    0    0 -0.82882443142E-02 -0.62956717020E-01 -0.68043435864E-01  0.93072087636E-01  0.51100000000E-03 0.  1.
</event>
<event>
 8    1  0.1128298E+005  0.1043930E+01  0.7957747E-01            NaN
         13   -1    0    0    0    0  0.00000000000E+00  0.00000000000E+00  0.74505805969E-08  0.10566000000E+00  0.10566000000E+00 0. -1.
     999900   -1    0    0    0    0 -0.00000000000E+00 -0.00000000000E+00 -0.74505805969E-08  0.93827000000E+00  0.93827000000E+00 0.  1.
     999902    2    1    2    0    0 -0.59680516169E-02 -0.16319247930E-01 -0.15400187467E-01  0.10207114456E+01  0.10204473303E+01 0.  0.
     999903    2    3    3    0    0  0.75150011487E-01 -0.83821623295E-01  0.63732588742E-01  0.13088072739E+00  0.19857824080E-01 0.  0.
         14    1    1    2    0    0  0.59680516169E-02  0.16319247930E-01  0.15400187467E-01  0.23218554372E-01  0.00000000000E+00 0. -1.
     999901    1    3    3    0    0 -0.81118063104E-01  0.67502375365E-01 -0.79132776209E-01  0.88983071823E+00  0.88000000000E+00 0.  1.
        -11    1    4    4    0    0  0.43720561136E-01 -0.62685825329E-01  0.43349421651E-01  0.87865998212E-01  0.51100000000E-03 0.  1.
         11    1    4    4    0    0  0.31429450350E-01 -0.21135797966E-01  0.20383167091E-01  0.43014729183E-01  0.51100000000E-03 0. -1.
</event>
<event>
 8    1  0.1128298E+005  0.1043930E+01  0.7957747E-01            NaN
         13   -1    0    0    0    0  0.00000000000E+00  0.00000000000E+00  0.74505805969E-08  0.10566000000E+00  0.10566000000E+00 0. -1.
     999900   -1    0    0    0    0 -0.00000000000E+00 -0.00000000000E+00 -0.74505805969E-08  0.93827000000E+00  0.93827000000E+00 0.  1.
     999902    2    1    2    0    0 -0.39356086532E-02 -0.12195397753E-01  0.18618513906E-01  0.10213276594E+01  0.10210775299E+01 0.  0.
     999903    2    3    3    0    0 -0.71899208551E-01  0.37287943071E-01 -0.99134853126E-01  0.12951293232E+00  0.19646721000E-01 0.  0.
         14    1    1    2    0    0  0.39356086532E-02  0.12195397753E-01 -0.18618513906E-01  0.22602340629E-01  0.00000000000E+00 0.  1.
     999901    1    3    3    0    0  0.67963599898E-01 -0.49483340825E-01  0.11775336703E+00  0.89181472705E+00  0.88000000000E+00 0. -1.
        -11    1    4    4    0    0 -0.13925566931E-01 -0.44955081445E-03 -0.13254538108E-01  0.19237136267E-01  0.51100000000E-03 0.  1.
         11    1    4    4    0    0 -0.57973641620E-01  0.37737493886E-01 -0.85880315018E-01  0.11027579606E+00  0.51100000000E-03 0. -1.
</event>
<event>
 8    1  0.1128298E+005  0.1043930E+01  0.7957747E-01            NaN
         13   -1    0    0    0    0  0.00000000000E+00  0.00000000000E+00  0.74505805969E-08  0.10566000000E+00  0.10566000000E+00 0. -1.
     999900   -1    0    0    0    0 -0.00000000000E+00 -0.00000000000E+00 -0.74505805969E-08  0.93827000000E+00  0.93827000000E+00 0. -1.
     999902    2    1    2    0    0  0.64099752933E-02  0.18027605231E-01 -0.12007368738E-01  0.10213410815E+01  0.10210912523E+01 0.  0.
     999903    2    3    3    0    0  0.58827495903E-01 -0.90092692216E-01  0.69120528023E-01  0.12947823848E+00  0.20238561705E-01 0.  0.
         14    1    1    2    0    0 -0.64099752933E-02 -0.18027605231E-01  0.12007368738E-01  0.22588918470E-01  0.00000000000E+00 0. -1.
     999901    1    3    3    0    0 -0.52417520610E-01  0.10812029745E+00 -0.81127896761E-01  0.89186284305E+00  0.88000000000E+00 0. -1.
        -11    1    4    4    0    0  0.43377091903E-01 -0.65825135597E-01  0.60709815259E-01  0.99501072196E-01  0.51100000000E-03 0. -1.
         11    1    4    4    0    0  0.15450404000E-01 -0.24267556619E-01  0.84107127637E-02  0.29977166281E-01  0.51100000000E-03 0.  1.
</event>
<event>
 8    1  0.1128298E+005  0.1043930E+01  0.7957747E-01            NaN
         13   -1    0    0    0    0  0.00000000000E+00  0.00000000000E+00  0.74505805969E-08  0.10566000000E+00  0.10566000000E+00 0.  1.
     999900   -1    0    0    0    0 -0.00000000000E+00 -0.00000000000E+00 -0.74505805969E-08  0.93827000000E+00  0.93827000000E+00 0. -1.
     999902    2    1    2    0    0 -0.20386222135E-01 -0.88397766242E-02  0.75756147957E-02  0.10204538495E+01  0.10201837723E+01 0.  0.
     999903    2    3    3    0    0 -0.92726911058E-01 -0.25963330021E-01  0.90283347828E-01  0.13345499917E+00  0.19666707077E-01 0.  0.
         14    1    1    2    0    0  0.20386222135E-01  0.88397766242E-02 -0.75756147957E-02  0.23476150520E-01  0.00000000000E+00 0.  1.
     999901    1    3    3    0    0  0.72340688923E-01  0.17123553397E-01 -0.82707733033E-01  0.88699885031E+00  0.88000000000E+00 0. -1.
        -11    1    4    4    0    0 -0.51925533948E-01 -0.45194944353E-02  0.45571658930E-01  0.69236725257E-01  0.51100000000E-03 0.  1.
         11    1    4    4    0    0 -0.40801377111E-01 -0.21443835586E-01  0.44711688898E-01  0.64218273909E-01  0.51100000000E-03 0. -1.
</event>
<event>
 8    1  0.1128298E+005  0.1043930E+01  0.7957747E-01            NaN
         13   -1    0    0    0    0  0.00000000000E+00  0.00000000000E+00  0.74505805969E-08  0.10566000000E+00  0.10566000000E+00 0. -1.
     999900   -1    0    0    0    0 -0.00000000000E+00 -0.00000000000E+00 -0.74505805969E-08  0.93827000000E+00  0.93827000000E+00 0.  1.
     999902    2    1    2    0    0  0.11197469544E-01 -0.17838090602E-02 -0.20965331591E-01  0.10200949328E+01  0.10198164352E+01 0.  0.
     999903    2    3    3    0    0  0.34848434942E-01 -0.43575353555E-01  0.11376477704E+00  0.12854678295E+00  0.21647772556E-01 0.  0.
         14    1    1    2    0    0 -0.11197469544E-01  0.17838090602E-02  0.20965331591E-01  0.23835067184E-01  0.00000000000E+00 0. -1.
     999901    1    3    3    0    0 -0.23650965398E-01  0.41791544495E-01 -0.13473010863E+00  0.89154814986E+00  0.88000000000E+00 0.  1.
        -11    1    4    4    0    0  0.13468541761E-01 -0.27576788811E-02  0.27168634240E-01  0.30453279256E-01  0.51100000000E-03 0. -1.
         11    1    4    4    0    0  0.21379893181E-01 -0.40817674674E-01  0.86596142801E-01  0.98093503695E-01  0.51100000000E-03 0.  1.
</event>
<event>
 8    1  0.1128298E+005  0.1043930E+01  0.7957747E-01            NaN
         13   -1    0    0    0    0  0.00000000000E+00  0.00000000000E+00  0.74505805969E-08  0.10566000000E+00  0.10566000000E+00 0.  1.
     999900   -1    0    0    0    0 -0.00000000000E+00 -0.00000000000E+00 -0.74505805969E-08  0.93827000000E+00  0.93827000000E+00 0. -1.
     999902    2    1    2    0    0 -0.18877121661E-01 -0.63550664260E-02  0.11594033962E-01  0.10208832168E+01  0.10206230392E+01 0.  0.
     999903    2    3    3    0    0  0.35141970837E-01  0.52799429908E-02  0.12523304112E+00  0.13185719934E+00  0.20980241161E-01 0.  0.
         14    1    1    2    0    0  0.18877121661E-01  0.63550664260E-02 -0.11594033962E-01  0.23046783181E-01  0.00000000000E+00 0. -1.
     999901    1    3    3    0    0 -0.54019092498E-01 -0.11635009417E-01 -0.11363900716E+00  0.88902601747E+00  0.88000000000E+00 0. -1.
        -11    1    4    4    0    0  0.15244297088E-01 -0.36218537588E-02  0.26891670032E-01  0.31127631719E-01  0.51100000000E-03 0.  1.
         11    1    4    4    0    0  0.19897673750E-01  0.89017967496E-02  0.98341371086E-01  0.10072956763E+00  0.51100000000E-03 0. -1.
</event>
<event>
 7    1  0.1128298E+005  0.1043930E+01  0.7957747E-01            NaN
         13   -1    0    0    0    0  0.00000000000E+00  0.00000000000E+00  0.74505805969E-08  0.10566000000E+00  0.10566000000E+00 0.  1.
     999900   -1    0    0    0    0 -0.00000000000E+00 -0.00000000000E+00 -0.74505805969E-08  0.93827000000E+00  0.93827000000E+00 0. -1.
     999902    2    1    2    0    0 -0.36325350081E-02  0.20748125376E-01 -0.54627568454E-02  0.10221694456E+01  0.10219377935E+01 0.  0.
         14    1    1    2    0    0  0.36325350081E-02 -0.20748125376E-01  0.54627568454E-02  0.21760554441E-01  0.00000000000E+00 0. -1.
     999901    1    3    3    0    0 -0.76387455115E-01  0.87132726548E-01  0.80762111197E-01  0.89126296565E+00  0.88000000000E+00 0. -1.
        -11    1    3    3    0    0  0.33662127025E-01 -0.30224152705E-01 -0.39650926596E-01  0.60158917073E-01  0.51100000000E-03 0. -1.
         11    1    3    3    0    0  0.39092793082E-01 -0.36160448467E-01 -0.46573941446E-01  0.70747562836E-01  0.51100000000E-03 0.  1.
</event>
<event>
 8    1  0.1128298E+005  0.1043930E+01  0.7957747E-01            NaN
         13   -1    0    0    0    0  0.00000000000E+00  0.00000000000E+00  0.74505805969E-08  0.10566000000E+00  0.10566000000E+00 0.  1.
     999900   -1    0    0    0    0 -0.00000000000E+00 -0.00000000000E+00 -0.74505805969E-08  0.93827000000E+00  0.93827000000E+00 0.  1.
     999902    2    1    2    0    0 -0.95252669265E-02 -0.59385195889E-02  0.20254119186E-01  0.10207734444E+01  0.10205107538E+01 0.  0.
     999903    2    3    3    0    0  0.92330828795E-01 -0.24232172011E-02 -0.87096065571E-01  0.12841080297E+00  0.19306883593E-01 0.  0.
         14    1    1    2    0    0  0.95252669265E-02  0.59385195889E-02 -0.20254119186E-01  0.23156555636E-01  0.00000000000E+00 0. -1.
     999901    1    3    3    0    0 -0.10185609572E+00 -0.35153023877E-02  0.10735018476E+00  0.89236264139E+00  0.88000000000E+00 0. -1.
        -11    1    4    4    0    0  0.37298101271E-01  0.81407604567E-02 -0.31890101355E-01  0.49745954857E-01  0.51100000000E-03 0.  1.
         11    1    4    4    0    0  0.55032727524E-01 -0.10563977658E-01 -0.55205964216E-01  0.78664848114E-01  0.51100000000E-03 0. -1.
</event>
<event>
 8    1  0.1128298E+005  0.1043930E+01  0.7957747E-01            NaN
         13   -1    0    0    0    0  0.00000000000E+00  0.00000000000E+00  0.74505805969E-08  0.10566000000E+00  0.10566000000E+00 0.  1.
     999900   -1    0    0    0    0 -0.00000000000E+00 -0.00000000000E+00 -0.74505805969E-08  0.93827000000E+00  0.93827000000E+00 0. -1.
     999902    2    1    2    0    0  0.15804256476E-01  0.17447661316E-01 -0.79650032617E-03  0.10203751741E+01  0.10201032625E+01 0.  0.
     999903    2    3    3    0    0  0.12463999373E+00 -0.16410282530E-01 -0.36690047432E-01  0.13229864322E+00  0.18770881909E-01 0.  0.
         14    1    1    2    0    0 -0.15804256476E-01 -0.17447661316E-01  0.79650032617E-03  0.23554825852E-01  0.00000000000E+00 0.  1.
     999901    1    3    3    0    0 -0.10883573725E+00  0.33857943846E-01  0.35893547106E-01  0.88807653093E+00  0.88000000000E+00 0.  1.
        -11    1    4    4    0    0  0.62608611998E-01 -0.50317311040E-02 -0.91345554854E-02  0.63473284453E-01  0.51100000000E-03 0.  1.
         11    1    4    4    0    0  0.62031381729E-01 -0.11378551426E-01 -0.27555491946E-01  0.68825358765E-01  0.51100000000E-03 0. -1.
</event>
<event>
 8    1  0.1128298E+005  0.1043930E+01  0.7957747E-01            NaN
         13   -1    0    0    0    0  0.00000000000E+00  0.00000000000E+00  0.74505805969E-08  0.10566000000E+00  0.10566000000E+00 0.  1.
     999900   -1    0    0    0    0 -0.00000000000E+00 -0.00000000000E+00 -0.74505805969E-08  0.93827000000E+00  0.93827000000E+00 0.  1.
     999902    2    1    2    0    0 -0.16647891716E-01  0.13399277539E-01  0.10140306018E-01  0.10202758515E+01  0.10200016149E+01 0.  0.
     999903    2    3    3    0    0  0.58262981719E-01 -0.10470825613E+00  0.38562522956E-01  0.12877775786E+00  0.27170734294E-01 0.  0.
         14    1    1    2    0    0  0.16647891716E-01 -0.13399277539E-01 -0.10140306018E-01  0.23654148543E-01  0.00000000000E+00 0. -1.
     999901    1    3    3    0    0 -0.74910873435E-01  0.11810753367E+00 -0.28422216938E-01  0.89149809360E+00  0.88000000000E+00 0.  1.
        -11    1    4    4    0    0  0.11883921508E-01 -0.40260730802E-01  0.22985343165E-01  0.47861687773E-01  0.51100000000E-03 0. -1.
         11    1    4    4    0    0  0.46379060211E-01 -0.64447525331E-01  0.15577179790E-01  0.80916070088E-01  0.51100000000E-03 0.  1.
</event>
<event>
 8    1  0.1128298E+005  0.1043930E+01  0.7957747E-01            NaN
         13   -1    0    0    0    0  0.00000000000E+00  0.00000000000E+00  0.74505805969E-08  0.10566000000E+00  0.10566000000E+00 0.  1.
     999900   -1    0    0    0    0 -0.00000000000E+00 -0.00000000000E+00 -0.74505805969E-08  0.93827000000E+00  0.93827000000E+00 0.  1.
     999902    2    1    2    0    0 -0.64321154890E-02 -0.13107256370E-01  0.69606394283E-02  0.10277552425E+01  0.10276279559E+01 0.  0.
     999903    2    3    3    0    0 -0.25759024589E-01 -0.47110475685E-01 -0.12456985204E+00  0.13712062688E+00  0.20037315514E-01 0.  0.
         14    1    1    2    0    0  0.64321154890E-02  0.13107256370E-01 -0.69606394283E-02  0.16174757509E-01  0.00000000000E+00 0. -1.
     999901    1    3    3    0    0  0.19326909100E-01  0.34003219315E-01  0.13153049146E+00  0.89063461561E+00  0.88000000000E+00 0. -1.
        -11    1    4    4    0    0 -0.76202435232E-02 -0.32311056209E-01 -0.62320537175E-01  0.70612909156E-01  0.51100000000E-03 0. -1.
         11    1    4    4    0    0 -0.18138781066E-01 -0.14799419476E-01 -0.62249314860E-01  0.66507717725E-01  0.51100000000E-03 0.  1.
</event>
<event>
 8    1  0.1128298E+005  0.1043930E+01  0.7957747E-01            NaN
         13   -1    0    0    0    0  0.00000000000E+00  0.00000000000E+00  0.74505805969E-08  0.10566000000E+00  0.10566000000E+00 0.  1.
     999900   -1    0    0    0    0 -0.00000000000E+00 -0.00000000000E+00 -0.74505805969E-08  0.93827000000E+00  0.93827000000E+00 0.  1.
     999902    2    1    2    0    0  0.20454523537E-01  0.11343393533E-01 -0.31582228666E-02  0.10203284221E+01  0.10200554173E+01 0.  0.
     999903    2    3    3    0    0  0.12882934350E+00  0.13431058042E-01 -0.27759067090E-01  0.13333650468E+00  0.15187646540E-01 0.  0.
         14    1    1    2    0    0 -0.20454523537E-01 -0.11343393533E-01  0.31582228666E-02  0.23601577948E-01  0.00000000000E+00 0.  1.
     999901    1    3    3    0    0 -0.10837481997E+00 -0.20876645098E-02  0.24600844223E-01  0.88699191737E+00  0.88000000000E+00 0. -1.
        -11    1    4    4    0    0  0.29438159135E-01 -0.27365122498E-02 -0.36692450548E-02  0.29796278171E-01  0.51100000000E-03 0. -1.
         11    1    4    4    0    0  0.99391184367E-01  0.16167570292E-01 -0.24089822035E-01  0.10354022651E+00  0.51100000000E-03 0.  1.
</event>
<event>
 8    1  0.1242192E+005  0.1043930E+01  0.7957747E-01            NaN
         13   -1    0    0    0    0  0.00000000000E+00  0.00000000000E+00  0.74505805969E-08  0.10566000000E+00  0.10566000000E+00 0.  1.
     999900   -1    0    0    0    0 -0.00000000000E+00 -0.00000000000E+00 -0.74505805969E-08  0.93827000000E+00  0.93827000000E+00 0. -1.
     999902    2    1    2    0    0  0.16142507026E-01  0.84444613820E-02  0.14678849388E-01  0.10205343149E+01  0.10202661074E+01 0.  0.
     999903    2    3    3    0    0 -0.10779892535E+00 -0.45300550279E-01 -0.47965454218E-01  0.12802419525E+00  0.20414739949E-01 0.  0.
         14    1    1    2    0    0 -0.16142507026E-01 -0.84444613820E-02 -0.14678849388E-01  0.23395685082E-01  0.00000000000E+00 0. -1.
     999901    1    3    3    0    0  0.12394143238E+00  0.53745011661E-01  0.62644303606E-01  0.89251011967E+00  0.88000000000E+00 0.  1.
        -11    1    4    4    0    0 -0.40542570744E-01 -0.27404462422E-01 -0.16518174342E-01  0.51650903262E-01  0.51100000000E-03 0.  1.
         11    1    4    4    0    0 -0.67256354611E-01 -0.17896087857E-01 -0.31447279876E-01  0.76373291985E-01  0.51100000000E-03 0. -1.
</event>
<event>
 8    1  0.1128298E+005  0.1043930E+01  0.7957747E-01            NaN
         13   -1    0    0    0    0  0.00000000000E+00  0.00000000000E+00  0.74505805969E-08  0.10566000000E+00  0.10566000000E+00 0. -1.
     999900   -1    0    0    0    0 -0.00000000000E+00 -0.00000000000E+00 -0.74505805969E-08  0.93827000000E+00  0.93827000000E+00 0.  1.
     999902    2    1    2    0    0  0.63013882686E-02  0.18041057708E-02  0.22241468521E-01  0.10207428222E+01  0.10204794284E+01 0.  0.
     999903    2    3    3    0    0  0.73745586195E-01 -0.10416853302E+00  0.27315473767E-01  0.13180825458E+00  0.18378958463E-01 0.  0.
         14    1    1    2    0    0 -0.63013882686E-02 -0.18041057708E-02 -0.22241468521E-01  0.23187177787E-01  0.00000000000E+00 0.  1.
     999901    1    3    3    0    0 -0.67444197927E-01  0.10597263879E+00 -0.50740052454E-02  0.88893456763E+00  0.88000000000E+00 0.  1.
        -11    1    4    4    0    0  0.53200209676E-01 -0.85457088860E-01  0.26073179262E-01  0.10398676908E+00  0.51100000000E-03 0. -1.
         11    1    4    4    0    0  0.20545376519E-01 -0.18711444155E-01  0.12422945047E-02  0.27821485498E-01  0.51100000000E-03 0.  1.
</event>
<event>
 7    1  0.1128298E+005  0.1043930E+01  0.7957747E-01            NaN
         13   -1    0    0    0    0  0.00000000000E+00  0.00000000000E+00  0.74505805969E-08  0.10566000000E+00  0.10566000000E+00 0.  1.
     999900   -1    0    0    0    0 -0.00000000000E+00 -0.00000000000E+00 -0.74505805969E-08  0.93827000000E+00  0.93827000000E+00 0.  1.
     999903    2    1    2    0    0 -0.69306911300E-01 -0.19952401415E-01 -0.78182833502E-01  0.10797529009E+00  0.18562368933E-01 0.  0.
         14    1    1    2    0    0  0.33260424170E-01  0.35244291043E-01 -0.13553352829E-01  0.50320067965E-01  0.00000000000E+00 0.  1.
     999901    1    1    2    0    0  0.36046487130E-01 -0.15291889628E-01  0.91736186331E-01  0.88563464194E+00  0.88000000000E+00 0. -1.
        -11    1    3    3    0    0 -0.44277613974E-01 -0.20089290150E-01 -0.58883510601E-01  0.76365015679E-01  0.51100000000E-03 0.  1.
         11    1    3    3    0    0 -0.25029297327E-01  0.13688873544E-03 -0.19299322901E-01  0.31610274415E-01  0.51100000000E-03 0. -1.
</event>
<event>
 8    1  0.1128298E+005  0.1043930E+01  0.7957747E-01            NaN
         13   -1    0    0    0    0  0.00000000000E+00  0.00000000000E+00  0.74505805969E-08  0.10566000000E+00  0.10566000000E+00 0.  1.
     999900   -1    0    0    0    0 -0.00000000000E+00 -0.00000000000E+00 -0.74505805969E-08  0.93827000000E+00  0.93827000000E+00 0. -1.
     999902    2    1    2    0    0 -0.10700266785E-01 -0.19956592224E-01 -0.67840519979E-02  0.10202913739E+01  0.10200175013E+01 0.  0.
     999903    2    3    3    0    0  0.10952611361E+00  0.82574738819E-02  0.64420592511E-01  0.12882038869E+00  0.19507033740E-01 0.  0.
         14    1    1    2    0    0  0.10700266785E-01  0.19956592224E-01  0.67840519979E-02  0.23638626102E-01  0.00000000000E+00 0.  1.
     999901    1    3    3    0    0 -0.12022638039E+00 -0.28214066106E-01 -0.71204644509E-01  0.89147098521E+00  0.88000000000E+00 0.  1.
        -11    1    4    4    0    0  0.46423052667E-01  0.53220125723E-02  0.16608252925E-01  0.49593536101E-01  0.51100000000E-03 0. -1.
         11    1    4    4    0    0  0.63103060942E-01  0.29354613096E-02  0.47812339587E-01  0.79226852588E-01  0.51100000000E-03 0.  1.
</event>
<event>
 8    1  0.1128298E+005  0.1043930E+01  0.7957747E-01            NaN
         13   -1    0    0    0    0  0.00000000000E+00  0.00000000000E+00  0.74505805969E-08  0.10566000000E+00  0.10566000000E+00 0. -1.
     999900   -1    0    0    0    0 -0.00000000000E+00 -0.00000000000E+00 -0.74505805969E-08  0.93827000000E+00  0.93827000000E+00 0. -1.
     999902    2    1    2    0    0  0.15096534521E-01 -0.31320022885E-02  0.17962748287E-01  0.10202577564E+01  0.10199830951E+01 0.  0.
     999903    2    3    3    0    0  0.91950272050E-01 -0.25770854957E-01  0.91365103710E-01  0.13357465604E+00  0.19380842695E-01 0.  0.
         14    1    1    2    0    0 -0.15096534521E-01  0.31320022885E-02 -0.17962748287E-01  0.23672243639E-01  0.00000000000E+00 0.  1.
     999901    1    3    3    0    0 -0.76853737529E-01  0.22638852668E-01 -0.73402355424E-01  0.88668310033E+00  0.88000000000E+00 0. -1.
        -11    1    4    4    0    0  0.47632250220E-01 -0.64475415664E-02  0.35910511296E-01  0.60001899935E-01  0.51100000000E-03 0. -1.
         11    1    4    4    0    0  0.44318021831E-01 -0.19323313390E-01  0.55454592414E-01  0.73572756100E-01  0.51100000000E-03 0.  1.
</event>
<event>
 8    1  0.1128298E+005  0.1043930E+01  0.7957747E-01            NaN
         13   -1    0    0    0    0  0.00000000000E+00  0.00000000000E+00  0.74505805969E-08  0.10566000000E+00  0.10566000000E+00 0. -1.
     999900   -1    0    0    0    0 -0.00000000000E+00 -0.00000000000E+00 -0.74505805969E-08  0.93827000000E+00  0.93827000000E+00 0. -1.
     999902    2    1    2    0    0  0.15047189225E-01  0.69905016575E-02  0.11208624458E-01  0.10239070562E+01  0.10237112588E+01 0.  0.
     999903    2    3    3    0    0  0.39473220983E-01 -0.12521435212E+00 -0.10276793320E-01  0.13343730511E+00  0.21520519543E-01 0.  0.
         14    1    1    2    0    0 -0.15047189225E-01 -0.69905016575E-02 -0.11208624458E-01  0.20022943821E-01  0.00000000000E+00 0. -1.
     999901    1    3    3    0    0 -0.24426031758E-01  0.13220485378E+00  0.21485417778E-01  0.89046975107E+00  0.88000000000E+00 0.  1.
        -11    1    4    4    0    0  0.23736537130E-01 -0.53620009118E-01 -0.13065410254E-01  0.60079069890E-01  0.51100000000E-03 0.  1.
         11    1    4    4    0    0  0.15736683853E-01 -0.71594343007E-01  0.27886169342E-02  0.73358235221E-01  0.51100000000E-03 0. -1.
</event>
<event>
 8    1  0.1128298E+005  0.1043930E+01  0.7957747E-01            NaN
         13   -1    0    0    0    0  0.00000000000E+00  0.00000000000E+00  0.74505805969E-08  0.10566000000E+00  0.10566000000E+00 0. -1.
     999900   -1    0    0    0    0 -0.00000000000E+00 -0.00000000000E+00 -0.74505805969E-08  0.93827000000E+00  0.93827000000E+00 0. -1.
     999902    2    1    2    0    0  0.13798478197E-01  0.18605783915E-01  0.44227079334E-02  0.10203475162E+01  0.10200749582E+01 0.  0.
     999903    2    3    3    0    0  0.15105567873E-01 -0.42957729946E-01 -0.11946486104E+00  0.12953894842E+00  0.20855248525E-01 0.  0.
         14    1    1    2    0    0 -0.13798478197E-01 -0.18605783915E-01 -0.44227079334E-02  0.23582483778E-01  0.00000000000E+00 0.  1.
     999901    1    3    3    0    0 -0.13070896755E-02  0.61563513861E-01  0.12388756898E+00  0.89080856780E+00  0.88000000000E+00 0.  1.
        -11    1    4    4    0    0  0.86046464228E-02 -0.27524634263E-02 -0.16645564255E-01  0.18946026638E-01  0.51100000000E-03 0.  1.
         11    1    4    4    0    0  0.65009214501E-02 -0.40205266519E-01 -0.10281929679E+00  0.11059292178E+00  0.51100000000E-03 0. -1.
</event>
<event>
 8    1  0.1128298E+005  0.1043930E+01  0.7957747E-01            NaN
         13   -1    0    0    0    0  0.00000000000E+00  0.00000000000E+00  0.74505805969E-08  0.10566000000E+00  0.10566000000E+00 0.  1.
     999900   -1    0    0    0    0 -0.00000000000E+00 -0.00000000000E+00 -0.74505805969E-08  0.93827000000E+00  0.93827000000E+00 0.  1.
     999902    2    1    2    0    0 -0.22632366082E-01  0.35538245312E-02 -0.34419881917E-02  0.10207631930E+01  0.10205002672E+01 0.  0.
     999903    2    3    3    0    0  0.51468847435E-01 -0.63381591707E-01  0.98306474420E-01  0.12929020439E+00  0.19634806233E-01 0.  0.
         14    1    1    2    0    0  0.22632366082E-01 -0.35538245312E-02  0.34419881917E-02  0.23166806987E-01  0.00000000000E+00 0. -1.
     999901    1    3    3    0    0 -0.74101213517E-01  0.66935416239E-01 -0.10174846261E+00  0.89147298862E+00  0.88000000000E+00 0.  1.
        -11    1    4    4    0    0  0.29068544142E-01 -0.21038734272E-01  0.37918952368E-01  0.52208396527E-01  0.51100000000E-03 0. -1.
         11    1    4    4    0    0  0.22400303294E-01 -0.42342857436E-01  0.60387522053E-01  0.77081807868E-01  0.51100000000E-03 0.  1.
</event>
<event>
 8    1  0.1128298E+005  0.1043930E+01  0.7957747E-01            NaN
         13   -1    0    0    0    0  0.00000000000E+00  0.00000000000E+00  0.74505805969E-08  0.10566000000E+00  0.10566000000E+00 0.  1.
     999900   -1    0    0    0    0 -0.00000000000E+00 -0.00000000000E+00 -0.74505805969E-08  0.93827000000E+00  0.93827000000E+00 0.  1.
     999902    2    1    2    0    0 -0.95688424520E-02 -0.21573286171E-01  0.63980018002E-02  0.10194779275E+01  0.10191846451E+01 0.  0.
     999903    2    3    3    0    0 -0.71468640561E-01  0.95392934023E-01  0.44534356969E-01  0.12876637866E+00  0.19745705272E-01 0.  0.
         14    1    1    2    0    0  0.95688424520E-02  0.21573286171E-01 -0.63980018002E-02  0.24452072491E-01  0.00000000000E+00 0.  1.
     999901    1    3    3    0    0  0.61899798109E-01 -0.11696622019E+00 -0.38136355169E-01  0.89071154885E+00  0.88000000000E+00 0.  1.
        -11    1    4    4    0    0 -0.39975237625E-01  0.68522988890E-01  0.26950850619E-01  0.83785613919E-01  0.51100000000E-03 0.  1.
         11    1    4    4    0    0 -0.31493402935E-01  0.26869945133E-01  0.17583506350E-01  0.44980764739E-01  0.51100000000E-03 0. -1.
</event>
<event>
 8    1  0.1128298E+005  0.1043930E+01  0.7957747E-01            NaN
         13   -1    0    0    0    0  0.00000000000E+00  0.00000000000E+00  0.74505805969E-08  0.10566000000E+00  0.10566000000E+00 0.  1.
     999900   -1    0    0    0    0 -0.00000000000E+00 -0.00000000000E+00 -0.74505805969E-08  0.93827000000E+00  0.93827000000E+00 0. -1.
     999902    2    1    2    0    0  0.12700402894E-01 -0.19478947776E-01 -0.12675597062E-01  0.10174460350E+01  0.10171012898E+01 0.  0.
     999903    2    3    3    0    0  0.50338284860E-01 -0.47403335061E-01 -0.10948855793E+00  0.13089703414E+00  0.19112041535E-01 0.  0.
         14    1    1    2    0    0 -0.12700402894E-01  0.19478947776E-01  0.12675597062E-01  0.26483964979E-01  0.00000000000E+00 0.  1.
     999901    1    3    3    0    0 -0.37637881966E-01  0.27924387285E-01  0.96812960871E-01  0.88654900088E+00  0.88000000000E+00 0.  1.
        -11    1    4    4    0    0  0.38664411559E-01 -0.38218797498E-01 -0.69521508659E-01  0.88255960086E-01  0.51100000000E-03 0. -1.
         11    1    4    4    0    0  0.11673873301E-01 -0.91845375627E-02 -0.39967049275E-01  0.42641074058E-01  0.51100000000E-03 0.  1.
</event>
<event>
 8    1  0.1128298E+005  0.1043930E+01  0.7957747E-01            NaN
         13   -1    0    0    0    0  0.00000000000E+00  0.00000000000E+00  0.74505805969E-08  0.10566000000E+00  0.10566000000E+00 0.  1.
     999900   -1    0    0    0    0 -0.00000000000E+00 -0.00000000000E+00 -0.74505805969E-08  0.93827000000E+00  0.93827000000E+00 0.  1.
     999902    2    1    2    0    0  0.11106127728E-01 -0.67651803801E-02 -0.19596815113E-01  0.10204108822E+01  0.10201398040E+01 0.  0.
     999903    2    3    3    0    0  0.11184227762E+00 -0.47635329155E-01 -0.51469745373E-01  0.13314878755E+00  0.17367938556E-01 0.  0.
         14    1    1    2    0    0 -0.11106127728E-01  0.67651803801E-02  0.19596815113E-01  0.23519117783E-01  0.00000000000E+00 0.  1.
     999901    1    3    3    0    0 -0.10073614989E+00  0.40870148775E-01  0.31872930260E-01  0.88726209467E+00  0.88000000000E+00 0.  1.
        -11    1    4    4    0    0  0.82253717191E-01 -0.41435335079E-01 -0.43628745777E-01  0.10191314716E+00  0.51100000000E-03 0. -1.
         11    1    4    4    0    0  0.29588560428E-01 -0.61999940759E-02 -0.78409995962E-02  0.31235640387E-01  0.51100000000E-03 0.  1.
</event>
<event>
 8    1  0.1128298E+005  0.1043930E+01  0.7957747E-01            NaN
         13   -1    0    0    0    0  0.00000000000E+00  0.00000000000E+00  0.74505805969E-08  0.10566000000E+00  0.10566000000E+00 0. -1.
     999900   -1    0    0    0    0 -0.00000000000E+00 -0.00000000000E+00 -0.74505805969E-08  0.93827000000E+00  0.93827000000E+00 0.  1.
     999902    2    1    2    0    0  0.96799306280E-02 -0.20138610740E-02 -0.22476181889E-01  0.10193752561E+01  0.10190794755E+01 0.  0.
     999903    2    3    3    0    0  0.81524985170E-01 -0.98622131269E-01 -0.23642686181E-01  0.13117695033E+00  0.16606254959E-01 0.  0.
         14    1    1    2    0    0 -0.96799306280E-02  0.20138610740E-02  0.22476181889E-01  0.24554743853E-01  0.00000000000E+00 0. -1.
     999901    1    3    3    0    0 -0.71845054542E-01  0.96608270195E-01  0.11665042917E-02  0.88819830582E+00  0.88000000000E+00 0. -1.
        -11    1    4    4    0    0  0.39133395662E-01 -0.44209459645E-01 -0.19069986877E-01  0.62046953983E-01  0.51100000000E-03 0.  1.
         11    1    4    4    0    0  0.42391589508E-01 -0.54412671624E-01 -0.45726993036E-02  0.69129996342E-01  0.51100000000E-03 0. -1.
</event>
<event>
 8    1  0.1128298E+005  0.1043930E+01  0.7957747E-01            NaN
         13   -1    0    0    0    0  0.00000000000E+00  0.00000000000E+00  0.74505805969E-08  0.10566000000E+00  0.10566000000E+00 0.  1.
     999900   -1    0    0    0    0 -0.00000000000E+00 -0.00000000000E+00 -0.74505805969E-08  0.93827000000E+00  0.93827000000E+00 0. -1.
     999902    2    1    2    0    0 -0.61981717515E-02 -0.15645062127E-01 -0.16835611243E-01  0.10201261535E+01  0.10198483936E+01 0.  0.
     999903    2    3    3    0    0  0.11545390148E+00 -0.25613716919E-01 -0.52520267273E-01  0.13098499729E+00  0.20323020924E-01 0.  0.
         14    1    1    2    0    0  0.61981717515E-02  0.15645062127E-01  0.16835611243E-01  0.23803846494E-01  0.00000000000E+00 0.  1.
     999901    1    3    3    0    0 -0.12165207323E+00  0.99686547924E-02  0.35684656030E-01  0.88914115622E+00  0.88000000000E+00 0.  1.
        -11    1    4    4    0    0  0.55039205508E-01 -0.72661656075E-02 -0.34329765778E-01  0.65275609878E-01  0.51100000000E-03 0.  1.
         11    1    4    4    0    0  0.60414695971E-01 -0.18347551311E-01 -0.18190501495E-01  0.65709387412E-01  0.51100000000E-03 0. -1.
</event>
<event>
 8    1  0.1128298E+005  0.1043930E+01  0.7957747E-01            NaN
         13   -1    0    0    0    0  0.00000000000E+00  0.00000000000E+00  0.74505805969E-08  0.10566000000E+00  0.10566000000E+00 0.  1.
     999900   -1    0    0    0    0 -0.00000000000E+00 -0.00000000000E+00 -0.74505805969E-08  0.93827000000E+00  0.93827000000E+00 0.  1.
     999902    2    1    2    0    0 -0.21894161823E-01  0.44965182627E-02 -0.64797478077E-02  0.10206585555E+01  0.10203932216E+01 0.  0.
     999903    2    3    3    0    0 -0.94342211155E-01  0.35627910081E-01  0.82991442142E-01  0.13261408743E+00  0.23002520137E-01 0.  0.
         14    1    1    2    0    0  0.21894161823E-01 -0.44965182627E-02  0.64797478077E-02  0.23271444521E-01  0.00000000000E+00 0. -1.
     999901    1    3    3    0    0  0.72448049332E-01 -0.31131391819E-01 -0.89471189950E-01  0.88804446805E+00  0.88000000000E+00 0.  1.
        -11    1    4    4    0    0 -0.63104945410E-01  0.22086428664E-01  0.40526924276E-01  0.78183995668E-01  0.51100000000E-03 0.  1.
         11    1    4    4    0    0 -0.31237265745E-01  0.13541481417E-01  0.42464517866E-01  0.54430091758E-01  0.51100000000E-03 0. -1.
</event>
<event>
 8    1  0.1128298E+005  0.1043930E+01  0.7957747E-01            NaN
         13   -1    0    0    0    0  0.00000000000E+00  0.00000000000E+00  0.74505805969E-08  0.10566000000E+00  0.10566000000E+00 0. -1.
     999900   -1    0    0    0    0 -0.00000000000E+00 -0.00000000000E+00 -0.74505805969E-08  0.93827000000E+00  0.93827000000E+00 0. -1.
     999902    2    1    2    0    0 -0.18291695289E-01 -0.68555888654E-02 -0.11596293809E-01  0.10212130626E+01  0.10209603616E+01 0.  0.
     999903    2    3    3    0    0 -0.12176996684E+00 -0.51593265588E-01 -0.89675998027E-02  0.13401741199E+00  0.19760035224E-01 0.  0.
         14    1    1    2    0    0  0.18291695289E-01  0.68555888654E-02  0.11596293809E-01  0.22716937411E-01  0.00000000000E+00 0. -1.
     999901    1    3    3    0    0  0.10347827156E+00  0.44737676722E-01 -0.26286940066E-02  0.88719565060E+00  0.88000000000E+00 0.  1.
        -11    1    4    4    0    0 -0.44195025199E-01 -0.20972491305E-01 -0.12665110193E-01  0.50534263436E-01  0.51100000000E-03 0. -1.
         11    1    4    4    0    0 -0.77574941645E-01 -0.30620774283E-01  0.36975103905E-02  0.83483148557E-01  0.51100000000E-03 0.  1.
</event>
<event>
 8    1  0.1128298E+005  0.1043930E+01  0.7957747E-01            NaN
         13   -1    0    0    0    0  0.00000000000E+00  0.00000000000E+00  0.74505805969E-08  0.10566000000E+00  0.10566000000E+00 0. -1.
     999900   -1    0    0    0    0 -0.00000000000E+00 -0.00000000000E+00 -0.74505805969E-08  0.93827000000E+00  0.93827000000E+00 0.  1.
     999902    2    1    2    0    0  0.80914565616E-02 -0.44428155407E-02 -0.21931320524E-01  0.10201351876E+01  0.10198576409E+01 0.  0.
     999903    2    3    3    0    0 -0.62042341792E-01  0.63689320467E-01  0.89480588438E-01  0.12773765782E+00  0.20113473117E-01 0.  0.
         14    1    1    2    0    0 -0.80914565616E-02  0.44428155407E-02  0.21931320524E-01  0.23794812442E-01  0.00000000000E+00 0. -1.
     999901    1    3    3    0    0  0.70133798353E-01 -0.68132136008E-01 -0.11141190896E+00  0.89239752974E+00  0.88000000000E+00 0.  1.
        -11    1    4    4    0    0 -0.24711098286E-01  0.13180990157E-01  0.22635483590E-01  0.36013929505E-01  0.51100000000E-03 0.  1.
         11    1    4    4    0    0 -0.37331243506E-01  0.50508330311E-01  0.66845104848E-01  0.91723728313E-01  0.51100000000E-03 0. -1.
</event>
<event>
 8    1  0.1128298E+005  0.1043930E+01  0.7957747E-01            NaN
         13   -1    0    0    0    0  0.00000000000E+00  0.00000000000E+00  0.74505805969E-08  0.10566000000E+00  0.10566000000E+00 0. -1.
     999900   -1    0    0    0    0 -0.00000000000E+00 -0.00000000000E+00 -0.74505805969E-08  0.93827000000E+00  0.93827000000E+00 0. -1.
     999902    2    1    2    0    0 -0.35283431507E-02 -0.14821944312E-01  0.18902209793E-01  0.10196517634E+01  0.10193626861E+01 0.  0.
     999903    2    3    3    0    0 -0.27704511026E-01 -0.11577100877E+00 -0.50568083141E-01  0.13083157779E+00  0.19730796012E-01 0.  0.
         14    1    1    2    0    0  0.35283431507E-02  0.14821944312E-01 -0.18902209793E-01  0.24278236626E-01  0.00000000000E+00 0.  1.
     999901    1    3    3    0    0  0.24176167876E-01  0.10094906446E+00  0.69470292933E-01  0.88882018559E+00  0.88000000000E+00 0.  1.
        -11    1    4    4    0    0 -0.11743697910E-01 -0.39808209498E-01 -0.78938553872E-02  0.42251414863E-01  0.51100000000E-03 0.  1.
         11    1    4    4    0    0 -0.15960813116E-01 -0.75962799270E-01 -0.42674227753E-01  0.88580162924E-01  0.51100000000E-03 0. -1.
</event>
<event>
 8    1  0.1128298E+005  0.1043930E+01  0.7957747E-01            NaN
         13   -1    0    0    0    0  0.00000000000E+00  0.00000000000E+00  0.74505805969E-08  0.10566000000E+00  0.10566000000E+00 0.  1.
     999900   -1    0    0    0    0 -0.00000000000E+00 -0.00000000000E+00 -0.74505805969E-08  0.93827000000E+00  0.93827000000E+00 0. -1.
     999902    2    1    2    0    0 -0.17527927664E-01  0.16388533943E-01  0.77627824076E-02  0.10187095106E+01  0.10183972673E+01 0.  0.
     999903    2    3    3    0    0  0.41213206544E-01  0.11917149169E+00  0.27612864420E-01  0.13056037732E+00  0.19574703540E-01 0.  0.
         14    1    1    2    0    0  0.17527927664E-01 -0.16388533943E-01 -0.77627824076E-02  0.25220489363E-01  0.00000000000E+00 0.  1.
     999901    1    3    3    0    0 -0.58741134208E-01 -0.10278295775E+00 -0.19850082013E-01  0.88814913331E+00  0.88000000000E+00 0. -1.
        -11    1    4    4    0    0  0.33372469467E-01  0.91730766313E-01  0.12945174155E-01  0.98468745608E-01  0.51100000000E-03 0.  1.
         11    1    4    4    0    0  0.78407370775E-02  0.27440725382E-01  0.14667690265E-01  0.32091631714E-01  0.51100000000E-03 0. -1.
</event>
<event>
 7    1  0.1128298E+005  0.1043930E+01  0.7957747E-01            NaN
         13   -1    0    0    0    0  0.00000000000E+00  0.00000000000E+00  0.74505805969E-08  0.10566000000E+00  0.10566000000E+00 0.  1.
     999900   -1    0    0    0    0 -0.00000000000E+00 -0.00000000000E+00 -0.74505805969E-08  0.93827000000E+00  0.93827000000E+00 0.  1.
     999902    2    1    2    0    0  0.94022963119E-02 -0.16591453346E-01 -0.14226270107E-01  0.10201378529E+01  0.10198603692E+01 0.  0.
         14    1    1    2    0    0 -0.94022963119E-02  0.16591453346E-01  0.14226270107E-01  0.23792147050E-01  0.00000000000E+00 0.  1.
     999901    1    3    3    0    0  0.49626299576E-02 -0.12415409978E+00  0.49005802896E-01  0.89007889364E+00  0.88000000000E+00 0. -1.
        -11    1    3    3    0    0 -0.13967856786E-01  0.70774794666E-01 -0.35153871319E-01  0.80251033469E-01  0.51100000000E-03 0. -1.
         11    1    3    3    0    0  0.18407523140E-01  0.36787851764E-01 -0.28078201685E-01  0.49807925840E-01  0.51100000000E-03 0.  1.
</event>
<event>
 8    1  0.1128298E+005  0.1043930E+01  0.7957747E-01            NaN
         13   -1    0    0    0    0  0.00000000000E+00  0.00000000000E+00  0.74505805969E-08  0.10566000000E+00  0.10566000000E+00 0. -1.
     999900   -1    0    0    0    0 -0.00000000000E+00 -0.00000000000E+00 -0.74505805969E-08  0.93827000000E+00  0.93827000000E+00 0. -1.
     999902    2    1    2    0    0  0.17989902898E-01  0.81714804122E-02 -0.11917142164E-01  0.10208555991E+01  0.10205947904E+01 0.  0.
     999903    2    3    3    0    0  0.43587210016E-01  0.11013119499E+00 -0.58146106959E-01  0.13339398152E+00  0.19602539756E-01 0.  0.
         14    1    1    2    0    0 -0.17989902898E-01 -0.81714804122E-02  0.11917142164E-01  0.23074400876E-01  0.00000000000E+00 0. -1.
     999901    1    3    3    0    0 -0.25597307118E-01 -0.10195971458E+00  0.46228964795E-01  0.88746161760E+00  0.88000000000E+00 0.  1.
        -11    1    4    4    0    0  0.16223383266E-01  0.64959487927E-01 -0.27956515372E-01  0.72558673562E-01  0.51100000000E-03 0. -1.
         11    1    4    4    0    0  0.27363826751E-01  0.45171707064E-01 -0.30189591587E-01  0.60835307961E-01  0.51100000000E-03 0.  1.
</event>
<event>
 8    1  0.1128298E+005  0.1043930E+01  0.7957747E-01            NaN
         13   -1    0    0    0    0  0.00000000000E+00  0.00000000000E+00  0.74505805969E-08  0.10566000000E+00  0.10566000000E+00 0. -1.
     999900   -1    0    0    0    0 -0.00000000000E+00 -0.00000000000E+00 -0.74505805969E-08  0.93827000000E+00  0.93827000000E+00 0. -1.
     999902    2    1    2    0    0 -0.12947962359E-01 -0.11005960296E-01 -0.16892549145E-01  0.10199687999E+01  0.10196873118E+01 0.  0.
     999903    2    3    3    0    0  0.11345794331E+00  0.28509144656E-01 -0.52044321793E-01  0.12936476693E+00  0.18470388826E-01 0.  0.
         14    1    1    2    0    0  0.12947962359E-01  0.11005960296E-01  0.16892549145E-01  0.23961200051E-01  0.00000000000E+00 0. -1.
     999901    1    3    3    0    0 -0.12640590567E+00 -0.39515104952E-01  0.35151772648E-01  0.89060403302E+00  0.88000000000E+00 0.  1.
        -11    1    4    4    0    0  0.38898332733E-01  0.44981101122E-02 -0.25163651558E-01  0.46548724630E-01  0.51100000000E-03 0. -1.
         11    1    4    4    0    0  0.74559610576E-01  0.24011034544E-01 -0.26880670235E-01  0.82816042301E-01  0.51100000000E-03 0.  1.
</event>
<event>
 8    1  0.1128298E+005  0.1043930E+01  0.7957747E-01            NaN
         13   -1    0    0    0    0  0.00000000000E+00  0.00000000000E+00  0.74505805969E-08  0.10566000000E+00  0.10566000000E+00 0.  1.
     999900   -1    0    0    0    0 -0.00000000000E+00 -0.00000000000E+00 -0.74505805969E-08  0.93827000000E+00  0.93827000000E+00 0. -1.
     999902    2    1    2    0    0  0.73710570128E-02 -0.95634204597E-02  0.20242389693E-01  0.10203599802E+01  0.10200877136E+01 0.  0.
     999903    2    3    3    0    0  0.45277904306E-02 -0.13022989752E+00  0.18109066240E-01  0.13211843991E+00  0.12125048057E-01 0.  0.
         14    1    1    2    0    0 -0.73710570128E-02  0.95634204597E-02 -0.20242389693E-01  0.23570019789E-01  0.00000000000E+00 0. -1.
     999901    1    3    3    0    0  0.28432665823E-02  0.12066647706E+00  0.21333234535E-02  0.88824154030E+00  0.88000000000E+00 0. -1.
        -11    1    4    4    0    0 -0.37370758219E-02 -0.46150884997E-01  0.41929172342E-02  0.46494210367E-01  0.51100000000E-03 0.  1.
         11    1    4    4    0    0  0.82648662525E-02 -0.84079012519E-01  0.13916149005E-01  0.85624229541E-01  0.51100000000E-03 0. -1.
</event>
<event>
 8    1  0.1128298E+005  0.1043930E+01  0.7957747E-01            NaN
         13   -1    0    0    0    0  0.00000000000E+00  0.00000000000E+00  0.74505805969E-08  0.10566000000E+00  0.10566000000E+00 0.  1.
     999900   -1    0    0    0    0 -0.00000000000E+00 -0.00000000000E+00 -0.74505805969E-08  0.93827000000E+00  0.93827000000E+00 0.  1.
     999902    2    1    2    0    0  0.21894709977E-01  0.10790302109E-01 -0.19518162364E-02  0.10194428905E+01  0.10191487568E+01 0.  0.
     999903    2    3    3    0    0  0.10100138668E+00 -0.79260425498E-01 -0.15280854691E-01  0.13121732056E+00  0.22382706153E-01 0.  0.
         14    1    1    2    0    0 -0.21894709977E-01 -0.10790302109E-01  0.19518162364E-02  0.24487109491E-01  0.00000000000E+00 0. -1.
     999901    1    3    3    0    0 -0.79106676700E-01  0.90050727607E-01  0.13329038455E-01  0.88822556995E+00  0.88000000000E+00 0.  1.
        -11    1    4    4    0    0  0.49723755891E-01 -0.31196793530E-01 -0.16311286618E-01  0.60926275272E-01  0.51100000000E-03 0.  1.
         11    1    4    4    0    0  0.51277630786E-01 -0.48063631968E-01  0.10304319272E-02  0.70291045290E-01  0.51100000000E-03 0. -1.
</event>
<event>
 8    1  0.1128298E+005  0.1043930E+01  0.7957747E-01            NaN
         13   -1    0    0    0    0  0.00000000000E+00  0.00000000000E+00  0.74505805969E-08  0.10566000000E+00  0.10566000000E+00 0.  1.
     999900   -1    0    0    0    0 -0.00000000000E+00 -0.00000000000E+00 -0.74505805969E-08  0.93827000000E+00  0.93827000000E+00 0.  1.
     999902    2    1    2    0    0 -0.11409789633E-01  0.10621796563E-01 -0.17576157225E-01  0.10204368698E+01  0.10201663973E+01 0.  0.
     999903    2    3    3    0    0  0.55494527692E-01  0.10027139867E+00 -0.62890941985E-01  0.13219891268E+00  0.19679581639E-01 0.  0.
         14    1    1    2    0    0  0.11409789633E-01 -0.10621796563E-01  0.17576157225E-01  0.23493130155E-01  0.00000000000E+00 0.  1.
     999901    1    3    3    0    0 -0.66904317325E-01 -0.89649602111E-01  0.45314784761E-01  0.88823795717E+00  0.88000000000E+00 0. -1.
        -11    1    4    4    0    0  0.36184194136E-01  0.51843484586E-01 -0.26166259723E-01  0.68424974009E-01  0.51100000000E-03 0. -1.
         11    1    4    4    0    0  0.19310333556E-01  0.48427914088E-01 -0.36724682262E-01  0.63773938668E-01  0.51100000000E-03 0.  1.
</event>
<event>
 8    1  0.1128298E+005  0.1043930E+01  0.7957747E-01            NaN
         13   -1    0    0    0    0  0.00000000000E+00  0.00000000000E+00  0.74505805969E-08  0.10566000000E+00  0.10566000000E+00 0.  1.
     999900   -1    0    0    0    0 -0.00000000000E+00 -0.00000000000E+00 -0.74505805969E-08  0.93827000000E+00  0.93827000000E+00 0. -1.
     999902    2    1    2    0    0 -0.16482297645E-01 -0.23161415435E-01  0.17091710437E-01  0.10107600759E+01  0.10102156637E+01 0.  0.
     999903    2    3    3    0    0  0.72846239940E-01  0.91436890412E-01  0.14832799027E-01  0.11884221979E+00  0.15368203396E-01 0.  0.
         14    1    1    2    0    0  0.16482297645E-01  0.23161415435E-01 -0.17091710437E-01  0.33169924122E-01  0.00000000000E+00 0. -1.
     999901    1    3    3    0    0 -0.89328537585E-01 -0.11459830585E+00  0.22589114101E-02  0.89191785609E+00  0.88000000000E+00 0.  1.
        -11    1    4    4    0    0  0.34693625586E-01  0.55675676386E-01  0.72925431665E-02  0.66006597429E-01  0.51100000000E-03 0. -1.
         11    1    4    4    0    0  0.38152614353E-01  0.35761214027E-01  0.75402558604E-02  0.52835622359E-01  0.51100000000E-03 0.  1.
</event>
<event>
 8    1  0.1128298E+005  0.1043930E+01  0.7957747E-01            NaN
         13   -1    0    0    0    0  0.00000000000E+00  0.00000000000E+00  0.74505805969E-08  0.10566000000E+00  0.10566000000E+00 0.  1.
     999900   -1    0    0    0    0 -0.00000000000E+00 -0.00000000000E+00 -0.74505805969E-08  0.93827000000E+00  0.93827000000E+00 0.  1.
     999902    2    1    2    0    0 -0.30846780982E-02  0.20892514879E-03  0.22929326070E-01  0.10207931704E+01  0.10205309324E+01 0.  0.
     999903    2    3    3    0    0  0.10102323526E+00  0.49295518859E-01 -0.60754017908E-01  0.12936125863E+00  0.20187676950E-01 0.  0.
         14    1    1    2    0    0  0.30846780982E-02 -0.20892514879E-03 -0.22929326070E-01  0.23136829574E-01  0.00000000000E+00 0. -1.
     999901    1    3    3    0    0 -0.10410791336E+00 -0.49086593710E-01  0.83683343979E-01  0.89143191179E+00  0.88000000000E+00 0. -1.
        -11    1    4    4    0    0  0.84805880862E-01  0.38427226161E-01 -0.41501466686E-01  0.10193783398E+00  0.51100000000E-03 0. -1.
         11    1    4    4    0    0  0.16217354399E-01  0.10868292697E-01 -0.19252551222E-01  0.27423424648E-01  0.51100000000E-03 0.  1.
</event>
<event>
 8    1  0.1128298E+005  0.1043930E+01  0.7957747E-01            NaN
         13   -1    0    0    0    0  0.00000000000E+00  0.00000000000E+00  0.74505805969E-08  0.10566000000E+00  0.10566000000E+00 0.  1.
     999900   -1    0    0    0    0 -0.00000000000E+00 -0.00000000000E+00 -0.74505805969E-08  0.93827000000E+00  0.93827000000E+00 0.  1.
     999902    2    1    2    0    0  0.28917290230E-02  0.22865308073E-01  0.46080885747E-02  0.10204264069E+01  0.10201556905E+01 0.  0.
     999903    2    3    3    0    0  0.10178144684E+00 -0.70473129239E-01  0.31955865900E-01  0.12956214049E+00  0.20958196904E-01 0.  0.
         14    1    1    2    0    0 -0.28917290230E-02 -0.22865308073E-01 -0.46080885747E-02  0.23503593136E-01  0.00000000000E+00 0. -1.
     999901    1    3    3    0    0 -0.98889717821E-01  0.93338437312E-01 -0.27347777325E-01  0.89086426637E+00  0.88000000000E+00 0. -1.
        -11    1    4    4    0    0  0.49165169685E-01 -0.21919701083E-01  0.16632240533E-01  0.56343409125E-01  0.51100000000E-03 0.  1.
         11    1    4    4    0    0  0.52616277159E-01 -0.48553428157E-01  0.15323625367E-01  0.73218731369E-01  0.51100000000E-03 0. -1.
</event>
<event>
 8    1  0.1128298E+005  0.1043930E+01  0.7957747E-01            NaN
         13   -1    0    0    0    0  0.00000000000E+00  0.00000000000E+00  0.74505805969E-08  0.10566000000E+00  0.10566000000E+00 0. -1.
     999900   -1    0    0    0    0 -0.00000000000E+00 -0.00000000000E+00 -0.74505805969E-08  0.93827000000E+00  0.93827000000E+00 0. -1.
     999902    2    1    2    0    0 -0.14557829128E-01 -0.17763838926E-01  0.49881855577E-02  0.10204275244E+01  0.10201568342E+01 0.  0.
     999903    2    3    3    0    0  0.12055145429E+00  0.34573342029E-01  0.18955378105E-01  0.12846968830E+00  0.20425115528E-01 0.  0.
         14    1    1    2    0    0  0.14557829128E-01  0.17763838926E-01 -0.49881855577E-02  0.23502475561E-01  0.00000000000E+00 0.  1.
     999901    1    3    3    0    0 -0.13510928341E+00 -0.52337180955E-01 -0.13967192547E-01  0.89195783614E+00  0.88000000000E+00 0. -1.
        -11    1    4    4    0    0  0.72769526079E-01  0.19097080633E-01  0.13570986076E-02  0.75247626222E-01  0.51100000000E-03 0. -1.
         11    1    4    4    0    0  0.47781928207E-01  0.15476261396E-01  0.17598279497E-01  0.53222062082E-01  0.51100000000E-03 0.  1.
</event>
<event>
 8    1  0.1128298E+005  0.1043930E+01  0.7957747E-01            NaN
         13   -1    0    0    0    0  0.00000000000E+00  0.00000000000E+00  0.74505805969E-08  0.10566000000E+00  0.10566000000E+00 0.  1.
     999900   -1    0    0    0    0 -0.00000000000E+00 -0.00000000000E+00 -0.74505805969E-08  0.93827000000E+00  0.93827000000E+00 0. -1.
     999902    2    1    2    0    0  0.99924184873E-02 -0.20964097822E-01 -0.87662899946E-02  0.10191068321E+01  0.10188044688E+01 0.  0.
     999903    2    3    3    0    0  0.12451283970E+00 -0.34597037724E-01 -0.13794081842E-01  0.13156750191E+00  0.20477514395E-01 0.  0.
         14    1    1    2    0    0 -0.99924184873E-02  0.20964097822E-01  0.87662899946E-02  0.24823167908E-01  0.00000000000E+00 0. -1.
     999901    1    3    3    0    0 -0.11452042121E+00  0.13632939902E-01  0.50277918479E-02  0.88753933018E+00  0.88000000000E+00 0. -1.
        -11    1    4    4    0    0  0.11189998019E+00 -0.30083728152E-01 -0.59317525808E-02  0.11602621719E+00  0.51100000000E-03 0.  1.
         11    1    4    4    0    0  0.12612859508E-01 -0.45133095723E-02 -0.78623292617E-02  0.15541284718E-01  0.51100000000E-03 0. -1.
</event>
<event>
 8    1  0.1128298E+005  0.1043930E+01  0.7957747E-01            NaN
         13   -1    0    0    0    0  0.00000000000E+00  0.00000000000E+00  0.74505805969E-08  0.10566000000E+00  0.10566000000E+00 0.  1.
     999900   -1    0    0    0    0 -0.00000000000E+00 -0.00000000000E+00 -0.74505805969E-08  0.93827000000E+00  0.93827000000E+00 0.  1.
     999902    2    1    2    0    0 -0.20078664581E-02  0.15826248903E-01  0.16162501427E-01  0.10212203515E+01  0.10209678145E+01 0.  0.
     999903    2    3    3    0    0 -0.66417815852E-01 -0.23685262965E-01  0.11091557635E+00  0.13291412821E+00  0.19788442523E-01 0.  0.
         14    1    1    2    0    0  0.20078664581E-02 -0.15826248903E-01 -0.16162501427E-01  0.22709648488E-01  0.00000000000E+00 0.  1.
     999901    1    3    3    0    0  0.64409949393E-01  0.39511511868E-01 -0.94753074919E-01  0.88830622330E+00  0.88000000000E+00 0.  1.
        -11    1    4    4    0    0 -0.35786058089E-01 -0.22578916226E-01  0.69840941564E-01  0.81660686080E-01  0.51100000000E-03 0.  1.
         11    1    4    4    0    0 -0.30631757763E-01 -0.11063467392E-02  0.41074634782E-01  0.51253442130E-01  0.51100000000E-03 0. -1.
</event>
<event>
 8    1  0.1128298E+005  0.1043930E+01  0.7957747E-01            NaN
         13   -1    0    0    0    0  0.00000000000E+00  0.00000000000E+00  0.74505805969E-08  0.10566000000E+00  0.10566000000E+00 0. -1.
     999900   -1    0    0    0    0 -0.00000000000E+00 -0.00000000000E+00 -0.74505805969E-08  0.93827000000E+00  0.93827000000E+00 0.  1.
     999902    2    1    2    0    0  0.82273447216E-02 -0.14601336965E-01 -0.16949864685E-01  0.10200933443E+01  0.10198148091E+01 0.  0.
     999903    2    3    3    0    0 -0.84770313680E-01  0.35046261255E-01  0.86789454864E-01  0.12775075599E+00  0.19328726603E-01 0.  0.
         14    1    1    2    0    0 -0.82273447216E-02  0.14601336965E-01  0.16949864685E-01  0.23836655704E-01  0.00000000000E+00 0. -1.
     999901    1    3    3    0    0  0.92997658401E-01 -0.49647598220E-01 -0.10373931955E+00  0.89234258830E+00  0.88000000000E+00 0.  1.
        -11    1    4    4    0    0 -0.50624637334E-01  0.10971000545E-01  0.44334936973E-01  0.68184048835E-01  0.51100000000E-03 0. -1.
         11    1    4    4    0    0 -0.34145676345E-01  0.24075260710E-01  0.42454517891E-01  0.59566707158E-01  0.51100000000E-03 0.  1.
</event>
<event>
 8    1  0.1128298E+005  0.1043930E+01  0.7957747E-01            NaN
         13   -1    0    0    0    0  0.00000000000E+00  0.00000000000E+00  0.74505805969E-08  0.10566000000E+00  0.10566000000E+00 0.  1.
     999900   -1    0    0    0    0 -0.00000000000E+00 -0.00000000000E+00 -0.74505805969E-08  0.93827000000E+00  0.93827000000E+00 0.  1.
     999902    2    1    2    0    0  0.16351434120E-01 -0.98105029661E-04  0.17702952944E-01  0.10198307559E+01  0.10195459760E+01 0.  0.
     999903    2    3    3    0    0 -0.58247756712E-01 -0.74383095570E-01 -0.83091151879E-01  0.12784266706E+00  0.22670728542E-01 0.  0.
         14    1    1    2    0    0 -0.16351434120E-01  0.98105029661E-04 -0.17702952944E-01  0.24099244082E-01  0.00000000000E+00 0. -1.
     999901    1    3    3    0    0  0.74599190832E-01  0.74284990541E-01  0.10079410482E+00  0.89198808886E+00  0.88000000000E+00 0. -1.
        -11    1    4    4    0    0 -0.33143590526E-01 -0.52488714827E-01 -0.65204519071E-01  0.90030290489E-01  0.51100000000E-03 0. -1.
         11    1    4    4    0    0 -0.25104166185E-01 -0.21894380743E-01 -0.17886632808E-01  0.37812376574E-01  0.51100000000E-03 0.  1.
</event>
<event>
 7    1  0.1128298E+005  0.1043930E+01  0.7957747E-01            NaN
         13   -1    0    0    0    0  0.00000000000E+00  0.00000000000E+00  0.74505805969E-08  0.10566000000E+00  0.10566000000E+00 0. -1.
     999900   -1    0    0    0    0 -0.00000000000E+00 -0.00000000000E+00 -0.74505805969E-08  0.93827000000E+00  0.93827000000E+00 0.  1.
     999903    2    1    2    0    0 -0.28441072254E-01  0.65200668536E-01  0.18028543387E-01  0.76144584632E-01  0.20321112755E-01 0.  0.
         14    1    1    2    0    0  0.11142235850E-01  0.50756619218E-01 -0.59555137749E-01  0.79039219673E-01  0.00000000000E+00 0.  1.
     999901    1    1    2    0    0  0.17298836404E-01 -0.11595728775E+00  0.41526594361E-01  0.88874619570E+00  0.88000000000E+00 0. -1.
        -11    1    3    3    0    0 -0.93978923789E-02  0.23491320923E-01 -0.33942873097E-02  0.25533210672E-01  0.51100000000E-03 0.  1.
         11    1    3    3    0    0 -0.19043179875E-01  0.41709347613E-01  0.21422830697E-01  0.50611373960E-01  0.51100000000E-03 0. -1.
</event>
<event>
 8    1  0.1128298E+005  0.1043930E+01  0.7957747E-01            NaN
         13   -1    0    0    0    0  0.00000000000E+00  0.00000000000E+00  0.74505805969E-08  0.10566000000E+00  0.10566000000E+00 0. -1.
     999900   -1    0    0    0    0 -0.00000000000E+00 -0.00000000000E+00 -0.74505805969E-08  0.93827000000E+00  0.93827000000E+00 0.  1.
     999902    2    1    2    0    0 -0.11150894667E-01 -0.19584570732E-02  0.20734192328E-01  0.10203061828E+01  0.10200326573E+01 0.  0.
     999903    2    3    3    0    0  0.12060211737E+00  0.39479541864E-02  0.41626272531E-01  0.13023302804E+00  0.25834820916E-01 0.  0.
         14    1    1    2    0    0  0.11150894667E-01  0.19584570732E-02 -0.20734192328E-01  0.23623817165E-01  0.00000000000E+00 0.  1.
     999901    1    3    3    0    0 -0.13175301203E+00 -0.59064112595E-02 -0.20892080203E-01  0.89007315480E+00  0.88000000000E+00 0.  1.
        -11    1    4    4    0    0  0.85718472805E-01  0.12030897458E-01  0.21649326198E-01  0.89226417161E-01  0.51100000000E-03 0. -1.
         11    1    4    4    0    0  0.34883644561E-01 -0.80829432716E-02  0.19976946333E-01  0.41006610877E-01  0.51100000000E-03 0.  1.
</event>
<event>
 8    1  0.1128298E+005  0.1043930E+01  0.7957747E-01            NaN
         13   -1    0    0    0    0  0.00000000000E+00  0.00000000000E+00  0.74505805969E-08  0.10566000000E+00  0.10566000000E+00 0. -1.
     999900   -1    0    0    0    0 -0.00000000000E+00 -0.00000000000E+00 -0.74505805969E-08  0.93827000000E+00  0.93827000000E+00 0.  1.
     999902    2    1    2    0    0 -0.76564186754E-02 -0.20082815467E-02 -0.21271777967E-01  0.10212332496E+01  0.10209810026E+01 0.  0.
     999903    2    3    3    0    0  0.70141650888E-01  0.66320262931E-01 -0.88398000554E-01  0.13262351557E+00  0.21367309515E-01 0.  0.
         14    1    1    2    0    0  0.76564186754E-02  0.20082815467E-02  0.21271777967E-01  0.22696750419E-01  0.00000000000E+00 0. -1.
     999901    1    3    3    0    0 -0.77798069563E-01 -0.68328544478E-01  0.67126222586E-01  0.88860973401E+00  0.88000000000E+00 0. -1.
        -11    1    4    4    0    0  0.42370870538E-01  0.52685276435E-01 -0.65448118577E-01  0.94099661899E-01  0.51100000000E-03 0.  1.
         11    1    4    4    0    0  0.27770780350E-01  0.13634986496E-01 -0.22949881977E-01  0.38523853672E-01  0.51100000000E-03 0. -1.
</event>
<event>
 8    1  0.1128298E+005  0.1043930E+01  0.7957747E-01            NaN
         13   -1    0    0    0    0  0.00000000000E+00  0.00000000000E+00  0.74505805969E-08  0.10566000000E+00  0.10566000000E+00 0. -1.
     999900   -1    0    0    0    0 -0.00000000000E+00 -0.00000000000E+00 -0.74505805969E-08  0.93827000000E+00  0.93827000000E+00 0.  1.
     999902    2    1    2    0    0 -0.45153225352E-02  0.27083647824E-01  0.14103655850E-01  0.10130621328E+01  0.10125917537E+01 0.  0.
     999903    2    3    3    0    0  0.62528956987E-01  0.54518984889E-01  0.93207991960E-01  0.12654922871E+00  0.21089982118E-01 0.  0.
         14    1    1    2    0    0  0.45153225352E-02 -0.27083647824E-01 -0.14103655850E-01  0.30867867199E-01  0.00000000000E+00 0.  1.
     999901    1    3    3    0    0 -0.67044279522E-01 -0.27435337065E-01 -0.79104336110E-01  0.88651290410E+00  0.88000000000E+00 0.  1.
        -11    1    4    4    0    0  0.28220988861E-01  0.11920258491E-01  0.28819173086E-01  0.42063316954E-01  0.51100000000E-03 0.  1.
         11    1    4    4    0    0  0.34307968126E-01  0.42598726398E-01  0.64388818873E-01  0.84485911752E-01  0.51100000000E-03 0. -1.
</event>
<event>
 8    1  0.1128298E+005  0.1043930E+01  0.7957747E-01            NaN
         13   -1    0    0    0    0  0.00000000000E+00  0.00000000000E+00  0.74505805969E-08  0.10566000000E+00  0.10566000000E+00 0. -1.
     999900   -1    0    0    0    0 -0.00000000000E+00 -0.00000000000E+00 -0.74505805969E-08  0.93827000000E+00  0.93827000000E+00 0. -1.
     999902    2    1    2    0    0  0.21884950871E-01 -0.51452706080E-02 -0.19889579238E-02  0.10213605331E+01  0.10211111387E+01 0.  0.
     999903    2    3    3    0    0 -0.68232496519E-01  0.85954198963E-01  0.65843046343E-01  0.12949650280E+00  0.19754482630E-01 0.  0.
         14    1    1    2    0    0 -0.21884950871E-01  0.51452706080E-02  0.19889579238E-02  0.22569466938E-01  0.00000000000E+00 0. -1.
     999901    1    3    3    0    0  0.90117447390E-01 -0.91099469571E-01 -0.67832004267E-01  0.89186403027E+00  0.88000000000E+00 0. -1.
        -11    1    4    4    0    0 -0.31544260148E-01  0.49247944621E-01  0.43989785830E-01  0.73183077115E-01  0.51100000000E-03 0. -1.
         11    1    4    4    0    0 -0.36688236371E-01  0.36706254342E-01  0.21853260514E-01  0.56313425680E-01  0.51100000000E-03 0.  1.
</event>
<event>
 8    1  0.1128298E+005  0.1043930E+01  0.7957747E-01            NaN
         13   -1    0    0    0    0  0.00000000000E+00  0.00000000000E+00  0.74505805969E-08  0.10566000000E+00  0.10566000000E+00 0. -1.
     999900   -1    0    0    0    0 -0.00000000000E+00 -0.00000000000E+00 -0.74505805969E-08  0.93827000000E+00  0.93827000000E+00 0.  1.
     999902    2    1    2    0    0  0.77067019254E-02 -0.82800501439E-02 -0.19900705592E-01  0.10210391597E+01  0.10207825308E+01 0.  0.
     999903    2    3    3    0    0 -0.62506434668E-01  0.87510819397E-01 -0.71084617434E-01  0.13158676187E+00  0.26398014644E-01 0.  0.
         14    1    1    2    0    0 -0.77067019254E-02  0.82800501439E-02  0.19900705592E-01  0.22890840265E-01  0.00000000000E+00 0. -1.
     999901    1    3    3    0    0  0.70213136593E-01 -0.95790869541E-01  0.51183911842E-01  0.88945239787E+00  0.88000000000E+00 0. -1.
        -11    1    4    4    0    0 -0.48483460799E-01  0.52455517256E-01 -0.35772768337E-01  0.79888543216E-01  0.51100000000E-03 0.  1.
         11    1    4    4    0    0 -0.14022973869E-01  0.35055302141E-01 -0.35311849098E-01  0.51698218654E-01  0.51100000000E-03 0. -1.
</event>
<event>
 8    1  0.1128298E+005  0.1043930E+01  0.7957747E-01            NaN
         13   -1    0    0    0    0  0.00000000000E+00  0.00000000000E+00  0.74505805969E-08  0.10566000000E+00  0.10566000000E+00 0.  1.
     999900   -1    0    0    0    0 -0.00000000000E+00 -0.00000000000E+00 -0.74505805969E-08  0.93827000000E+00  0.93827000000E+00 0. -1.
     999902    2    1    2    0    0 -0.13491284285E-01 -0.16090563562E-01 -0.94174234266E-02  0.10209167679E+01  0.10206573559E+01 0.  0.
     999903    2    3    3    0    0 -0.20221997898E-02  0.11237638352E+00 -0.62003113995E-01  0.12996191426E+00  0.20326636413E-01 0.  0.
         14    1    1    2    0    0  0.13491284285E-01  0.16090563562E-01  0.94174234266E-02  0.23013232094E-01  0.00000000000E+00 0.  1.
     999901    1    3    3    0    0 -0.11469084495E-01 -0.12846694708E+00  0.52585690568E-01  0.89095485365E+00  0.88000000000E+00 0.  1.
        -11    1    4    4    0    0  0.38687991680E-02  0.82131119204E-01 -0.36504566276E-01  0.89962952534E-01  0.51100000000E-03 0. -1.
         11    1    4    4    0    0 -0.58909989579E-02  0.30245264312E-01 -0.25498547719E-01  0.39998961721E-01  0.51100000000E-03 0.  1.
</event>
<event>
 8    1  0.1128298E+005  0.1043930E+01  0.7957747E-01            NaN
         13   -1    0    0    0    0  0.00000000000E+00  0.00000000000E+00  0.74505805969E-08  0.10566000000E+00  0.10566000000E+00 0. -1.
     999900   -1    0    0    0    0 -0.00000000000E+00 -0.00000000000E+00 -0.74505805969E-08  0.93827000000E+00  0.93827000000E+00 0. -1.
     999902    2    1    2    0    0 -0.74381263643E-03  0.20180812802E-01 -0.61051807879E-02  0.10228328036E+01  0.10226152025E+01 0.  0.
     999903    2    3    3    0    0 -0.92651058626E-02 -0.21258534313E-01 -0.12956751783E+00  0.13320772495E+00  0.20464330999E-01 0.  0.
         14    1    1    2    0    0  0.74381263643E-03 -0.20180812802E-01  0.61051807879E-02  0.21097196379E-01  0.00000000000E+00 0. -1.
     999901    1    3    3    0    0  0.85212932261E-02  0.41439347116E-01  0.12346233704E+00  0.88962507867E+00  0.88000000000E+00 0.  1.
        -11    1    4    4    0    0 -0.12534199023E-01 -0.40973841142E-02 -0.64331531253E-01  0.65671163658E-01  0.51100000000E-03 0. -1.
         11    1    4    4    0    0  0.32690931605E-02 -0.17161150199E-01 -0.65235986575E-01  0.67536561295E-01  0.51100000000E-03 0.  1.
</event>
<event>
 8    1  0.1128298E+005  0.1043930E+01  0.7957747E-01            NaN
         13   -1    0    0    0    0  0.00000000000E+00  0.00000000000E+00  0.74505805969E-08  0.10566000000E+00  0.10566000000E+00 0. -1.
     999900   -1    0    0    0    0 -0.00000000000E+00 -0.00000000000E+00 -0.74505805969E-08  0.93827000000E+00  0.93827000000E+00 0. -1.
     999902    2    1    2    0    0  0.15203210612E-01  0.10768409127E-02 -0.17194577543E-01  0.10209528223E+01  0.10206942317E+01 0.  0.
     999903    2    3    3    0    0  0.12371104496E+00  0.27158837519E-01 -0.37683835114E-01  0.13366818343E+00  0.20126766562E-01 0.  0.
         14    1    1    2    0    0 -0.15203210612E-01 -0.10768409127E-02  0.17194577543E-01  0.22977177724E-01  0.00000000000E+00 0.  1.
     999901    1    3    3    0    0 -0.10850783435E+00 -0.26081996606E-01  0.20489257571E-01  0.88728463885E+00  0.88000000000E+00 0.  1.
        -11    1    4    4    0    0  0.22579625850E-01  0.95626093686E-02 -0.63401810804E-03  0.24534589897E-01  0.51100000000E-03 0. -1.
         11    1    4    4    0    0  0.10113141911E+00  0.17596228150E-01 -0.37049817006E-01  0.10913359353E+00  0.51100000000E-03 0.  1.
</event>
<event>
 8    1  0.1128298E+005  0.1043930E+01  0.7957747E-01            NaN
         13   -1    0    0    0    0  0.00000000000E+00  0.00000000000E+00  0.74505805969E-08  0.10566000000E+00  0.10566000000E+00 0.  1.
     999900   -1    0    0    0    0 -0.00000000000E+00 -0.00000000000E+00 -0.74505805969E-08  0.93827000000E+00  0.93827000000E+00 0.  1.
     999902    2    1    2    0    0 -0.30247532949E-02 -0.16173613655E-01 -0.15853405556E-01  0.10210812499E+01  0.10208255745E+01 0.  0.
     999903    2    3    3    0    0 -0.27314938855E-02  0.10697482379E+00 -0.72249206286E-01  0.13071834080E+00  0.20402520157E-01 0.  0.
         14    1    1    2    0    0  0.30247532949E-02  0.16173613655E-01  0.15853405556E-01  0.22848750051E-01  0.00000000000E+00 0.  1.
     999901    1    3    3    0    0 -0.29325940942E-03 -0.12314843745E+00  0.56395800730E-01  0.89036290915E+00  0.88000000000E+00 0. -1.
        -11    1    4    4    0    0  0.55264373402E-02  0.29152616606E-01 -0.12252065124E-01  0.32105930690E-01  0.51100000000E-03 0.  1.
         11    1    4    4    0    0 -0.82579312257E-02  0.77822207185E-01 -0.59997141162E-01  0.98612410111E-01  0.51100000000E-03 0. -1.
</event>
<event>
 8    1  0.1128298E+005  0.1043930E+01  0.7957747E-01            NaN
         13   -1    0    0    0    0  0.00000000000E+00  0.00000000000E+00  0.74505805969E-08  0.10566000000E+00  0.10566000000E+00 0. -1.
     999900   -1    0    0    0    0 -0.00000000000E+00 -0.00000000000E+00 -0.74505805969E-08  0.93827000000E+00  0.93827000000E+00 0.  1.
     999902    2    1    2    0    0  0.91278481400E-02  0.17318660832E-01 -0.73551347124E-02  0.10230170463E+01  0.10228032682E+01 0.  0.
     999903    2    3    3    0    0 -0.49456478892E-01 -0.73199085379E-01  0.94211895993E-01  0.13063739199E+00  0.19651906629E-01 0.  0.
         14    1    1    2    0    0 -0.91278481400E-02 -0.17318660832E-01  0.73551347124E-02  0.20912953672E-01  0.00000000000E+00 0.  1.
     999901    1    3    3    0    0  0.58584327032E-01  0.90517746211E-01 -0.10156703071E+00  0.89237965434E+00  0.88000000000E+00 0.  1.
        -11    1    4    4    0    0 -0.17113964222E-01 -0.23933038880E-01  0.18768713699E-01  0.34902777201E-01  0.51100000000E-03 0. -1.
         11    1    4    4    0    0 -0.32342514670E-01 -0.49266046499E-01  0.75443182294E-01  0.95734614787E-01  0.51100000000E-03 0.  1.
</event>
<event>
 8    1  0.1128298E+005  0.1043930E+01  0.7957747E-01            NaN
         13   -1    0    0    0    0  0.00000000000E+00  0.00000000000E+00  0.74505805969E-08  0.10566000000E+00  0.10566000000E+00 0. -1.
     999900   -1    0    0    0    0 -0.00000000000E+00 -0.00000000000E+00 -0.74505805969E-08  0.93827000000E+00  0.93827000000E+00 0. -1.
     999902    2    1    2    0    0 -0.21038678852E-01  0.78763900892E-02 -0.47329637235E-02  0.10209721152E+01  0.10207139636E+01 0.  0.
     999903    2    3    3    0    0 -0.12398632123E+00  0.47049088007E-01 -0.85209433357E-03  0.13409682607E+00  0.19874812230E-01 0.  0.
         14    1    1    2    0    0  0.21038678852E-01 -0.78763900892E-02  0.47329637235E-02  0.22957884795E-01  0.00000000000E+00 0. -1.
     999901    1    3    3    0    0  0.10294764238E+00 -0.39172697918E-01 -0.38808693899E-02  0.88687528914E+00  0.88000000000E+00 0. -1.
        -11    1    4    4    0    0 -0.28807653189E-01  0.32034180449E-02 -0.39496031056E-02  0.29257533305E-01  0.51100000000E-03 0. -1.
         11    1    4    4    0    0 -0.95178668046E-01  0.43845669962E-01  0.30975087721E-02  0.10483929276E+00  0.51100000000E-03 0.  1.
</event>
<event>
 8    1  0.1128298E+005  0.1043930E+01  0.7957747E-01            NaN
         13   -1    0    0    0    0  0.00000000000E+00  0.00000000000E+00  0.74505805969E-08  0.10566000000E+00  0.10566000000E+00 0.  1.
     999900   -1    0    0    0    0 -0.00000000000E+00 -0.00000000000E+00 -0.74505805969E-08  0.93827000000E+00  0.93827000000E+00 0. -1.
     999902    2    1    2    0    0 -0.11637370797E-01 -0.19310675867E-01 -0.55365576465E-02  0.10207139695E+01  0.10204499123E+01 0.  0.
     999903    2    3    3    0    0 -0.58874587301E-01 -0.83494105062E-01  0.82570161733E-01  0.13273105232E+00  0.19032026465E-01 0.  0.
         14    1    1    2    0    0  0.11637370797E-01  0.19310675867E-01  0.55365576465E-02  0.23216030498E-01  0.00000000000E+00 0.  1.
     999901    1    3    3    0    0  0.47237216504E-01  0.64183429195E-01 -0.88106719380E-01  0.88798291718E+00  0.88000000000E+00 0. -1.
        -11    1    4    4    0    0 -0.31637721941E-01 -0.33625352594E-01  0.28301906682E-01  0.54155967626E-01  0.51100000000E-03 0.  1.
         11    1    4    4    0    0 -0.27236865361E-01 -0.49868752468E-01  0.54268255051E-01  0.78575084694E-01  0.51100000000E-03 0. -1.
</event>
<event>
 8    1  0.1128298E+005  0.1043930E+01  0.7957747E-01            NaN
         13   -1    0    0    0    0  0.00000000000E+00  0.00000000000E+00  0.74505805969E-08  0.10566000000E+00  0.10566000000E+00 0.  1.
     999900   -1    0    0    0    0 -0.00000000000E+00 -0.00000000000E+00 -0.74505805969E-08  0.93827000000E+00  0.93827000000E+00 0.  1.
     999902    2    1    2    0    0 -0.18338864467E-01 -0.31757324237E-02  0.14468653001E-01  0.10203558373E+01  0.10200834738E+01 0.  0.
     999903    2    3    3    0    0 -0.10866080319E+00  0.22956860539E-01 -0.68257379434E-01  0.13148882732E+00  0.17206227518E-01 0.  0.
         14    1    1    2    0    0  0.18338864467E-01  0.31757324237E-02 -0.14468653001E-01  0.23574162680E-01  0.00000000000E+00 0.  1.
     999901    1    3    3    0    0  0.90321938727E-01 -0.26132592962E-01  0.82726032435E-01  0.88886701000E+00  0.88000000000E+00 0. -1.
        -11    1    4    4    0    0 -0.34908564107E-01 -0.20339617248E-03 -0.24587633565E-01  0.42702014746E-01  0.51100000000E-03 0. -1.
         11    1    4    4    0    0 -0.73752239087E-01  0.23160256711E-01 -0.43669745869E-01  0.88786812571E-01  0.51100000000E-03 0.  1.
</event>
<event>
 8    1  0.1128298E+005  0.1043930E+01  0.7957747E-01            NaN
         13   -1    0    0    0    0  0.00000000000E+00  0.00000000000E+00  0.74505805969E-08  0.10566000000E+00  0.10566000000E+00 0. -1.
     999900   -1    0    0    0    0 -0.00000000000E+00 -0.00000000000E+00 -0.74505805969E-08  0.93827000000E+00  0.93827000000E+00 0. -1.
     999902    2    1    2    0    0 -0.10865868464E-01 -0.20583752443E-01 -0.46412935390E-02  0.10201960672E+01  0.10199199556E+01 0.  0.
     999903    2    3    3    0    0  0.11045660628E+00 -0.35747349592E-01 -0.55368083423E-01  0.13029591278E+00  0.20805416397E-01 0.  0.
         14    1    1    2    0    0  0.10865868464E-01  0.20583752443E-01  0.46412935390E-02  0.23733932835E-01  0.00000000000E+00 0. -1.
     999901    1    3    3    0    0 -0.12132247475E+00  0.15163597149E-01  0.50726789884E-01  0.88990015438E+00  0.88000000000E+00 0.  1.
        -11    1    4    4    0    0  0.35520122273E-01 -0.48478600949E-02 -0.92132441683E-02  0.37017912189E-01  0.51100000000E-03 0. -1.
         11    1    4    4    0    0  0.74936484011E-01 -0.30899489497E-01 -0.46154839254E-01  0.93278000594E-01  0.51100000000E-03 0.  1.
</event>
<event>
 8    1  0.1128298E+005  0.1043930E+01  0.7957747E-01            NaN
         13   -1    0    0    0    0  0.00000000000E+00  0.00000000000E+00  0.74505805969E-08  0.10566000000E+00  0.10566000000E+00 0.  1.
     999900   -1    0    0    0    0 -0.00000000000E+00 -0.00000000000E+00 -0.74505805969E-08  0.93827000000E+00  0.93827000000E+00 0. -1.
     999902    2    1    2    0    0  0.99765046859E-02 -0.14245459692E-01  0.16000553019E-01  0.10202977876E+01  0.10200240653E+01 0.  0.
     999903    2    3    3    0    0 -0.17927986983E-01 -0.86851512658E-01  0.97324278495E-01  0.13313159800E+00  0.19682714085E-01 0.  0.
         14    1    1    2    0    0 -0.99765046859E-02  0.14245459692E-01 -0.16000553019E-01  0.23632212433E-01  0.00000000000E+00 0. -1.
     999901    1    3    3    0    0  0.27904491669E-01  0.72606052965E-01 -0.81323725476E-01  0.88716618957E+00  0.88000000000E+00 0. -1.
        -11    1    4    4    0    0 -0.10470360753E-02 -0.26753688216E-01  0.18343786069E-01  0.32459385793E-01  0.51100000000E-03 0. -1.
         11    1    4    4    0    0 -0.16880950907E-01 -0.60097824441E-01  0.78980492426E-01  0.10067221221E+00  0.51100000000E-03 0.  1.
</event>
<event>
 8    1  0.1128298E+005  0.1043930E+01  0.7957747E-01            NaN
         13   -1    0    0    0    0  0.00000000000E+00  0.00000000000E+00  0.74505805969E-08  0.10566000000E+00  0.10566000000E+00 0.  1.
     999900   -1    0    0    0    0 -0.00000000000E+00 -0.00000000000E+00 -0.74505805969E-08  0.93827000000E+00  0.93827000000E+00 0. -1.
     999902    2    1    2    0    0  0.10527913211E-01 -0.21175885398E-01  0.28184469446E-02  0.10201140658E+01  0.10198360204E+01 0.  0.
     999903    2    3    3    0    0  0.92244267592E-01  0.75196923767E-01 -0.47747402370E-01  0.12965228332E+00  0.19139432873E-01 0.  0.
         14    1    1    2    0    0 -0.10527913211E-01  0.21175885398E-01 -0.28184469446E-02  0.23815934207E-01  0.00000000000E+00 0.  1.
     999901    1    3    3    0    0 -0.81716354381E-01 -0.96372809165E-01  0.50565849314E-01  0.89046178247E+00  0.88000000000E+00 0.  1.
        -11    1    4    4    0    0  0.58145584548E-01  0.58816091895E-01 -0.32741914963E-01  0.88952435519E-01  0.51100000000E-03 0.  1.
         11    1    4    4    0    0  0.34098683043E-01  0.16380831872E-01 -0.15005487406E-01  0.40699847806E-01  0.51100000000E-03 0. -1.
</event>
<event>
 8    1  0.1128298E+005  0.1043930E+01  0.7957747E-01            NaN
         13   -1    0    0    0    0  0.00000000000E+00  0.00000000000E+00  0.74505805969E-08  0.10566000000E+00  0.10566000000E+00 0. -1.
     999900   -1    0    0    0    0 -0.00000000000E+00 -0.00000000000E+00 -0.74505805969E-08  0.93827000000E+00  0.93827000000E+00 0. -1.
     999902    2    1    2    0    0 -0.21945084791E-01 -0.75638591533E-02  0.40429433586E-02  0.10203685038E+01  0.10200964364E+01 0.  0.
     999903    2    3    3    0    0 -0.54771209020E-01  0.10326441168E+00  0.56041404307E-01  0.13128791129E+00  0.20795494647E-01 0.  0.
         14    1    1    2    0    0  0.21945084791E-01  0.75638591533E-02 -0.40429433586E-02  0.23561496191E-01  0.00000000000E+00 0.  1.
     999901    1    3    3    0    0  0.32826124229E-01 -0.11082827083E+00 -0.51998460948E-01  0.88908059252E+00  0.88000000000E+00 0. -1.
        -11    1    4    4    0    0 -0.44391211887E-01  0.63203809226E-01  0.33876915416E-01  0.84339834673E-01  0.51100000000E-03 0.  1.
         11    1    4    4    0    0 -0.10379997132E-01  0.40060602455E-01  0.22164488890E-01  0.46948076620E-01  0.51100000000E-03 0. -1.
</event>
<event>
 8    1  0.1128298E+005  0.1043930E+01  0.7957747E-01            NaN
         13   -1    0    0    0    0  0.00000000000E+00  0.00000000000E+00  0.74505805969E-08  0.10566000000E+00  0.10566000000E+00 0. -1.
     999900   -1    0    0    0    0 -0.00000000000E+00 -0.00000000000E+00 -0.74505805969E-08  0.93827000000E+00  0.93827000000E+00 0. -1.
     999902    2    1    2    0    0 -0.20179505767E-02 -0.17091252963E-01  0.16285077540E-01  0.10202363974E+01  0.10199612345E+01 0.  0.
     999903    2    3    3    0    0  0.44403606569E-01 -0.45108353199E-01  0.11532258017E+00  0.13302258678E+00  0.19729857913E-01 0.  0.
         14    1    1    2    0    0  0.20179505767E-02  0.17091252963E-01 -0.16285077540E-01  0.23693602573E-01  0.00000000000E+00 0.  1.
     999901    1    3    3    0    0 -0.46421557146E-01  0.28017100236E-01 -0.99037502626E-01  0.88721381065E+00  0.88000000000E+00 0. -1.
        -11    1    4    4    0    0  0.34641861167E-01 -0.29179308354E-01  0.64036960437E-01  0.78437771540E-01  0.51100000000E-03 0.  1.
         11    1    4    4    0    0  0.97617454018E-02 -0.15929044845E-01  0.51285619730E-01  0.54584815242E-01  0.51100000000E-03 0. -1.
</event>
<event>
 8    1  0.1128298E+005  0.1043930E+01  0.7957747E-01            NaN
         13   -1    0    0    0    0  0.00000000000E+00  0.00000000000E+00  0.74505805969E-08  0.10566000000E+00  0.10566000000E+00 0. -1.
     999900   -1    0    0    0    0 -0.00000000000E+00 -0.00000000000E+00 -0.74505805969E-08  0.93827000000E+00  0.93827000000E+00 0.  1.
     999902    2    1    2    0    0  0.21064240304E-01  0.12362855330E-01  0.13309656124E-02  0.10194695445E+01  0.10191760586E+01 0.  0.
     999903    2    3    3    0    0  0.16272814009E-01  0.11712660102E-01  0.12732981889E+00  0.13048186660E+00  0.20264349206E-01 0.  0.
         14    1    1    2    0    0 -0.21064240304E-01 -0.12362855330E-01 -0.13309656124E-02  0.24460455452E-01  0.00000000000E+00 0. -1.
     999901    1    3    3    0    0  0.47914262950E-02  0.65019522802E-03 -0.12599885328E+00  0.88898767795E+00  0.88000000000E+00 0.  1.
        -11    1    4    4    0    0  0.10594272130E-01  0.16600664635E-01  0.10723683893E+00  0.10903128639E+00  0.51100000000E-03 0.  1.
         11    1    4    4    0    0  0.56785418784E-02 -0.48880045330E-02  0.20092979966E-01  0.21450580204E-01  0.51100000000E-03 0. -1.
</event>
<event>
 8    1  0.1128298E+005  0.1043930E+01  0.7957747E-01            NaN
         13   -1    0    0    0    0  0.00000000000E+00  0.00000000000E+00  0.74505805969E-08  0.10566000000E+00  0.10566000000E+00 0.  1.
     999900   -1    0    0    0    0 -0.00000000000E+00 -0.00000000000E+00 -0.74505805969E-08  0.93827000000E+00  0.93827000000E+00 0. -1.
     999902    2    1    2    0    0  0.86810217563E-02 -0.15112455402E-01  0.16917898465E-01  0.10196408721E+01  0.10193515322E+01 0.  0.
     999903    2    3    3    0    0  0.11832880064E+00  0.74423704217E-02 -0.47211891544E-01  0.13023433648E+00  0.25979333306E-01 0.  0.
         14    1    1    2    0    0 -0.86810217563E-02  0.15112455402E-01 -0.16917898465E-01  0.24289127927E-01  0.00000000000E+00 0. -1.
     999901    1    3    3    0    0 -0.10964777888E+00 -0.22554825824E-01  0.64129790009E-01  0.88940653559E+00  0.88000000000E+00 0.  1.
        -11    1    4    4    0    0  0.65632676217E-01  0.16075172173E-01 -0.21107564753E-01  0.70794418979E-01  0.51100000000E-03 0. -1.
         11    1    4    4    0    0  0.52696124418E-01 -0.86328017513E-02 -0.26104326791E-01  0.59439917505E-01  0.51100000000E-03 0.  1.
</event>
<event>
 8    1  0.1128298E+005  0.1043930E+01  0.7957747E-01            NaN
         13   -1    0    0    0    0  0.00000000000E+00  0.00000000000E+00  0.74505805969E-08  0.10566000000E+00  0.10566000000E+00 0. -1.
     999900   -1    0    0    0    0 -0.00000000000E+00 -0.00000000000E+00 -0.74505805969E-08  0.93827000000E+00  0.93827000000E+00 0. -1.
     999902    2    1    2    0    0 -0.12058604633E-01 -0.58038000480E-04 -0.19613706353E-01  0.10209058650E+01  0.10206462044E+01 0.  0.
     999903    2    3    3    0    0  0.70081148321E-01  0.96431094317E-02 -0.11015700386E+00  0.13240198772E+00  0.19782920512E-01 0.  0.
         14    1    1    2    0    0  0.12058604633E-01  0.58038000480E-04  0.19613706353E-01  0.23024134968E-01  0.00000000000E+00 0. -1.
     999901    1    3    3    0    0 -0.82139752954E-01 -0.97011474322E-02  0.90543297503E-01  0.88850387731E+00  0.88000000000E+00 0.  1.
        -11    1    4    4    0    0  0.41271941561E-01  0.44153632391E-02 -0.81324359143E-01  0.91305975182E-01  0.51100000000E-03 0. -1.
         11    1    4    4    0    0  0.28809206760E-01  0.52277461927E-02 -0.28832644713E-01  0.41096012538E-01  0.51100000000E-03 0.  1.
</event>
<event>
 8    1  0.1128298E+005  0.1043930E+01  0.7957747E-01            NaN
         13   -1    0    0    0    0  0.00000000000E+00  0.00000000000E+00  0.74505805969E-08  0.10566000000E+00  0.10566000000E+00 0.  1.
     999900   -1    0    0    0    0 -0.00000000000E+00 -0.00000000000E+00 -0.74505805969E-08  0.93827000000E+00  0.93827000000E+00 0. -1.
     999902    2    1    2    0    0 -0.21301295216E-01 -0.10750311048E-01 -0.44987764620E-03  0.10200654498E+01  0.10197862546E+01 0.  0.
     999903    2    3    3    0    0  0.94562422612E-01 -0.10700765223E-01 -0.83792961404E-01  0.12856644636E+00  0.21248825872E-01 0.  0.
         14    1    1    2    0    0  0.21301295216E-01  0.10750311048E-01  0.44987764620E-03  0.23864550183E-01  0.00000000000E+00 0. -1.
     999901    1    3    3    0    0 -0.11586371783E+00 -0.49545825223E-04  0.83343083757E-01  0.89149900346E+00  0.88000000000E+00 0.  1.
        -11    1    4    4    0    0  0.44414039761E-01 -0.43253514530E-02 -0.25474444639E-01  0.51386029655E-01  0.51100000000E-03 0. -1.
         11    1    4    4    0    0  0.50148382852E-01 -0.63754137702E-02 -0.58318516764E-01  0.77180416700E-01  0.51100000000E-03 0.  1.
</event>
<event>
 8    1  0.1128298E+005  0.1043930E+01  0.7957747E-01            NaN
         13   -1    0    0    0    0  0.00000000000E+00  0.00000000000E+00  0.74505805969E-08  0.10566000000E+00  0.10566000000E+00 0.  1.
     999900   -1    0    0    0    0 -0.00000000000E+00 -0.00000000000E+00 -0.74505805969E-08  0.93827000000E+00  0.93827000000E+00 0.  1.
     999902    2    1    2    0    0  0.15910863255E-01  0.12744067154E-01  0.31834207207E-01  0.10061281010E+01  0.10054177103E+01 0.  0.
     999903    2    3    3    0    0 -0.63229278150E-02  0.79274133548E-01 -0.82211105697E-01  0.11600062443E+00  0.19316089227E-01 0.  0.
         14    1    1    2    0    0 -0.15910863255E-01 -0.12744067154E-01 -0.31834207207E-01  0.37801898969E-01  0.00000000000E+00 0. -1.
     999901    1    3    3    0    0  0.22233791070E-01 -0.66530066394E-01  0.11404531290E+00  0.89012747660E+00  0.88000000000E+00 0. -1.
        -11    1    4    4    0    0 -0.57980543689E-02  0.62893698092E-02 -0.11818116704E-01  0.14598034473E-01  0.51100000000E-03 0.  1.
         11    1    4    4    0    0 -0.52487344605E-03  0.72984763739E-01 -0.70392988993E-01  0.10140258996E+00  0.51100000000E-03 0. -1.
</event>
<event>
 7    1  0.1128298E+005  0.1043930E+01  0.7957747E-01            NaN
         13   -1    0    0    0    0  0.00000000000E+00  0.00000000000E+00  0.74505805969E-08  0.10566000000E+00  0.10566000000E+00 0.  1.
     999900   -1    0    0    0    0 -0.00000000000E+00 -0.00000000000E+00 -0.74505805969E-08  0.93827000000E+00  0.93827000000E+00 0.  1.
     999903    2    1    2    0    0 -0.19895987538E-01 -0.48023857103E-01 -0.61594595706E-01  0.82678832786E-01  0.18432417082E-01 0.  0.
         14    1    1    2    0    0  0.44549308671E-01 -0.54581335459E-01 -0.13629302964E-01  0.71760162923E-01  0.00000000000E+00 0.  1.
     999901    1    1    2    0    0 -0.24653321133E-01  0.10260519256E+00  0.75223898670E-01  0.88949100429E+00  0.88000000000E+00 0. -1.
        -11    1    3    3    0    0 -0.46102717459E-02 -0.20578361369E-01 -0.37720137177E-01  0.43217975796E-01  0.51100000000E-03 0. -1.
         11    1    3    3    0    0 -0.15285715792E-01 -0.27445495734E-01 -0.23874458529E-01  0.39460856990E-01  0.51100000000E-03 0.  1.
</event>
<event>
 8    1  0.1128298E+005  0.1043930E+01  0.7957747E-01            NaN
         13   -1    0    0    0    0  0.00000000000E+00  0.00000000000E+00  0.74505805969E-08  0.10566000000E+00  0.10566000000E+00 0.  1.
     999900   -1    0    0    0    0 -0.00000000000E+00 -0.00000000000E+00 -0.74505805969E-08  0.93827000000E+00  0.93827000000E+00 0.  1.
     999902    2    1    2    0    0 -0.86511277514E-02  0.15424170041E-01  0.93793430055E-02  0.10239120304E+01  0.10237163312E+01 0.  0.
     999903    2    3    3    0    0  0.80567560082E-02  0.12874322419E+00 -0.35634350504E-01  0.13534768604E+00  0.20235120190E-01 0.  0.
         14    1    1    2    0    0  0.86511277514E-02 -0.15424170041E-01 -0.93793430055E-02  0.20017969628E-01  0.00000000000E+00 0. -1.
     999901    1    3    3    0    0 -0.16707883760E-01 -0.11331905415E+00  0.45013693510E-01  0.88856434433E+00  0.88000000000E+00 0. -1.
        -11    1    4    4    0    0  0.10659872235E-02  0.43076851166E-01 -0.22901014428E-02  0.43153877239E-01  0.51100000000E-03 0. -1.
         11    1    4    4    0    0  0.69907687848E-02  0.85666373022E-01 -0.33344249062E-01  0.92193808802E-01  0.51100000000E-03 0.  1.
</event>
<event>
 8    1  0.1256819E+005  0.1043930E+01  0.7957747E-01            NaN
         13   -1    0    0    0    0  0.00000000000E+00  0.00000000000E+00  0.74505805969E-08  0.10566000000E+00  0.10566000000E+00 0.  1.
     999900   -1    0    0    0    0 -0.00000000000E+00 -0.00000000000E+00 -0.74505805969E-08  0.93827000000E+00  0.93827000000E+00 0. -1.
     999902    2    1    2    0    0 -0.15431174714E-01  0.14573013154E-01  0.10614235749E-01  0.10201990947E+01  0.10199230544E+01 0.  0.
     999903    2    3    3    0    0 -0.93385215600E-01  0.44362763407E-01 -0.79187297284E-01  0.13170116165E+00  0.19639619629E-01 0.  0.
         14    1    1    2    0    0  0.15431174714E-01 -0.14573013154E-01 -0.10614235749E-01  0.23730905292E-01  0.00000000000E+00 0. -1.
     999901    1    3    3    0    0  0.77954040886E-01 -0.29789750253E-01  0.89801533034E-01  0.88849793306E+00  0.88000000000E+00 0.  1.
        -11    1    4    4    0    0 -0.39516093875E-01  0.14494304119E-01 -0.21317088256E-01  0.47183534202E-01  0.51100000000E-03 0.  1.
         11    1    4    4    0    0 -0.53869121725E-01  0.29868459288E-01 -0.57870209028E-01  0.84517627449E-01  0.51100000000E-03 0. -1.
</event>
<event>
 8    1  0.1128298E+005  0.1043930E+01  0.7957747E-01            NaN
         13   -1    0    0    0    0  0.00000000000E+00  0.00000000000E+00  0.74505805969E-08  0.10566000000E+00  0.10566000000E+00 0.  1.
     999900   -1    0    0    0    0 -0.00000000000E+00 -0.00000000000E+00 -0.74505805969E-08  0.93827000000E+00  0.93827000000E+00 0. -1.
     999902    2    1    2    0    0  0.52510813608E-03 -0.95843559990E-03  0.23434630754E-01  0.10204699008E+01  0.10202001971E+01 0.  0.
     999903    2    3    3    0    0 -0.97027076810E-01 -0.52704764076E-01 -0.64092003955E-01  0.12926003599E+00  0.20207081491E-01 0.  0.
         14    1    1    2    0    0 -0.52510813608E-03  0.95843559990E-03 -0.23434630754E-01  0.23460099231E-01  0.00000000000E+00 0. -1.
     999901    1    3    3    0    0  0.97552184946E-01  0.51746328476E-01  0.87526634709E-01  0.89120986478E+00  0.88000000000E+00 0.  1.
        -11    1    4    4    0    0 -0.73924835770E-01 -0.42784763130E-01 -0.58416725549E-01  0.10348039546E+00  0.51100000000E-03 0. -1.
         11    1    4    4    0    0 -0.23102241039E-01 -0.99200009454E-02 -0.56752784061E-02  0.25779640528E-01  0.51100000000E-03 0.  1.
</event>
<event>
 8    1  0.1128298E+005  0.1043930E+01  0.7957747E-01            NaN
         13   -1    0    0    0    0  0.00000000000E+00  0.00000000000E+00  0.74505805969E-08  0.10566000000E+00  0.10566000000E+00 0. -1.
     999900   -1    0    0    0    0 -0.00000000000E+00 -0.00000000000E+00 -0.74505805969E-08  0.93827000000E+00  0.93827000000E+00 0. -1.
     999902    2    1    2    0    0 -0.27665074850E-02 -0.12820724697E-01  0.19125835906E-01  0.10207390073E+01  0.10204755258E+01 0.  0.
     999903    2    3    3    0    0 -0.13392991488E-02  0.12343198850E+00  0.35610252126E-01  0.13009958821E+00  0.20507639799E-01 0.  0.
         14    1    1    2    0    0  0.27665074850E-02  0.12820724697E-01 -0.19125835906E-01  0.23190992745E-01  0.00000000000E+00 0.  1.
     999901    1    3    3    0    0 -0.14272083362E-02 -0.13625271319E+00 -0.16484416220E-01  0.89063941904E+00  0.88000000000E+00 0. -1.
        -11    1    4    4    0    0 -0.35699705099E-02  0.16533144361E-01  0.11592712426E-01  0.20511988063E-01  0.51100000000E-03 0.  1.
         11    1    4    4    0    0  0.22306713612E-02  0.10689884413E+00  0.24017539700E-01  0.10958760015E+00  0.51100000000E-03 0. -1.
</event>
<event>
 8    1  0.1128298E+005  0.1043930E+01  0.7957747E-01            NaN
         13   -1    0    0    0    0  0.00000000000E+00  0.00000000000E+00  0.74505805969E-08  0.10566000000E+00  0.10566000000E+00 0.  1.
     999900   -1    0    0    0    0 -0.00000000000E+00 -0.00000000000E+00 -0.74505805969E-08  0.93827000000E+00  0.93827000000E+00 0. -1.
     999902    2    1    2    0    0  0.17239886702E-01  0.99293542593E-02 -0.12374556526E-01  0.10205006291E+01  0.10202316397E+01 0.  0.
     999903    2    3    3    0    0  0.96682779894E-01  0.22384844491E-01  0.82944933162E-01  0.13170812376E+00  0.24870197745E-01 0.  0.
         14    1    1    2    0    0 -0.17239886702E-01 -0.99293542593E-02  0.12374556526E-01  0.23429370856E-01  0.00000000000E+00 0.  1.
     999901    1    3    3    0    0 -0.79442893192E-01 -0.12455490232E-01 -0.95319489687E-01  0.88879250539E+00  0.88000000000E+00 0.  1.
        -11    1    4    4    0    0  0.33974952194E-01  0.16434912078E-02  0.15757124375E-01  0.37490619221E-01  0.51100000000E-03 0. -1.
         11    1    4    4    0    0  0.62707827699E-01  0.20741353283E-01  0.67187808786E-01  0.94217504538E-01  0.51100000000E-03 0.  1.
</event>
<event>
 8    1  0.1128298E+005  0.1043930E+01  0.7957747E-01            NaN
         13   -1    0    0    0    0  0.00000000000E+00  0.00000000000E+00  0.74505805969E-08  0.10566000000E+00  0.10566000000E+00 0. -1.
     999900   -1    0    0    0    0 -0.00000000000E+00 -0.00000000000E+00 -0.74505805969E-08  0.93827000000E+00  0.93827000000E+00 0. -1.
     999902    2    1    2    0    0  0.58793847277E-02 -0.18007555597E-01 -0.68910782619E-02  0.10237724659E+01  0.10235740011E+01 0.  0.
     999903    2    3    3    0    0 -0.11110907631E+00  0.53121662335E-01  0.42729735676E-01  0.13180391773E+00  0.19475743146E-01 0.  0.
         14    1    1    2    0    0 -0.58793847277E-02  0.18007555597E-01  0.68910782619E-02  0.20157534149E-01  0.00000000000E+00 0. -1.
     999901    1    3    3    0    0  0.11698846104E+00 -0.71129217931E-01 -0.49620813938E-01  0.89196854812E+00  0.88000000000E+00 0. -1.
        -11    1    4    4    0    0 -0.11744041309E-01  0.61817374529E-02  0.11470528226E-01  0.17549088950E-01  0.51100000000E-03 0.  1.
         11    1    4    4    0    0 -0.99365035000E-01  0.46939924882E-01  0.31259207450E-01  0.11425482878E+00  0.51100000000E-03 0. -1.
</event>
<event>
 8    1  0.1128298E+005  0.1043930E+01  0.7957747E-01            NaN
         13   -1    0    0    0    0  0.00000000000E+00  0.00000000000E+00  0.74505805969E-08  0.10566000000E+00  0.10566000000E+00 0. -1.
     999900   -1    0    0    0    0 -0.00000000000E+00 -0.00000000000E+00 -0.74505805969E-08  0.93827000000E+00  0.93827000000E+00 0. -1.
     999902    2    1    2    0    0  0.22651696914E-02 -0.18732063006E-01  0.14390258962E-01  0.10202002564E+01  0.10199242435E+01 0.  0.
     999903    2    3    3    0    0 -0.51617228794E-01  0.69935882810E-02 -0.11607642734E+00  0.12858000190E+00  0.18596540534E-01 0.  0.
         14    1    1    2    0    0 -0.22651696914E-02  0.18732063006E-01 -0.14390258962E-01  0.23729743597E-01  0.00000000000E+00 0.  1.
     999901    1    3    3    0    0  0.53882398485E-01 -0.25725651287E-01  0.13046668630E+00  0.89162025450E+00  0.88000000000E+00 0.  1.
        -11    1    4    4    0    0 -0.42420634306E-01  0.98341640531E-02 -0.10618822103E+00  0.11477116539E+00  0.51100000000E-03 0.  1.
         11    1    4    4    0    0 -0.91965944881E-02 -0.28405757721E-02 -0.98882063072E-02  0.13808836514E-01  0.51100000000E-03 0. -1.
</event>
<event>
 8    1  0.1128298E+005  0.1043930E+01  0.7957747E-01            NaN
         13   -1    0    0    0    0  0.00000000000E+00  0.00000000000E+00  0.74505805969E-08  0.10566000000E+00  0.10566000000E+00 0.  1.
     999900   -1    0    0    0    0 -0.00000000000E+00 -0.00000000000E+00 -0.74505805969E-08  0.93827000000E+00  0.93827000000E+00 0.  1.
     999902    2    1    2    0    0  0.17144643406E-01  0.13221427430E-01 -0.82914203475E-02  0.10207461135E+01  0.10204827954E+01 0.  0.
     999903    2    3    3    0    0  0.94879491884E-01  0.34573050269E-01 -0.85399807689E-01  0.13370366704E+00  0.19650181707E-01 0.  0.
         14    1    1    2    0    0 -0.17144643406E-01 -0.13221427430E-01  0.82914203475E-02  0.23183886478E-01  0.00000000000E+00 0.  1.
     999901    1    3    3    0    0 -0.77734848478E-01 -0.21351622838E-01  0.77108387342E-01  0.88704244648E+00  0.88000000000E+00 0. -1.
        -11    1    4    4    0    0  0.28781299897E-01  0.16220313414E-01 -0.18428938632E-01  0.37833169192E-01  0.51100000000E-03 0.  1.
         11    1    4    4    0    0  0.66098191987E-01  0.18352736855E-01 -0.66970869058E-01  0.95870497847E-01  0.51100000000E-03 0. -1.
</event>
<event>
 8    1  0.1128298E+005  0.1043930E+01  0.7957747E-01            NaN
         13   -1    0    0    0    0  0.00000000000E+00  0.00000000000E+00  0.74505805969E-08  0.10566000000E+00  0.10566000000E+00 0. -1.
     999900   -1    0    0    0    0 -0.00000000000E+00 -0.00000000000E+00 -0.74505805969E-08  0.93827000000E+00  0.93827000000E+00 0.  1.
     999902    2    1    2    0    0  0.21772133426E-02 -0.84466786140E-02 -0.17402665978E-01  0.10244636336E+01  0.10242786716E+01 0.  0.
     999903    2    3    3    0    0  0.38345052983E-01 -0.46262676989E-01 -0.12116525514E+00  0.13682359549E+00  0.20714701496E-01 0.  0.
         14    1    1    2    0    0 -0.21772133426E-02  0.84466786140E-02  0.17402665978E-01  0.19466366396E-01  0.00000000000E+00 0. -1.
     999901    1    3    3    0    0 -0.36167839640E-01  0.37815998375E-01  0.10376258916E+00  0.88764003812E+00  0.88000000000E+00 0. -1.
        -11    1    4    4    0    0  0.33116678516E-01 -0.29620623764E-01 -0.71505404844E-01  0.84186577262E-01  0.51100000000E-03 0.  1.
         11    1    4    4    0    0  0.52283744664E-02 -0.16642053225E-01 -0.49659850297E-01  0.52637018225E-01  0.51100000000E-03 0. -1.
</event>
<event>
 8    1  0.1128298E+005  0.1043930E+01  0.7957747E-01            NaN
         13   -1    0    0    0    0  0.00000000000E+00  0.00000000000E+00  0.74505805969E-08  0.10566000000E+00  0.10566000000E+00 0.  1.
     999900   -1    0    0    0    0 -0.00000000000E+00 -0.00000000000E+00 -0.74505805969E-08  0.93827000000E+00  0.93827000000E+00 0. -1.
     999902    2    1    2    0    0  0.85492783005E-02 -0.21813826498E-01  0.50705837931E-02  0.10199582665E+01  0.10196765278E+01 0.  0.
     999903    2    3    3    0    0 -0.33899567139E-01 -0.10901773299E+00  0.64370485877E-01  0.13264608686E+00  0.20429834766E-01 0.  0.
         14    1    1    2    0    0 -0.85492783005E-02  0.21813826498E-01 -0.50705837931E-02  0.23971733478E-01  0.00000000000E+00 0. -1.
     999901    1    3    3    0    0  0.42448845440E-01  0.87203906495E-01 -0.59299902084E-01  0.88731217966E+00  0.88000000000E+00 0.  1.
        -11    1    4    4    0    0 -0.12142755022E-01 -0.15768959378E-01  0.74899487270E-02  0.21271272466E-01  0.51100000000E-03 0.  1.
         11    1    4    4    0    0 -0.21756812117E-01 -0.93248773614E-01  0.56880537150E-01  0.11137481440E+00  0.51100000000E-03 0. -1.
</event>
<event>
 8    1  0.1128298E+005  0.1043930E+01  0.7957747E-01            NaN
         13   -1    0    0    0    0  0.00000000000E+00  0.00000000000E+00  0.74505805969E-08  0.10566000000E+00  0.10566000000E+00 0.  1.
     999900   -1    0    0    0    0 -0.00000000000E+00 -0.00000000000E+00 -0.74505805969E-08  0.93827000000E+00  0.93827000000E+00 0. -1.
     999902    2    1    2    0    0 -0.16785554512E-01 -0.21059369381E-02 -0.16591410055E-01  0.10202347537E+01  0.10199595521E+01 0.  0.
     999903    2    3    3    0    0 -0.11349161360E+00 -0.86647526627E-02 -0.67045645497E-01  0.13347621281E+00  0.19114301171E-01 0.  0.
         14    1    1    2    0    0  0.16785554512E-01  0.21059369381E-02  0.16591410055E-01  0.23695246322E-01  0.00000000000E+00 0.  1.
     999901    1    3    3    0    0  0.96706059090E-01  0.65588157245E-02  0.50454235442E-01  0.88675854087E+00  0.88000000000E+00 0. -1.
        -11    1    4    4    0    0 -0.50268316737E-01 -0.78343370137E-02 -0.39933774478E-01  0.64678033127E-01  0.51100000000E-03 0.  1.
         11    1    4    4    0    0 -0.63223296865E-01 -0.83041564893E-03 -0.27111871019E-01  0.68798179683E-01  0.51100000000E-03 0. -1.
</event>
<event>
 8    1  0.1128298E+005  0.1043930E+01  0.7957747E-01            NaN
         13   -1    0    0    0    0  0.00000000000E+00  0.00000000000E+00  0.74505805969E-08  0.10566000000E+00  0.10566000000E+00 0. -1.
     999900   -1    0    0    0    0 -0.00000000000E+00 -0.00000000000E+00 -0.74505805969E-08  0.93827000000E+00  0.93827000000E+00 0. -1.
     999902    2    1    2    0    0  0.34213921836E-02  0.23990575048E-01  0.57436804380E-02  0.10190253121E+01  0.10187209349E+01 0.  0.
     999903    2    3    3    0    0  0.10513911241E+00  0.76861361000E-01  0.46407935448E-02  0.13158909973E+00  0.18227792839E-01 0.  0.
         14    1    1    2    0    0 -0.34213921836E-02 -0.23990575048E-01 -0.57436804380E-02  0.24904687924E-01  0.00000000000E+00 0.  1.
     999901    1    3    3    0    0 -0.10171772022E+00 -0.52870785952E-01  0.11028868933E-02  0.88743621234E+00  0.88000000000E+00 0.  1.
        -11    1    4    4    0    0  0.73858520713E-01  0.54177638255E-01  0.11576223482E-01  0.92328585172E-01  0.51100000000E-03 0. -1.
         11    1    4    4    0    0  0.31280591695E-01  0.22683722745E-01 -0.69354299372E-02  0.39260514563E-01  0.51100000000E-03 0.  1.
</event>
<event>
 8    1  0.1128298E+005  0.1043930E+01  0.7957747E-01            NaN
         13   -1    0    0    0    0  0.00000000000E+00  0.00000000000E+00  0.74505805969E-08  0.10566000000E+00  0.10566000000E+00 0.  1.
     999900   -1    0    0    0    0 -0.00000000000E+00 -0.00000000000E+00 -0.74505805969E-08  0.93827000000E+00  0.93827000000E+00 0.  1.
     999902    2    1    2    0    0 -0.47089116285E-02 -0.14360488327E-01 -0.17827817714E-01  0.10205584669E+01  0.10202908193E+01 0.  0.
     999903    2    3    3    0    0 -0.55321300388E-01  0.74733721516E-01 -0.90910819323E-01  0.13160373397E+00  0.20228453144E-01 0.  0.
         14    1    1    2    0    0  0.47089116285E-02  0.14360488327E-01  0.17827817714E-01  0.23371533072E-01  0.00000000000E+00 0.  1.
     999901    1    3    3    0    0  0.50612388760E-01 -0.89094209843E-01  0.73083001610E-01  0.88895473296E+00  0.88000000000E+00 0. -1.
        -11    1    4    4    0    0 -0.39862978473E-01  0.55523713359E-01 -0.53528054387E-01  0.86818509117E-01  0.51100000000E-03 0.  1.
         11    1    4    4    0    0 -0.15458321915E-01  0.19210008157E-01 -0.37382764937E-01  0.44785224853E-01  0.51100000000E-03 0. -1.
</event>
<event>
 8    1  0.1128298E+005  0.1043930E+01  0.7957747E-01            NaN
         13   -1    0    0    0    0  0.00000000000E+00  0.00000000000E+00  0.74505805969E-08  0.10566000000E+00  0.10566000000E+00 0.  1.
     999900   -1    0    0    0    0 -0.00000000000E+00 -0.00000000000E+00 -0.74505805969E-08  0.93827000000E+00  0.93827000000E+00 0.  1.
     999902    2    1    2    0    0  0.11488720935E-01  0.18559490056E-01 -0.98129413888E-02  0.10199980298E+01  0.10197172361E+01 0.  0.
     999903    2    3    3    0    0 -0.83719866040E-01  0.12398201911E-01 -0.97177336204E-01  0.13054023203E+00  0.20846729374E-01 0.  0.
         14    1    1    2    0    0 -0.11488720935E-01 -0.18559490056E-01  0.98129413888E-02  0.23931970219E-01  0.00000000000E+00 0.  1.
     999901    1    3    3    0    0  0.95208586975E-01  0.61612881449E-02  0.87364394815E-01  0.88945779775E+00  0.88000000000E+00 0. -1.
        -11    1    4    4    0    0 -0.49268681456E-01  0.54602073813E-02 -0.41271844194E-01  0.64504597365E-01  0.51100000000E-03 0. -1.
         11    1    4    4    0    0 -0.34451184584E-01  0.69379945296E-02 -0.55905492010E-01  0.66035634662E-01  0.51100000000E-03 0.  1.
</event>
<event>
 8    1  0.1128298E+005  0.1043930E+01  0.7957747E-01            NaN
         13   -1    0    0    0    0  0.00000000000E+00  0.00000000000E+00  0.74505805969E-08  0.10566000000E+00  0.10566000000E+00 0.  1.
     999900   -1    0    0    0    0 -0.00000000000E+00 -0.00000000000E+00 -0.74505805969E-08  0.93827000000E+00  0.93827000000E+00 0.  1.
     999902    2    1    2    0    0 -0.29342218616E-02 -0.20881793456E-01  0.12505269193E-01  0.10194138683E+01  0.10191190285E+01 0.  0.
     999903    2    3    3    0    0 -0.43875324612E-01  0.67365011943E-01  0.99660470865E-01  0.12977365915E+00  0.21116444129E-01 0.  0.
         14    1    1    2    0    0  0.29342218616E-02  0.20881793456E-01 -0.12505269193E-01  0.24516131698E-01  0.00000000000E+00 0.  1.
     999901    1    3    3    0    0  0.40941102750E-01 -0.88246805399E-01 -0.87155201673E-01  0.88964020915E+00  0.88000000000E+00 0.  1.
        -11    1    4    4    0    0 -0.12270557544E-01  0.37820413296E-01  0.50735914341E-01  0.64461960639E-01  0.51100000000E-03 0.  1.
         11    1    4    4    0    0 -0.31604767068E-01  0.29544598647E-01  0.48924556524E-01  0.65311698513E-01  0.51100000000E-03 0. -1.
</event>
<event>
 8    1  0.1128298E+005  0.1043930E+01  0.7957747E-01            NaN
         13   -1    0    0    0    0  0.00000000000E+00  0.00000000000E+00  0.74505805969E-08  0.10566000000E+00  0.10566000000E+00 0. -1.
     999900   -1    0    0    0    0 -0.00000000000E+00 -0.00000000000E+00 -0.74505805969E-08  0.93827000000E+00  0.93827000000E+00 0. -1.
     999902    2    1    2    0    0  0.18897999893E-01 -0.48430982765E-02 -0.13236180455E-01  0.10203548760E+01  0.10200824900E+01 0.  0.
     999903    2    3    3    0    0  0.96555845449E-01 -0.77600053816E-01 -0.45008754453E-01  0.13337471157E+00  0.20450576155E-01 0.  0.
         14    1    1    2    0    0 -0.18897999893E-01  0.48430982765E-02  0.13236180455E-01  0.23575124049E-01  0.00000000000E+00 0. -1.
     999901    1    3    3    0    0 -0.77657845556E-01  0.72756955540E-01  0.31772573998E-01  0.88698016439E+00  0.88000000000E+00 0. -1.
        -11    1    4    4    0    0  0.52122285993E-01 -0.40452633611E-01 -0.34691310390E-01  0.74544593370E-01  0.51100000000E-03 0.  1.
         11    1    4    4    0    0  0.44433559456E-01 -0.37147420206E-01 -0.10317444063E-01  0.58830118195E-01  0.51100000000E-03 0. -1.
</event>
<event>
 8    1  0.1128298E+005  0.1043930E+01  0.7957747E-01            NaN
         13   -1    0    0    0    0  0.00000000000E+00  0.00000000000E+00  0.74505805969E-08  0.10566000000E+00  0.10566000000E+00 0.  1.
     999900   -1    0    0    0    0 -0.00000000000E+00 -0.00000000000E+00 -0.74505805969E-08  0.93827000000E+00  0.93827000000E+00 0.  1.
     999902    2    1    2    0    0  0.18540788309E-01  0.22643098462E-02 -0.14129339337E-01  0.10205093646E+01  0.10202405781E+01 0.  0.
     999903    2    3    3    0    0  0.79881695658E-01 -0.97677564523E-01 -0.35731833175E-01  0.13246783808E+00  0.18680800610E-01 0.  0.
         14    1    1    2    0    0 -0.18540788309E-01 -0.22643098462E-02  0.14129339337E-01  0.23420635352E-01  0.00000000000E+00 0.  1.
     999901    1    3    3    0    0 -0.61340907350E-01  0.99941874369E-01  0.21602493838E-01  0.88804152657E+00  0.88000000000E+00 0. -1.
        -11    1    4    4    0    0  0.30984672072E-01 -0.25521655163E-01 -0.15127542138E-01  0.42901147278E-01  0.51100000000E-03 0. -1.
         11    1    4    4    0    0  0.48897023586E-01 -0.72155909361E-01 -0.20604291037E-01  0.89566690803E-01  0.51100000000E-03 0.  1.
</event>
<event>
 8    1  0.1128298E+005  0.1043930E+01  0.7957747E-01            NaN
         13   -1    0    0    0    0  0.00000000000E+00  0.00000000000E+00  0.74505805969E-08  0.10566000000E+00  0.10566000000E+00 0.  1.
     999900   -1    0    0    0    0 -0.00000000000E+00 -0.00000000000E+00 -0.74505805969E-08  0.93827000000E+00  0.93827000000E+00 0.  1.
     999902    2    1    2    0    0  0.13410219126E-01 -0.54090859590E-03  0.19329491810E-01  0.10203979832E+01  0.10201266041E+01 0.  0.
     999903    2    3    3    0    0 -0.96382401494E-01  0.21618967696E-01  0.83744439404E-01  0.13096290122E+00  0.19524427830E-01 0.  0.
         14    1    1    2    0    0 -0.13410219126E-01  0.54090859590E-03 -0.19329491810E-01  0.23532016759E-01  0.00000000000E+00 0. -1.
     999901    1    3    3    0    0  0.10979262062E+00 -0.22159876292E-01 -0.64414947594E-01  0.88943508202E+00  0.88000000000E+00 0.  1.
        -11    1    4    4    0    0 -0.51433604464E-01  0.11854730440E-01  0.57285044009E-01  0.77896005610E-01  0.51100000000E-03 0. -1.
         11    1    4    4    0    0 -0.44948797031E-01  0.97642372562E-02  0.26459395396E-01  0.53066895608E-01  0.51100000000E-03 0.  1.
</event>
<event>
 8    1  0.1128298E+005  0.1043930E+01  0.7957747E-01            NaN
         13   -1    0    0    0    0  0.00000000000E+00  0.00000000000E+00  0.74505805969E-08  0.10566000000E+00  0.10566000000E+00 0. -1.
     999900   -1    0    0    0    0 -0.00000000000E+00 -0.00000000000E+00 -0.74505805969E-08  0.93827000000E+00  0.93827000000E+00 0. -1.
     999902    2    1    2    0    0  0.15205841474E-01  0.16716465828E-01  0.10899737419E-02  0.10213059887E+01  0.10210553739E+01 0.  0.
     999903    2    3    3    0    0 -0.11943473243E+00  0.21342204264E-01  0.42492303562E-01  0.13009129261E+00  0.19950026505E-01 0.  0.
         14    1    1    2    0    0 -0.15205841474E-01 -0.16716465828E-01 -0.10899737419E-02  0.22624011303E-01  0.00000000000E+00 0.  1.
     999901    1    3    3    0    0  0.13464057391E+00 -0.46257384363E-02 -0.41402329820E-01  0.89121469608E+00  0.88000000000E+00 0. -1.
        -11    1    4    4    0    0 -0.80901473511E-01  0.19454510599E-01  0.37203591490E-01  0.91147653506E-01  0.51100000000E-03 0.  1.
         11    1    4    4    0    0 -0.38533258923E-01  0.18876936652E-02  0.52887120719E-02  0.38943639108E-01  0.51100000000E-03 0. -1.
</event>
<event>
 8    1  0.1128298E+005  0.1043930E+01  0.7957747E-01            NaN
         13   -1    0    0    0    0  0.00000000000E+00  0.00000000000E+00  0.74505805969E-08  0.10566000000E+00  0.10566000000E+00 0. -1.
     999900   -1    0    0    0    0 -0.00000000000E+00 -0.00000000000E+00 -0.74505805969E-08  0.93827000000E+00  0.93827000000E+00 0.  1.
     999902    2    1    2    0    0  0.95758714243E-02  0.22259003644E-01  0.63373217509E-03  0.10196903182E+01  0.10194021694E+01 0.  0.
     999903    2    3    3    0    0  0.10614428012E+00 -0.71939034637E-01  0.61363001879E-02  0.12939317330E+00  0.16220549035E-01 0.  0.
         14    1    1    2    0    0 -0.95758714243E-02 -0.22259003644E-01 -0.63373217509E-03  0.24239681789E-01  0.00000000000E+00 0. -1.
     999901    1    3    3    0    0 -0.96568408696E-01  0.94198038281E-01 -0.55025680128E-02  0.89029714491E+00  0.88000000000E+00 0. -1.
        -11    1    4    4    0    0  0.75097470849E-01 -0.55975026689E-01 -0.13974141580E-02  0.93675224195E-01  0.51100000000E-03 0. -1.
         11    1    4    4    0    0  0.31046809272E-01 -0.15964007948E-01  0.75337143459E-02  0.35717949109E-01  0.51100000000E-03 0.  1.
</event>
<event>
 8    1  0.1128298E+005  0.1043930E+01  0.7957747E-01            NaN
         13   -1    0    0    0    0  0.00000000000E+00  0.00000000000E+00  0.74505805969E-08  0.10566000000E+00  0.10566000000E+00 0. -1.
     999900   -1    0    0    0    0 -0.00000000000E+00 -0.00000000000E+00 -0.74505805969E-08  0.93827000000E+00  0.93827000000E+00 0.  1.
     999902    2    1    2    0    0 -0.14195225304E-02 -0.19552003169E-01  0.19147850233E-01  0.10165267878E+01  0.10161573570E+01 0.  0.
     999903    2    3    3    0    0  0.10878292217E+00  0.61015283264E-01  0.70229045065E-02  0.12591874785E+00  0.15799396343E-01 0.  0.
         14    1    1    2    0    0  0.14195225304E-02  0.19552003169E-01 -0.19147850233E-01  0.27403212233E-01  0.00000000000E+00 0.  1.
     999901    1    3    3    0    0 -0.11020244470E+00 -0.80567286433E-01  0.12124945726E-01  0.89060803992E+00  0.88000000000E+00 0. -1.
        -11    1    4    4    0    0  0.87634901101E-01  0.55885932175E-01  0.50392624867E-02  0.10406136936E+00  0.51100000000E-03 0. -1.
         11    1    4    4    0    0  0.21148021066E-01  0.51293510888E-02  0.19836420199E-02  0.21857378486E-01  0.51100000000E-03 0.  1.
</event>
<event>
 8    1  0.1128298E+005  0.1043930E+01  0.7957747E-01            NaN
         13   -1    0    0    0    0  0.00000000000E+00  0.00000000000E+00  0.74505805969E-08  0.10566000000E+00  0.10566000000E+00 0. -1.
     999900   -1    0    0    0    0 -0.00000000000E+00 -0.00000000000E+00 -0.74505805969E-08  0.93827000000E+00  0.93827000000E+00 0.  1.
     999902    2    1    2    0    0 -0.11832284619E-02  0.99524179995E-02  0.22773219558E-01  0.10190488790E+01  0.10187450847E+01 0.  0.
     999903    2    3    3    0    0 -0.11741619058E+00  0.52797330810E-01  0.10635620956E-02  0.13010731890E+00  0.18779332132E-01 0.  0.
         14    1    1    2    0    0  0.11832284619E-02 -0.99524179995E-02 -0.22773219558E-01  0.24881121009E-01  0.00000000000E+00 0.  1.
     999901    1    3    3    0    0  0.11623296212E+00 -0.42844912811E-01  0.21709657462E-01  0.88894156009E+00  0.88000000000E+00 0.  1.
        -11    1    4    4    0    0 -0.72103659855E-01  0.23703861672E-01  0.53237152678E-02  0.76088198086E-01  0.51100000000E-03 0.  1.
         11    1    4    4    0    0 -0.45312530724E-01  0.29093469139E-01 -0.42601531722E-02  0.54019120811E-01  0.51100000000E-03 0. -1.
</event>
<event>
 8    1  0.1128298E+005  0.1043930E+01  0.7957747E-01            NaN
         13   -1    0    0    0    0  0.00000000000E+00  0.00000000000E+00  0.74505805969E-08  0.10566000000E+00  0.10566000000E+00 0.  1.
     999900   -1    0    0    0    0 -0.00000000000E+00 -0.00000000000E+00 -0.74505805969E-08  0.93827000000E+00  0.93827000000E+00 0.  1.
     999902    2    1    2    0    0  0.42301550935E-02 -0.19649331417E-01  0.12425292188E-01  0.10202999699E+01  0.10200262988E+01 0.  0.
     999903    2    3    3    0    0  0.73385658002E-01  0.45591252594E-01  0.96687938716E-01  0.13117736249E+00  0.19872740693E-01 0.  0.
         14    1    1    2    0    0 -0.42301550935E-02  0.19649331417E-01 -0.12425292188E-01  0.23630030115E-01  0.00000000000E+00 0. -1.
     999901    1    3    3    0    0 -0.69155502908E-01 -0.65240584012E-01 -0.84262646529E-01  0.88912260740E+00  0.88000000000E+00 0.  1.
        -11    1    4    4    0    0  0.10230880452E-01  0.10590687611E-01  0.27367053326E-01  0.31081349836E-01  0.51100000000E-03 0.  1.
         11    1    4    4    0    0  0.63154777549E-01  0.35000564983E-01  0.69320885391E-01  0.10009601265E+00  0.51100000000E-03 0. -1.
</event>
<event>
 8    1  0.1128298E+005  0.1043930E+01  0.7957747E-01            NaN
         13   -1    0    0    0    0  0.00000000000E+00  0.00000000000E+00  0.74505805969E-08  0.10566000000E+00  0.10566000000E+00 0.  1.
     999900   -1    0    0    0    0 -0.00000000000E+00 -0.00000000000E+00 -0.74505805969E-08  0.93827000000E+00  0.93827000000E+00 0. -1.
     999902    2    1    2    0    0  0.13283073521E-01  0.97160524918E-02 -0.17243650616E-01  0.10200933642E+01  0.10198148295E+01 0.  0.
     999903    2    3    3    0    0 -0.22350841853E-01 -0.71498358432E-01 -0.10584531451E+00  0.13120877594E+00  0.20023408539E-01 0.  0.
         14    1    1    2    0    0 -0.13283073521E-01 -0.97160524918E-02  0.17243650616E-01  0.23836635769E-01  0.00000000000E+00 0.  1.
     999901    1    3    3    0    0  0.35633915374E-01  0.81214410923E-01  0.88601663890E-01  0.88888458830E+00  0.88000000000E+00 0.  1.
        -11    1    4    4    0    0 -0.16952416029E-01 -0.65155959724E-01 -0.82915896728E-01  0.10680819513E+00  0.51100000000E-03 0. -1.
         11    1    4    4    0    0 -0.53984258234E-02 -0.63423987079E-02 -0.22929417778E-01  0.24400580800E-01  0.51100000000E-03 0.  1.
</event>
<event>
 8    1  0.1128298E+005  0.1043930E+01  0.7957747E-01            NaN
         13   -1    0    0    0    0  0.00000000000E+00  0.00000000000E+00  0.74505805969E-08  0.10566000000E+00  0.10566000000E+00 0.  1.
     999900   -1    0    0    0    0 -0.00000000000E+00 -0.00000000000E+00 -0.74505805969E-08  0.93827000000E+00  0.93827000000E+00 0.  1.
     999902    2    1    2    0    0 -0.15902852086E-03  0.15758637244E-01 -0.16472241151E-01  0.10211331874E+01  0.10208786861E+01 0.  0.
     999903    2    3    3    0    0  0.45305656165E-01  0.11662708483E+00  0.38849073541E-01  0.13248143942E+00  0.19687607237E-01 0.  0.
         14    1    1    2    0    0  0.15902852086E-03 -0.15758637244E-01  0.16472241151E-01  0.22796812637E-01  0.00000000000E+00 0.  1.
     999901    1    3    3    0    0 -0.45464684686E-01 -0.10086844758E+00 -0.55321314692E-01  0.88865174795E+00  0.88000000000E+00 0.  1.
        -11    1    4    4    0    0  0.54397774477E-02  0.37851321055E-01  0.14442713843E-01  0.40879906904E-01  0.51100000000E-03 0. -1.
         11    1    4    4    0    0  0.39865878717E-01  0.78775763772E-01  0.24406359698E-01  0.91601532511E-01  0.51100000000E-03 0.  1.
</event>
<event>
 8    1  0.1128298E+005  0.1043930E+01  0.7957747E-01            NaN
         13   -1    0    0    0    0  0.00000000000E+00  0.00000000000E+00  0.74505805969E-08  0.10566000000E+00  0.10566000000E+00 0. -1.
     999900   -1    0    0    0    0 -0.00000000000E+00 -0.00000000000E+00 -0.74505805969E-08  0.93827000000E+00  0.93827000000E+00 0.  1.
     999902    2    1    2    0    0  0.16662942805E-01  0.49551723586E-02 -0.18447051635E-01  0.10185823944E+01  0.10182669557E+01 0.  0.
     999903    2    3    3    0    0 -0.61213670865E-01  0.90569326914E-01  0.62179941588E-01  0.12734995420E+00  0.20043682802E-01 0.  0.
         14    1    1    2    0    0 -0.16662942805E-01 -0.49551723586E-02  0.18447051635E-01  0.25347605608E-01  0.00000000000E+00 0. -1.
     999901    1    3    3    0    0  0.77876613670E-01 -0.85614154555E-01 -0.80626993222E-01  0.89123244019E+00  0.88000000000E+00 0.  1.
        -11    1    4    4    0    0 -0.20102480140E-01  0.39383131729E-01  0.15764642719E-01  0.46945988685E-01  0.51100000000E-03 0.  1.
         11    1    4    4    0    0 -0.41111190725E-01  0.51186195185E-01  0.46415298868E-01  0.80403965514E-01  0.51100000000E-03 0. -1.
</event>
<event>
 8    1  0.1128298E+005  0.1043930E+01  0.7957747E-01            NaN
         13   -1    0    0    0    0  0.00000000000E+00  0.00000000000E+00  0.74505805969E-08  0.10566000000E+00  0.10566000000E+00 0. -1.
     999900   -1    0    0    0    0 -0.00000000000E+00 -0.00000000000E+00 -0.74505805969E-08  0.93827000000E+00  0.93827000000E+00 0. -1.
     999902    2    1    2    0    0  0.18341535677E-01  0.17644751412E-02  0.14570163110E-01  0.10204392581E+01  0.10201688411E+01 0.  0.
     999903    2    3    3    0    0 -0.10931986395E+00 -0.49362192798E-01  0.43881187320E-01  0.12927681201E+00  0.19986915498E-01 0.  0.
         14    1    1    2    0    0 -0.18341535677E-01 -0.17644751412E-02 -0.14570163110E-01  0.23490741933E-01  0.00000000000E+00 0.  1.
     999901    1    3    3    0    0  0.12766139962E+00  0.51126667940E-01 -0.29311024210E-01  0.89116244606E+00  0.88000000000E+00 0.  1.
        -11    1    4    4    0    0 -0.86096270701E-01 -0.40830994135E-01  0.26081575625E-01  0.98793965498E-01  0.51100000000E-03 0.  1.
         11    1    4    4    0    0 -0.23223593244E-01 -0.85311986636E-02  0.17799611694E-01  0.30482846509E-01  0.51100000000E-03 0. -1.
</event>
<event>
 8    1  0.1128298E+005  0.1043930E+01  0.7957747E-01            NaN
         13   -1    0    0    0    0  0.00000000000E+00  0.00000000000E+00  0.74505805969E-08  0.10566000000E+00  0.10566000000E+00 0.  1.
     999900   -1    0    0    0    0 -0.00000000000E+00 -0.00000000000E+00 -0.74505805969E-08  0.93827000000E+00  0.93827000000E+00 0. -1.
     999902    2    1    2    0    0  0.18144732300E-01 -0.17159769366E-02  0.15031467759E-01  0.10203054173E+01  0.10200318738E+01 0.  0.
     999903    2    3    3    0    0 -0.23603114651E-01  0.41860115283E-01  0.12123376189E+00  0.13186820179E+00  0.19550482020E-01 0.  0.
         14    1    1    2    0    0 -0.18144732300E-01  0.17159769366E-02 -0.15031467759E-01  0.23624582749E-01  0.00000000000E+00 0. -1.
     999901    1    3    3    0    0  0.41747846950E-01 -0.43576092220E-01 -0.10620229414E+00  0.88843721546E+00  0.88000000000E+00 0. -1.
        -11    1    4    4    0    0 -0.91561199869E-02  0.29471301578E-01  0.91462570383E-01  0.96530073304E-01  0.51100000000E-03 0. -1.
         11    1    4    4    0    0 -0.14446994664E-01  0.12388813705E-01  0.29771191511E-01  0.35338128485E-01  0.51100000000E-03 0.  1.
</event>
<event>
 7    1  0.1128298E+005  0.1043930E+01  0.7957747E-01            NaN
         13   -1    0    0    0    0  0.00000000000E+00  0.00000000000E+00  0.74505805969E-08  0.10566000000E+00  0.10566000000E+00 0.  1.
     999900   -1    0    0    0    0 -0.00000000000E+00 -0.00000000000E+00 -0.74505805969E-08  0.93827000000E+00  0.93827000000E+00 0.  1.
     999903    2    1    2    0    0 -0.13488168913E-02 -0.39236399345E-01  0.93886643992E-01  0.10515423459E+00  0.26483896842E-01 0.  0.
         14    1    1    2    0    0 -0.22856020395E-01  0.24979976774E-01  0.35285307978E-01  0.48902452566E-01  0.00000000000E+00 0.  1.
     999901    1    1    2    0    0  0.24204837286E-01  0.14256422571E-01 -0.12917195197E+00  0.88987331284E+00  0.88000000000E+00 0.  1.
        -11    1    3    3    0    0  0.93483717623E-02 -0.34107189303E-02  0.19490001510E-01  0.21889411552E-01  0.51100000000E-03 0.  1.
         11    1    3    3    0    0 -0.10697188654E-01 -0.35825680415E-01  0.74396642482E-01  0.83264823040E-01  0.51100000000E-03 0. -1.
</event>
<event>
 8    1  0.1128298E+005  0.1043930E+01  0.7957747E-01            NaN
         13   -1    0    0    0    0  0.00000000000E+00  0.00000000000E+00  0.74505805969E-08  0.10566000000E+00  0.10566000000E+00 0. -1.
     999900   -1    0    0    0    0 -0.00000000000E+00 -0.00000000000E+00 -0.74505805969E-08  0.93827000000E+00  0.93827000000E+00 0. -1.
     999902    2    1    2    0    0 -0.53523719142E-02 -0.10641807765E-01  0.20692802233E-01  0.10200534839E+01  0.10197740053E+01 0.  0.
     999903    2    3    3    0    0 -0.15495823671E-02 -0.10331438037E+00  0.81959120257E-01  0.13306068310E+00  0.17651787360E-01 0.  0.
         14    1    1    2    0    0  0.53523719142E-02  0.10641807765E-01 -0.20692802233E-01  0.23876516117E-01  0.00000000000E+00 0.  1.
     999901    1    3    3    0    0 -0.38027895471E-02  0.92672572602E-01 -0.61266318024E-01  0.88699280079E+00  0.88000000000E+00 0. -1.
        -11    1    4    4    0    0  0.69038025843E-03 -0.53199149064E-01  0.31131700981E-01  0.61644707908E-01  0.51100000000E-03 0. -1.
         11    1    4    4    0    0 -0.22399626256E-02 -0.50115231303E-01  0.50827419276E-01  0.71415975190E-01  0.51100000000E-03 0.  1.
</event>
<event>
 8    1  0.1128298E+005  0.1043930E+01  0.7957747E-01            NaN
         13   -1    0    0    0    0  0.00000000000E+00  0.00000000000E+00  0.74505805969E-08  0.10566000000E+00  0.10566000000E+00 0. -1.
     999900   -1    0    0    0    0 -0.00000000000E+00 -0.00000000000E+00 -0.74505805969E-08  0.93827000000E+00  0.93827000000E+00 0. -1.
     999902    2    1    2    0    0 -0.86500559970E-04  0.22786443712E-01  0.62235056719E-02  0.10203087908E+01  0.10200353264E+01 0.  0.
     999903    2    3    3    0    0  0.50999506577E-01  0.12031799186E+00 -0.15218842714E-01  0.13318875538E+00  0.20742771040E-01 0.  0.
         14    1    1    2    0    0  0.86500559970E-04 -0.22786443712E-01 -0.62235056719E-02  0.23621209161E-01  0.00000000000E+00 0. -1.
     999901    1    3    3    0    0 -0.51086007137E-01 -0.97531548146E-01  0.21442348385E-01  0.88712003546E+00  0.88000000000E+00 0.  1.
        -11    1    4    4    0    0  0.23998199014E-01  0.79835353423E-01 -0.13828848613E-01  0.84505002142E-01  0.51100000000E-03 0.  1.
         11    1    4    4    0    0  0.27001307563E-01  0.40482638434E-01 -0.13899941011E-02  0.48683753238E-01  0.51100000000E-03 0. -1.
</event>
<event>
 8    1  0.1128298E+005  0.1043930E+01  0.7957747E-01            NaN
         13   -1    0    0    0    0  0.00000000000E+00  0.00000000000E+00  0.74505805969E-08  0.10566000000E+00  0.10566000000E+00 0.  1.
     999900   -1    0    0    0    0 -0.00000000000E+00 -0.00000000000E+00 -0.74505805969E-08  0.93827000000E+00  0.93827000000E+00 0.  1.
     999902    2    1    2    0    0  0.12790734411E-01 -0.10830749032E-01 -0.11703270535E-01  0.10234880198E+01  0.10232838571E+01 0.  0.
     999903    2    3    3    0    0 -0.10518123917E-01 -0.59792111886E-01 -0.11913789484E+00  0.13529732161E+00  0.20634913933E-01 0.  0.
         14    1    1    2    0    0 -0.12790734411E-01  0.10830749032E-01  0.11703270535E-01  0.20441980153E-01  0.00000000000E+00 0.  1.
     999901    1    3    3    0    0  0.23308858328E-01  0.48961362854E-01  0.10743462431E+00  0.88819069823E+00  0.88000000000E+00 0. -1.
        -11    1    4    4    0    0 -0.48162894420E-03 -0.49957458825E-01 -0.95964631186E-01  0.10819173360E+00  0.51100000000E-03 0. -1.
         11    1    4    4    0    0 -0.10036494973E-01 -0.98346530609E-02 -0.23173263659E-01  0.27105588018E-01  0.51100000000E-03 0.  1.
</event>
<event>
 8    1  0.1128298E+005  0.1043930E+01  0.7957747E-01            NaN
         13   -1    0    0    0    0  0.00000000000E+00  0.00000000000E+00  0.74505805969E-08  0.10566000000E+00  0.10566000000E+00 0.  1.
     999900   -1    0    0    0    0 -0.00000000000E+00 -0.00000000000E+00 -0.74505805969E-08  0.93827000000E+00  0.93827000000E+00 0.  1.
     999902    2    1    2    0    0  0.77940666742E-02  0.22818268337E-01 -0.55757504759E-02  0.10191810639E+01  0.10188805284E+01 0.  0.
     999903    2    3    3    0    0  0.26506753558E-01 -0.48227617662E-01 -0.11515985741E+00  0.12934604600E+00  0.20978459592E-01 0.  0.
         14    1    1    2    0    0 -0.77940666742E-02 -0.22818268337E-01  0.55757504759E-02  0.24748936110E-01  0.00000000000E+00 0.  1.
     999901    1    3    3    0    0 -0.18712686884E-01  0.71045885999E-01  0.10958410694E+00  0.88983501789E+00  0.88000000000E+00 0. -1.
        -11    1    4    4    0    0  0.11427199009E-01 -0.10547149898E-01 -0.51919749719E-01  0.54200966597E-01  0.51100000000E-03 0. -1.
         11    1    4    4    0    0  0.15079554549E-01 -0.37680467764E-01 -0.63240107696E-01  0.75145079404E-01  0.51100000000E-03 0.  1.
</event>
<event>
 8    1  0.1128298E+005  0.1043930E+01  0.7957747E-01            NaN
         13   -1    0    0    0    0  0.00000000000E+00  0.00000000000E+00  0.74505805969E-08  0.10566000000E+00  0.10566000000E+00 0.  1.
     999900   -1    0    0    0    0 -0.00000000000E+00 -0.00000000000E+00 -0.74505805969E-08  0.93827000000E+00  0.93827000000E+00 0.  1.
     999902    2    1    2    0    0 -0.10643192975E-01  0.14949027006E-01  0.14656066246E-01  0.10204448719E+01  0.10201745857E+01 0.  0.
     999903    2    3    3    0    0  0.12314048315E+00 -0.10437783402E-01 -0.30773837927E-01  0.12881353644E+00  0.19322840276E-01 0.  0.
         14    1    1    2    0    0  0.10643192975E-01 -0.14949027006E-01 -0.14656066246E-01  0.23485128123E-01  0.00000000000E+00 0. -1.
     999901    1    3    3    0    0 -0.13378367613E+00  0.25386810408E-01  0.45429904174E-01  0.89163133544E+00  0.88000000000E+00 0. -1.
        -11    1    4    4    0    0  0.79536716269E-01  0.18519207960E-02 -0.23250334420E-01  0.82887622823E-01  0.51100000000E-03 0.  1.
         11    1    4    4    0    0  0.43603766882E-01 -0.12289704198E-01 -0.75235035072E-02  0.45925913617E-01  0.51100000000E-03 0. -1.
</event>
<event>
 8    1  0.1128298E+005  0.1043930E+01  0.7957747E-01            NaN
         13   -1    0    0    0    0  0.00000000000E+00  0.00000000000E+00  0.74505805969E-08  0.10566000000E+00  0.10566000000E+00 0.  1.
     999900   -1    0    0    0    0 -0.00000000000E+00 -0.00000000000E+00 -0.74505805969E-08  0.93827000000E+00  0.93827000000E+00 0. -1.
     999902    2    1    2    0    0 -0.19159639721E-01 -0.84166681718E-02 -0.11789416159E-01  0.10199107904E+01  0.10196279213E+01 0.  0.
     999903    2    3    3    0    0  0.74096011503E-01  0.47649974516E-01  0.90586948891E-01  0.12731849542E+00  0.15596953989E-01 0.  0.
         14    1    1    2    0    0  0.19159639721E-01  0.84166681718E-02  0.11789416159E-01  0.24019209619E-01  0.00000000000E+00 0.  1.
     999901    1    3    3    0    0 -0.93255651225E-01 -0.56066642688E-01 -0.10237636505E+00  0.89259229496E+00  0.88000000000E+00 0. -1.
        -11    1    4    4    0    0  0.45928054852E-01  0.24548685170E-01  0.62252181774E-01  0.81164151093E-01  0.51100000000E-03 0. -1.
         11    1    4    4    0    0  0.28167956652E-01  0.23101289346E-01  0.28334767117E-01  0.46154344324E-01  0.51100000000E-03 0.  1.
</event>
<event>
 8    1  0.1128298E+005  0.1043930E+01  0.7957747E-01            NaN
         13   -1    0    0    0    0  0.00000000000E+00  0.00000000000E+00  0.74505805969E-08  0.10566000000E+00  0.10566000000E+00 0. -1.
     999900   -1    0    0    0    0 -0.00000000000E+00 -0.00000000000E+00 -0.74505805969E-08  0.93827000000E+00  0.93827000000E+00 0. -1.
     999902    2    1    2    0    0 -0.58835402393E-02 -0.21282866932E-02  0.30335080971E-01  0.10129564179E+01  0.10124827612E+01 0.  0.
     999903    2    3    3    0    0  0.10386106580E+00  0.27419130497E-01  0.60988692376E-01  0.12511827258E+00  0.19900548451E-01 0.  0.
         14    1    1    2    0    0  0.58835402393E-02  0.21282866932E-02 -0.30335080971E-01  0.30973582091E-01  0.00000000000E+00 0.  1.
     999901    1    3    3    0    0 -0.10974460604E+00 -0.29547417190E-01 -0.30653611404E-01  0.88783814533E+00  0.88000000000E+00 0. -1.
        -11    1    4    4    0    0  0.34607692809E-01  0.14673759477E-01  0.12487356615E-01  0.39613215156E-01  0.51100000000E-03 0. -1.
         11    1    4    4    0    0  0.69253372989E-01  0.12745371020E-01  0.48501335760E-01  0.85505057420E-01  0.51100000000E-03 0.  1.
</event>
<event>
 8    1  0.1128298E+005  0.1043930E+01  0.7957747E-01            NaN
         13   -1    0    0    0    0  0.00000000000E+00  0.00000000000E+00  0.74505805969E-08  0.10566000000E+00  0.10566000000E+00 0. -1.
     999900   -1    0    0    0    0 -0.00000000000E+00 -0.00000000000E+00 -0.74505805969E-08  0.93827000000E+00  0.93827000000E+00 0. -1.
     999902    2    1    2    0    0 -0.14592822994E-01 -0.85995470783E-03  0.17181579470E-01  0.10213712616E+01  0.10211221070E+01 0.  0.
     999903    2    3    3    0    0 -0.89313112434E-01 -0.93386572284E-01  0.28115854974E-01  0.13330377825E+00  0.16778321072E-01 0.  0.
         14    1    1    2    0    0  0.14592822994E-01  0.85995470783E-03 -0.17181579470E-01  0.22558738398E-01  0.00000000000E+00 0. -1.
     999901    1    3    3    0    0  0.74720289439E-01  0.92526617576E-01 -0.10934275504E-01  0.88806748336E+00  0.88000000000E+00 0.  1.
        -11    1    4    4    0    0 -0.45632944376E-01 -0.46147505416E-01  0.56236514203E-02  0.65144795992E-01  0.51100000000E-03 0.  1.
         11    1    4    4    0    0 -0.43680168058E-01 -0.47239066868E-01  0.22492203553E-01  0.68158982254E-01  0.51100000000E-03 0. -1.
</event>
<event>
 8    1  0.1128298E+005  0.1043930E+01  0.7957747E-01            NaN
         13   -1    0    0    0    0  0.00000000000E+00  0.00000000000E+00  0.74505805969E-08  0.10566000000E+00  0.10566000000E+00 0. -1.
     999900   -1    0    0    0    0 -0.00000000000E+00 -0.00000000000E+00 -0.74505805969E-08  0.93827000000E+00  0.93827000000E+00 0.  1.
     999902    2    1    2    0    0 -0.10085760516E-01 -0.20761884494E-01 -0.64568122305E-02  0.10199619205E+01  0.10196802687E+01 0.  0.
     999903    2    3    3    0    0 -0.10862315648E-01  0.10662238561E+00  0.66796623368E-01  0.12777728646E+00  0.19465945303E-01 0.  0.
         14    1    1    2    0    0  0.10085760516E-01  0.20761884494E-01  0.64568122305E-02  0.23968079546E-01  0.00000000000E+00 0.  1.
     999901    1    3    3    0    0  0.77655513242E-03 -0.12738427011E+00 -0.73253435598E-01  0.89218463399E+00  0.88000000000E+00 0.  1.
        -11    1    4    4    0    0 -0.42339542417E-02  0.20552538082E-01  0.49021886375E-02  0.21555179530E-01  0.51100000000E-03 0. -1.
         11    1    4    4    0    0 -0.66283614066E-02  0.86069847532E-01  0.61894434730E-01  0.10622210693E+00  0.51100000000E-03 0.  1.
</event>
<event>
 8    1  0.1128298E+005  0.1043930E+01  0.7957747E-01            NaN
         13   -1    0    0    0    0  0.00000000000E+00  0.00000000000E+00  0.74505805969E-08  0.10566000000E+00  0.10566000000E+00 0.  1.
     999900   -1    0    0    0    0 -0.00000000000E+00 -0.00000000000E+00 -0.74505805969E-08  0.93827000000E+00  0.93827000000E+00 0.  1.
     999902    2    1    2    0    0 -0.14244359454E-01 -0.16671986432E-01 -0.82906710702E-02  0.10204866185E+01  0.10202173036E+01 0.  0.
     999903    2    3    3    0    0  0.78073869654E-01 -0.64621320515E-01 -0.81132625106E-01  0.13137034698E+00  0.20105248617E-01 0.  0.
         14    1    1    2    0    0  0.14244359454E-01  0.16671986432E-01  0.82906710702E-02  0.23443381468E-01  0.00000000000E+00 0. -1.
     999901    1    3    3    0    0 -0.92318229109E-01  0.47949334083E-01  0.72841954036E-01  0.88911627155E+00  0.88000000000E+00 0. -1.
        -11    1    4    4    0    0  0.51002017067E-01 -0.53871445999E-01 -0.58793684770E-01  0.94658844958E-01  0.51100000000E-03 0.  1.
         11    1    4    4    0    0  0.27071852587E-01 -0.10749874516E-01 -0.22338940336E-01  0.36711502025E-01  0.51100000000E-03 0. -1.
</event>
<event>
 8    1  0.1128298E+005  0.1043930E+01  0.7957747E-01            NaN
         13   -1    0    0    0    0  0.00000000000E+00  0.00000000000E+00  0.74505805969E-08  0.10566000000E+00  0.10566000000E+00 0. -1.
     999900   -1    0    0    0    0 -0.00000000000E+00 -0.00000000000E+00 -0.74505805969E-08  0.93827000000E+00  0.93827000000E+00 0.  1.
     999902    2    1    2    0    0  0.23415872131E-01  0.26220569674E-03  0.39397004037E-02  0.10201835675E+01  0.10199071616E+01 0.  0.
     999903    2    3    3    0    0  0.92049455083E-01  0.93127560443E-01  0.50367251302E-02  0.13263878194E+00  0.20538577854E-01 0.  0.
         14    1    1    2    0    0 -0.23415872131E-01 -0.26220569674E-03 -0.39397004037E-02  0.23746432548E-01  0.00000000000E+00 0.  1.
     999901    1    3    3    0    0 -0.68633582952E-01 -0.92865354746E-01 -0.10970247265E-02  0.88754478551E+00  0.88000000000E+00 0. -1.
        -11    1    4    4    0    0  0.59093304615E-01  0.45576760933E-01  0.47620388422E-02  0.74780999742E-01  0.51100000000E-03 0. -1.
         11    1    4    4    0    0  0.32956150468E-01  0.47550799510E-01  0.27468628800E-03  0.57857782201E-01  0.51100000000E-03 0.  1.
</event>
<event>
 8    1  0.1128298E+005  0.1043930E+01  0.7957747E-01            NaN
         13   -1    0    0    0    0  0.00000000000E+00  0.00000000000E+00  0.74505805969E-08  0.10566000000E+00  0.10566000000E+00 0.  1.
     999900   -1    0    0    0    0 -0.00000000000E+00 -0.00000000000E+00 -0.74505805969E-08  0.93827000000E+00  0.93827000000E+00 0. -1.
     999902    2    1    2    0    0  0.22035321069E-01  0.23712916344E-02  0.88477632447E-02  0.10200666115E+01  0.10197874438E+01 0.  0.
     999903    2    3    3    0    0  0.11592563023E+00  0.40196990295E-01 -0.45908524063E-01  0.13257327365E+00  0.20335450117E-01 0.  0.
         14    1    1    2    0    0 -0.22035321069E-01 -0.23712916344E-02 -0.88477632447E-02  0.23863388550E-01  0.00000000000E+00 0.  1.
     999901    1    3    3    0    0 -0.93890309166E-01 -0.37825698660E-01  0.54756287307E-01  0.88749333780E+00  0.88000000000E+00 0.  1.
        -11    1    4    4    0    0  0.10819073234E+00  0.33923003361E-01 -0.37195361200E-01  0.11933046861E+00  0.51100000000E-03 0.  1.
         11    1    4    4    0    0  0.77348978906E-02  0.62739869340E-02 -0.87131628622E-02  0.13242805046E-01  0.51100000000E-03 0. -1.
</event>
<event>
 8    1  0.1381057E+005  0.1043930E+01  0.7957747E-01            NaN
         13   -1    0    0    0    0  0.00000000000E+00  0.00000000000E+00  0.74505805969E-08  0.10566000000E+00  0.10566000000E+00 0.  1.
     999900   -1    0    0    0    0 -0.00000000000E+00 -0.00000000000E+00 -0.74505805969E-08  0.93827000000E+00  0.93827000000E+00 0. -1.
     999902    2    1    2    0    0  0.15000593739E-01 -0.14195501849E-01  0.11682607510E-01  0.10202020965E+01  0.10199261269E+01 0.  0.
     999903    2    3    3    0    0  0.10612924151E+00 -0.34774641951E-02 -0.74614618323E-01  0.13123273937E+00  0.19472594920E-01 0.  0.
         14    1    1    2    0    0 -0.15000593739E-01  0.14195501849E-01 -0.11682607510E-01  0.23727903479E-01  0.00000000000E+00 0. -1.
     999901    1    3    3    0    0 -0.91128647772E-01 -0.10718037654E-01  0.86297225833E-01  0.88896935716E+00  0.88000000000E+00 0.  1.
        -11    1    4    4    0    0  0.76788577575E-01  0.62369718709E-02 -0.53651573780E-01  0.93883640503E-01  0.51100000000E-03 0.  1.
         11    1    4    4    0    0  0.29340663936E-01 -0.97144360660E-02 -0.20963044543E-01  0.37349098862E-01  0.51100000000E-03 0. -1.
</event>
<event>
 8    1  0.1128298E+005  0.1043930E+01  0.7957747E-01            NaN
         13   -1    0    0    0    0  0.00000000000E+00  0.00000000000E+00  0.74505805969E-08  0.10566000000E+00  0.10566000000E+00 0. -1.
     999900   -1    0    0    0    0 -0.00000000000E+00 -0.00000000000E+00 -0.74505805969E-08  0.93827000000E+00  0.93827000000E+00 0.  1.
     999902    2    1    2    0    0 -0.13953417987E-01  0.28793649021E-02 -0.18138143599E-01  0.10208652895E+01  0.10206047024E+01 0.  0.
     999903    2    3    3    0    0 -0.93815935309E-02  0.12963224233E+00  0.44956335054E-02  0.13148377332E+00  0.19371096433E-01 0.  0.
         14    1    1    2    0    0  0.13953417987E-01 -0.28793649021E-02  0.18138143599E-01  0.23064710468E-01  0.00000000000E+00 0. -1.
     999901    1    3    3    0    0 -0.45718244558E-02 -0.12675287743E+00 -0.22633777105E-01  0.88938151621E+00  0.88000000000E+00 0. -1.
        -11    1    4    4    0    0 -0.13788276644E-01  0.57366068240E-01  0.24317355130E-02  0.59052153362E-01  0.51100000000E-03 0.  1.
         11    1    4    4    0    0  0.44066831135E-02  0.72266174090E-01  0.20638979924E-02  0.72431619957E-01  0.51100000000E-03 0. -1.
</event>
<event>
 8    1  0.1128298E+005  0.1043930E+01  0.7957747E-01            NaN
         13   -1    0    0    0    0  0.00000000000E+00  0.00000000000E+00  0.74505805969E-08  0.10566000000E+00  0.10566000000E+00 0.  1.
     999900   -1    0    0    0    0 -0.00000000000E+00 -0.00000000000E+00 -0.74505805969E-08  0.93827000000E+00  0.93827000000E+00 0. -1.
     999902    2    1    2    0    0  0.22237406173E-01 -0.99729003471E-02  0.16769954941E-03  0.10195581084E+01  0.10192667695E+01 0.  0.
     999903    2    3    3    0    0 -0.10141201893E+00  0.51788442651E-01 -0.53361986422E-01  0.12716297674E+00  0.18880696055E-01 0.  0.
         14    1    1    2    0    0 -0.22237406173E-01  0.99729003471E-02 -0.16769954941E-03  0.24371891551E-01  0.00000000000E+00 0. -1.
     999901    1    3    3    0    0  0.12364942510E+00 -0.61761342998E-01  0.53529685971E-01  0.89239513171E+00  0.88000000000E+00 0.  1.
        -11    1    4    4    0    0 -0.13932124608E-01  0.14888237266E-01 -0.76213942613E-02  0.21774078085E-01  0.51100000000E-03 0.  1.
         11    1    4    4    0    0 -0.87479894320E-01  0.36900205386E-01 -0.45740592161E-01  0.10538889866E+00  0.51100000000E-03 0. -1.
</event>
<event>
 8    1  0.1128298E+005  0.1043930E+01  0.7957747E-01            NaN
         13   -1    0    0    0    0  0.00000000000E+00  0.00000000000E+00  0.74505805969E-08  0.10566000000E+00  0.10566000000E+00 0.  1.
     999900   -1    0    0    0    0 -0.00000000000E+00 -0.00000000000E+00 -0.74505805969E-08  0.93827000000E+00  0.93827000000E+00 0.  1.
     999902    2    1    2    0    0  0.90555853980E-02  0.18688840299E-01  0.10949337710E-01  0.10204531098E+01  0.10201830154E+01 0.  0.
     999903    2    3    3    0    0  0.75953547248E-01  0.75252847189E-01 -0.74259040459E-01  0.13200767426E+00  0.21901794967E-01 0.  0.
         14    1    1    2    0    0 -0.90555853980E-02 -0.18688840299E-01 -0.10949337710E-01  0.23476890231E-01  0.00000000000E+00 0.  1.
     999901    1    3    3    0    0 -0.66897961850E-01 -0.56564006891E-01  0.85208378169E-01  0.88844543551E+00  0.88000000000E+00 0. -1.
        -11    1    4    4    0    0  0.23982803324E-01  0.33126454776E-01 -0.38401606345E-01  0.56102418416E-01  0.51100000000E-03 0.  1.
         11    1    4    4    0    0  0.51970743923E-01  0.42126392414E-01 -0.35857434114E-01  0.75905255839E-01  0.51100000000E-03 0. -1.
</event>
<event>
 8    1  0.1128298E+005  0.1043930E+01  0.7957747E-01            NaN
         13   -1    0    0    0    0  0.00000000000E+00  0.00000000000E+00  0.74505805969E-08  0.10566000000E+00  0.10566000000E+00 0.  1.
     999900   -1    0    0    0    0 -0.00000000000E+00 -0.00000000000E+00 -0.74505805969E-08  0.93827000000E+00  0.93827000000E+00 0.  1.
     999902    2    1    2    0    0  0.12707536513E-01  0.14073241402E-01 -0.14249433734E-01  0.10202111474E+01  0.10199353907E+01 0.  0.
     999903    2    3    3    0    0  0.10209117828E+00  0.22956571369E-01  0.76335420003E-01  0.13101265172E+00  0.19687704589E-01 0.  0.
         14    1    1    2    0    0 -0.12707536513E-01 -0.14073241402E-01  0.14249433734E-01  0.23718852618E-01  0.00000000000E+00 0.  1.
     999901    1    3    3    0    0 -0.89383641764E-01 -0.88833299665E-02 -0.90584853737E-01  0.88919849566E+00  0.88000000000E+00 0.  1.
        -11    1    4    4    0    0  0.77341485988E-01  0.85007832349E-02  0.56004154032E-01  0.95868113366E-01  0.51100000000E-03 0. -1.
         11    1    4    4    0    0  0.24749692288E-01  0.14455788134E-01  0.20331265970E-01  0.35144538351E-01  0.51100000000E-03 0.  1.
</event>
<event>
 8    1  0.1128298E+005  0.1043930E+01  0.7957747E-01            NaN
         13   -1    0    0    0    0  0.00000000000E+00  0.00000000000E+00  0.74505805969E-08  0.10566000000E+00  0.10566000000E+00 0. -1.
     999900   -1    0    0    0    0 -0.00000000000E+00 -0.00000000000E+00 -0.74505805969E-08  0.93827000000E+00  0.93827000000E+00 0. -1.
     999902    2    1    2    0    0  0.96950777764E-02  0.20449253968E-01 -0.52367895108E-02  0.10207009129E+01  0.10204365552E+01 0.  0.
     999903    2    3    3    0    0 -0.87609820597E-01 -0.12285874720E-01  0.92541953046E-01  0.12935332957E+00  0.18489116105E-01 0.  0.
         14    1    1    2    0    0 -0.96950777764E-02 -0.20449253968E-01  0.52367895108E-02  0.23229087053E-01  0.00000000000E+00 0. -1.
     999901    1    3    3    0    0  0.97304898373E-01  0.32735128688E-01 -0.97778742557E-01  0.89134758338E+00  0.88000000000E+00 0. -1.
        -11    1    4    4    0    0 -0.38408468137E-02 -0.17286925978E-03  0.11629157922E-01  0.12258891589E-01  0.51100000000E-03 0.  1.
         11    1    4    4    0    0 -0.83768973783E-01 -0.12113005460E-01  0.80912795125E-01  0.11709443798E+00  0.51100000000E-03 0. -1.
</event>
<event>
 8    1  0.1128298E+005  0.1043930E+01  0.7957747E-01            NaN
         13   -1    0    0    0    0  0.00000000000E+00  0.00000000000E+00  0.74505805969E-08  0.10566000000E+00  0.10566000000E+00 0.  1.
     999900   -1    0    0    0    0 -0.00000000000E+00 -0.00000000000E+00 -0.74505805969E-08  0.93827000000E+00  0.93827000000E+00 0.  1.
     999902    2    1    2    0    0 -0.11697634957E-01  0.10493373941E-01  0.94614888078E-02  0.10255870087E+01  0.10254229601E+01 0.  0.
     999903    2    3    3    0    0  0.86520537993E-01  0.44427039664E-01  0.92490415028E-01  0.13559144366E+00  0.19261292080E-01 0.  0.
         14    1    1    2    0    0  0.11697634957E-01 -0.10493373941E-01 -0.94614888078E-02  0.18342991324E-01  0.00000000000E+00 0.  1.
     999901    1    3    3    0    0 -0.98218172950E-01 -0.33933665724E-01 -0.83028926220E-01  0.88999556502E+00  0.88000000000E+00 0.  1.
        -11    1    4    4    0    0  0.39814941280E-01  0.28210175496E-01  0.36797847140E-01  0.61117806127E-01  0.51100000000E-03 0.  1.
         11    1    4    4    0    0  0.46705596713E-01  0.16216864169E-01  0.55692567888E-01  0.74473637529E-01  0.51100000000E-03 0. -1.
</event>
<event>
 8    1  0.1128298E+005  0.1043930E+01  0.7957747E-01            NaN
         13   -1    0    0    0    0  0.00000000000E+00  0.00000000000E+00  0.74505805969E-08  0.10566000000E+00  0.10566000000E+00 0. -1.
     999900   -1    0    0    0    0 -0.00000000000E+00 -0.00000000000E+00 -0.74505805969E-08  0.93827000000E+00  0.93827000000E+00 0.  1.
     999902    2    1    2    0    0  0.10996222042E-01 -0.12017046948E-01 -0.16680929077E-01  0.10206152040E+01  0.10203488692E+01 0.  0.
     999903    2    3    3    0    0 -0.80606365936E-01  0.55475047775E-01  0.80039039613E-01  0.12803413246E+00  0.20288520322E-01 0.  0.
         14    1    1    2    0    0 -0.10996222042E-01  0.12017046948E-01  0.16680929077E-01  0.23314795976E-01  0.00000000000E+00 0. -1.
     999901    1    3    3    0    0  0.91602587978E-01 -0.67492094724E-01 -0.96719968690E-01  0.89258107157E+00  0.88000000000E+00 0.  1.
        -11    1    4    4    0    0 -0.53772477328E-01  0.25067974549E-01  0.49403291125E-01  0.77206404922E-01  0.51100000000E-03 0.  1.
         11    1    4    4    0    0 -0.26833888609E-01  0.30407073226E-01  0.30635748488E-01  0.50827727536E-01  0.51100000000E-03 0. -1.
</event>
<event>
 8    1  0.1128298E+005  0.1043930E+01  0.7957747E-01            NaN
         13   -1    0    0    0    0  0.00000000000E+00  0.00000000000E+00  0.74505805969E-08  0.10566000000E+00  0.10566000000E+00 0. -1.
     999900   -1    0    0    0    0 -0.00000000000E+00 -0.00000000000E+00 -0.74505805969E-08  0.93827000000E+00  0.93827000000E+00 0. -1.
     999902    2    1    2    0    0 -0.14525646179E-01 -0.13431312631E-01  0.12549483035E-01  0.10205017248E+01  0.10202327608E+01 0.  0.
     999903    2    3    3    0    0 -0.77198725103E-01  0.85751121915E-01 -0.56601022685E-01  0.13002608637E+00  0.19753716100E-01 0.  0.
         14    1    1    2    0    0  0.14525646179E-01  0.13431312631E-01 -0.12549483035E-01  0.23428275232E-01  0.00000000000E+00 0.  1.
     999901    1    3    3    0    0  0.62673078924E-01 -0.99182434546E-01  0.69150505720E-01  0.89047563840E+00  0.88000000000E+00 0.  1.
        -11    1    4    4    0    0 -0.50000367205E-01  0.59161698852E-01 -0.27748974194E-01  0.82282501308E-01  0.51100000000E-03 0. -1.
         11    1    4    4    0    0 -0.27198357898E-01  0.26589423062E-01 -0.28852048491E-01  0.47743585059E-01  0.51100000000E-03 0.  1.
</event>
<event>
 8    1  0.1128298E+005  0.1043930E+01  0.7957747E-01            NaN
         13   -1    0    0    0    0  0.00000000000E+00  0.00000000000E+00  0.74505805969E-08  0.10566000000E+00  0.10566000000E+00 0. -1.
     999900   -1    0    0    0    0 -0.00000000000E+00 -0.00000000000E+00 -0.74505805969E-08  0.93827000000E+00  0.93827000000E+00 0. -1.
     999902    2    1    2    0    0  0.15260770471E-01  0.15746396244E-01  0.94575402083E-02  0.10200493556E+01  0.10197697793E+01 0.  0.
     999903    2    3    3    0    0 -0.89660957961E-02 -0.11987617040E+00 -0.39935047934E-01  0.12796188826E+00  0.18131455791E-01 0.  0.
         14    1    1    2    0    0 -0.15260770471E-01 -0.15746396244E-01 -0.94575402083E-02  0.23880644398E-01  0.00000000000E+00 0. -1.
     999901    1    3    3    0    0  0.24226866268E-01  0.13562256664E+00  0.49392588142E-01  0.89208746735E+00  0.88000000000E+00 0.  1.
        -11    1    4    4    0    0 -0.88363670461E-03 -0.29231305522E-01 -0.18019913981E-01  0.34354453237E-01  0.51100000000E-03 0.  1.
         11    1    4    4    0    0 -0.80824590915E-02 -0.90644864878E-01 -0.21915133953E-01  0.93607435019E-01  0.51100000000E-03 0. -1.
</event>
<event>
 8    1  0.1128298E+005  0.1043930E+01  0.7957747E-01            NaN
         13   -1    0    0    0    0  0.00000000000E+00  0.00000000000E+00  0.74505805969E-08  0.10566000000E+00  0.10566000000E+00 0. -1.
     999900   -1    0    0    0    0 -0.00000000000E+00 -0.00000000000E+00 -0.74505805969E-08  0.93827000000E+00  0.93827000000E+00 0.  1.
     999902    2    1    2    0    0  0.57207552716E-02  0.20952684952E-01 -0.17654950006E-01  0.10159400142E+01  0.10155543674E+01 0.  0.
     999903    2    3    3    0    0  0.11229338947E+00 -0.30023492442E-02 -0.58497310525E-01  0.12824656007E+00  0.20159995338E-01 0.  0.
         14    1    1    2    0    0 -0.57207552716E-02 -0.20952684952E-01  0.17654950006E-01  0.27989985839E-01  0.00000000000E+00 0. -1.
     999901    1    3    3    0    0 -0.10657263420E+00  0.23955034196E-01  0.40842360519E-01  0.88769345409E+00  0.88000000000E+00 0.  1.
        -11    1    4    4    0    0  0.76857727749E-01  0.69556750636E-02 -0.36579448550E-01  0.85403799140E-01  0.51100000000E-03 0.  1.
         11    1    4    4    0    0  0.35435661719E-01 -0.99580243078E-02 -0.21917861975E-01  0.42842760930E-01  0.51100000000E-03 0. -1.
</event>
<event>
 7    1  0.1128298E+005  0.1043930E+01  0.7957747E-01            NaN
         13   -1    0    0    0    0  0.00000000000E+00  0.00000000000E+00  0.74505805969E-08  0.10566000000E+00  0.10566000000E+00 0.  1.
     999900   -1    0    0    0    0 -0.00000000000E+00 -0.00000000000E+00 -0.74505805969E-08  0.93827000000E+00  0.93827000000E+00 0. -1.
     999903    2    1    2    0    0 -0.60514590526E-01  0.19545223426E-01  0.75073852675E-02  0.67454849052E-01  0.21207649604E-01 0.  0.
         14    1    1    2    0    0  0.69949855429E-01  0.29377026752E-02  0.61837704831E-01  0.93410460390E-01  0.00000000000E+00 0.  1.
     999901    1    1    2    0    0 -0.94352649025E-02 -0.22482926102E-01 -0.69345090099E-01  0.88306469056E+00  0.88000000000E+00 0. -1.
        -11    1    3    3    0    0 -0.53647114849E-01  0.12744486330E-01  0.12533719699E-01  0.56549006304E-01  0.51100000000E-03 0. -1.
         11    1    3    3    0    0 -0.68674756773E-02  0.68007370966E-02 -0.50263344315E-02  0.10905842748E-01  0.51100000000E-03 0.  1.
</event>
<event>
 7    1  0.1128298E+005  0.1043930E+01  0.7957747E-01            NaN
         13   -1    0    0    0    0  0.00000000000E+00  0.00000000000E+00  0.74505805969E-08  0.10566000000E+00  0.10566000000E+00 0. -1.
     999900   -1    0    0    0    0 -0.00000000000E+00 -0.00000000000E+00 -0.74505805969E-08  0.93827000000E+00  0.93827000000E+00 0. -1.
     999903    2    1    2    0    0  0.99262213728E-01  0.24547762129E-01 -0.50086102613E-01  0.11483663923E+00  0.14941764820E-01 0.  0.
         14    1    1    2    0    0 -0.17991566668E-01  0.23222967432E-01  0.32602929597E-01  0.43885689078E-01  0.00000000000E+00 0. -1.
     999901    1    1    2    0    0 -0.81270647060E-01 -0.47770729561E-01  0.17483173016E-01  0.88520767169E+00  0.88000000000E+00 0. -1.
        -11    1    3    3    0    0  0.49072621692E-01  0.17915835349E-01 -0.30882987595E-01  0.60688708997E-01  0.51100000000E-03 0. -1.
         11    1    3    3    0    0  0.50189592036E-01  0.66319267801E-02 -0.19203115018E-01  0.54147930237E-01  0.51100000000E-03 0.  1.
</event>
<event>
 8    1  0.1128298E+005  0.1043930E+01  0.7957747E-01            NaN
         13   -1    0    0    0    0  0.00000000000E+00  0.00000000000E+00  0.74505805969E-08  0.10566000000E+00  0.10566000000E+00 0. -1.
     999900   -1    0    0    0    0 -0.00000000000E+00 -0.00000000000E+00 -0.74505805969E-08  0.93827000000E+00  0.93827000000E+00 0. -1.
     999902    2    1    2    0    0  0.23946967281E-01 -0.21088729087E-02  0.30253681717E-02  0.10197007318E+01  0.10194128334E+01 0.  0.
     999903    2    3    3    0    0 -0.11752677931E-01 -0.81985349976E-01  0.98409380655E-01  0.13023301110E+00  0.20408525911E-01 0.  0.
         14    1    1    2    0    0 -0.23946967281E-01  0.21088729087E-02 -0.30253681717E-02  0.24229268241E-01  0.00000000000E+00 0. -1.
     999901    1    3    3    0    0  0.35699645213E-01  0.79876477068E-01 -0.95384012484E-01  0.88946772066E+00  0.88000000000E+00 0. -1.
        -11    1    4    4    0    0 -0.13192356941E-01 -0.33429958328E-01  0.50664740581E-01  0.62119058706E-01  0.51100000000E-03 0. -1.
         11    1    4    4    0    0  0.14396790099E-02 -0.48555391649E-01  0.47744640075E-01  0.68113952393E-01  0.51100000000E-03 0.  1.
</event>
<event>
 8    1  0.1128298E+005  0.1043930E+01  0.7957747E-01            NaN
         13   -1    0    0    0    0  0.00000000000E+00  0.00000000000E+00  0.74505805969E-08  0.10566000000E+00  0.10566000000E+00 0. -1.
     999900   -1    0    0    0    0 -0.00000000000E+00 -0.00000000000E+00 -0.74505805969E-08  0.93827000000E+00  0.93827000000E+00 0.  1.
     999902    2    1    2    0    0  0.46826616244E-03  0.17927495545E-01 -0.14347079627E-01  0.10209636537E+01  0.10207053096E+01 0.  0.
     999903    2    3    3    0    0  0.12095772155E+00 -0.32246697750E-01 -0.33793787970E-01  0.13112471713E+00  0.19520538334E-01 0.  0.
         14    1    1    2    0    0 -0.46826616244E-03 -0.17927495545E-01  0.14347079627E-01  0.22966346325E-01  0.00000000000E+00 0. -1.
     999901    1    3    3    0    0 -0.12048945539E+00  0.50174193294E-01  0.19446708343E-01  0.88983893655E+00  0.88000000000E+00 0.  1.
        -11    1    4    4    0    0  0.83884088395E-01 -0.27491840102E-01 -0.15956694983E-01  0.89706291830E-01  0.51100000000E-03 0.  1.
         11    1    4    4    0    0  0.37073633159E-01 -0.47548576480E-02 -0.17837092987E-01  0.41418425297E-01  0.51100000000E-03 0. -1.
</event>
<event>
 8    1  0.1128298E+005  0.1043930E+01  0.7957747E-01            NaN
         13   -1    0    0    0    0  0.00000000000E+00  0.00000000000E+00  0.74505805969E-08  0.10566000000E+00  0.10566000000E+00 0.  1.
     999900   -1    0    0    0    0 -0.00000000000E+00 -0.00000000000E+00 -0.74505805969E-08  0.93827000000E+00  0.93827000000E+00 0. -1.
     999902    2    1    2    0    0  0.18720137994E-01  0.44225988389E-02  0.15747812190E-01  0.10190704639E+01  0.10187672030E+01 0.  0.
     999903    2    3    3    0    0  0.86936477635E-01  0.46696229698E-01 -0.82292652256E-01  0.12999652909E+00  0.19711112331E-01 0.  0.
         14    1    1    2    0    0 -0.18720137994E-01 -0.44225988389E-02 -0.15747812190E-01  0.24859536114E-01  0.00000000000E+00 0. -1.
     999901    1    3    3    0    0 -0.68216339641E-01 -0.42273630859E-01  0.98040464447E-01  0.88907393479E+00  0.88000000000E+00 0.  1.
        -11    1    4    4    0    0  0.44182433420E-01  0.34606325661E-01 -0.43427452976E-01  0.70964004902E-01  0.51100000000E-03 0. -1.
         11    1    4    4    0    0  0.42754044214E-01  0.12089904037E-01 -0.38865199280E-01  0.59032524191E-01  0.51100000000E-03 0.  1.
</event>
<event>
 8    1  0.1128298E+005  0.1043930E+01  0.7957747E-01            NaN
         13   -1    0    0    0    0  0.00000000000E+00  0.00000000000E+00  0.74505805969E-08  0.10566000000E+00  0.10566000000E+00 0. -1.
     999900   -1    0    0    0    0 -0.00000000000E+00 -0.00000000000E+00 -0.74505805969E-08  0.93827000000E+00  0.93827000000E+00 0. -1.
     999902    2    1    2    0    0 -0.21935410047E-01  0.16491464018E-02 -0.40814714269E-02  0.10215572419E+01  0.10213122236E+01 0.  0.
     999903    2    3    3    0    0 -0.17456148721E-03  0.12172227728E+00 -0.46890253734E-01  0.13210590360E+00  0.20902885258E-01 0.  0.
         14    1    1    2    0    0  0.21935410047E-01 -0.16491464018E-02  0.40814714269E-02  0.22372758140E-01  0.00000000000E+00 0. -1.
     999901    1    3    3    0    0 -0.21760848560E-01 -0.12007313088E+00  0.42808782307E-01  0.88945133826E+00  0.88000000000E+00 0.  1.
        -11    1    4    4    0    0  0.81836002062E-02  0.53679237913E-01 -0.14051808742E-01  0.56090519209E-01  0.51100000000E-03 0.  1.
         11    1    4    4    0    0 -0.83581616934E-02  0.68043039371E-01 -0.32838444992E-01  0.76015384391E-01  0.51100000000E-03 0. -1.
</event>
<event>
 8    1  0.1128298E+005  0.1043930E+01  0.7957747E-01            NaN
         13   -1    0    0    0    0  0.00000000000E+00  0.00000000000E+00  0.74505805969E-08  0.10566000000E+00  0.10566000000E+00 0. -1.
     999900   -1    0    0    0    0 -0.00000000000E+00 -0.00000000000E+00 -0.74505805969E-08  0.93827000000E+00  0.93827000000E+00 0.  1.
     999902    2    1    2    0    0  0.21312102940E-01  0.11695498292E-01 -0.28039286979E-02  0.10194585385E+01  0.10191647851E+01 0.  0.
     999903    2    3    3    0    0 -0.64225458836E-02  0.12755157077E+00  0.23834906389E-01  0.13103213872E+00  0.17048938827E-01 0.  0.
         14    1    1    2    0    0 -0.21312102940E-01 -0.11695498292E-01  0.28039286979E-02  0.24471461504E-01  0.00000000000E+00 0.  1.
     999901    1    3    3    0    0  0.27734648823E-01 -0.11585607248E+00 -0.26638835087E-01  0.88842639977E+00  0.88000000000E+00 0. -1.
        -11    1    4    4    0    0 -0.15680356192E-02  0.19957809779E-01 -0.24264526128E-02  0.20172300319E-01  0.51100000000E-03 0.  1.
         11    1    4    4    0    0 -0.48545102644E-02  0.10759376099E+00  0.26261359002E-01  0.11085983841E+00  0.51100000000E-03 0. -1.
</event>
<event>
 7    1  0.1128298E+005  0.1043930E+01  0.7957747E-01            NaN
         13   -1    0    0    0    0  0.00000000000E+00  0.00000000000E+00  0.74505805969E-08  0.10566000000E+00  0.10566000000E+00 0.  1.
     999900   -1    0    0    0    0 -0.00000000000E+00 -0.00000000000E+00 -0.74505805969E-08  0.93827000000E+00  0.93827000000E+00 0. -1.
     999902    2    1    2    0    0  0.17751794408E-01 -0.42289168694E-02 -0.14466702622E-01  0.10206427626E+01  0.10203770643E+01 0.  0.
         14    1    1    2    0    0 -0.17751794408E-01  0.42289168694E-02  0.14466702622E-01  0.23287237435E-01  0.00000000000E+00 0.  1.
     999901    1    3    3    0    0 -0.69323588670E-01  0.32751492445E-01 -0.11945607778E-01  0.88341446544E+00  0.88000000000E+00 0. -1.
        -11    1    3    3    0    0  0.89459000220E-01  0.60874697698E-02  0.14542908148E-01  0.90839018637E-01  0.51100000000E-03 0.  1.
         11    1    3    3    0    0 -0.23836171417E-02 -0.43067879084E-01 -0.17064002993E-01  0.46389278488E-01  0.51100000000E-03 0. -1.
</event>
<event>
 8    1  0.1128298E+005  0.1043930E+01  0.7957747E-01            NaN
         13   -1    0    0    0    0  0.00000000000E+00  0.00000000000E+00  0.74505805969E-08  0.10566000000E+00  0.10566000000E+00 0.  1.
     999900   -1    0    0    0    0 -0.00000000000E+00 -0.00000000000E+00 -0.74505805969E-08  0.93827000000E+00  0.93827000000E+00 0. -1.
     999902    2    1    2    0    0  0.20880456396E-01  0.11051842542E-01  0.79705367848E-02  0.10189967664E+01  0.10186916824E+01 0.  0.
     999903    2    3    3    0    0 -0.26382744707E-01 -0.12191448861E+00  0.18110478949E-01  0.12769621446E+00  0.20472957467E-01 0.  0.
         14    1    1    2    0    0 -0.20880456396E-01 -0.11051842542E-01 -0.79705367848E-02  0.24933233635E-01  0.00000000000E+00 0. -1.
     999901    1    3    3    0    0  0.47263201103E-01  0.13296633116E+00 -0.10139942164E-01  0.89130055191E+00  0.88000000000E+00 0. -1.
        -11    1    4    4    0    0 -0.73753506031E-02 -0.66962369580E-01  0.17243384818E-01  0.69540996378E-01  0.51100000000E-03 0.  1.
         11    1    4    4    0    0 -0.19007394104E-01 -0.54952119034E-01  0.86709413101E-03  0.58155218082E-01  0.51100000000E-03 0. -1.
</event>
<event>
 8    1  0.1128298E+005  0.1043930E+01  0.7957747E-01            NaN
         13   -1    0    0    0    0  0.00000000000E+00  0.00000000000E+00  0.74505805969E-08  0.10566000000E+00  0.10566000000E+00 0. -1.
     999900   -1    0    0    0    0 -0.00000000000E+00 -0.00000000000E+00 -0.74505805969E-08  0.93827000000E+00  0.93827000000E+00 0. -1.
     999902    2    1    2    0    0  0.16190856819E-01  0.16246179543E-01  0.42835278987E-02  0.10205969589E+01  0.10203302023E+01 0.  0.
     999903    2    3    3    0    0  0.12119410063E+00  0.52210619506E-01  0.40969155868E-02  0.13362505578E+00  0.20613393659E-01 0.  0.
         14    1    1    2    0    0 -0.16190856819E-01 -0.16246179543E-01 -0.42835278987E-02  0.23333041069E-01  0.00000000000E+00 0.  1.
     999901    1    3    3    0    0 -0.10500324381E+00 -0.35964439964E-01  0.18661231191E-03  0.88697190315E+00  0.88000000000E+00 0.  1.
        -11    1    4    4    0    0  0.40641758865E-01  0.28236545150E-01  0.27886502189E-02  0.49569070363E-01  0.51100000000E-03 0.  1.
         11    1    4    4    0    0  0.80552341767E-01  0.23974074356E-01  0.13082653680E-02  0.84055985418E-01  0.51100000000E-03 0. -1.
</event>
<event>
 8    1  0.1128298E+005  0.1043930E+01  0.7957747E-01            NaN
         13   -1    0    0    0    0  0.00000000000E+00  0.00000000000E+00  0.74505805969E-08  0.10566000000E+00  0.10566000000E+00 0. -1.
     999900   -1    0    0    0    0 -0.00000000000E+00 -0.00000000000E+00 -0.74505805969E-08  0.93827000000E+00  0.93827000000E+00 0. -1.
     999902    2    1    2    0    0 -0.19268081650E-01 -0.12301600910E-01 -0.31309399874E-02  0.10208563973E+01  0.10205956069E+01 0.  0.
     999903    2    3    3    0    0 -0.16293847879E-01 -0.92257097652E-01  0.91619363636E-01  0.13216109095E+00  0.17192574625E-01 0.  0.
         14    1    1    2    0    0  0.19268081650E-01  0.12301600910E-01  0.31309399874E-02  0.23073602680E-01  0.00000000000E+00 0. -1.
     999901    1    3    3    0    0 -0.29742337711E-02  0.79955496742E-01 -0.94750303624E-01  0.88869530637E+00  0.88000000000E+00 0. -1.
        -11    1    4    4    0    0 -0.19612390604E-01 -0.78753133340E-01  0.80920386937E-01  0.11460834184E+00  0.51100000000E-03 0. -1.
         11    1    4    4    0    0  0.33185427250E-02 -0.13503964312E-01  0.10698976699E-01  0.17552749111E-01  0.51100000000E-03 0.  1.
</event>
<event>
 8    1  0.1128298E+005  0.1043930E+01  0.7957747E-01            NaN
         13   -1    0    0    0    0  0.00000000000E+00  0.00000000000E+00  0.74505805969E-08  0.10566000000E+00  0.10566000000E+00 0.  1.
     999900   -1    0    0    0    0 -0.00000000000E+00 -0.00000000000E+00 -0.74505805969E-08  0.93827000000E+00  0.93827000000E+00 0. -1.
     999902    2    1    2    0    0  0.58668432045E-02  0.22817104491E-01 -0.17615831344E-02  0.10203049438E+01  0.10200313892E+01 0.  0.
     999903    2    3    3    0    0 -0.65228090934E-01  0.11297996552E+00 -0.89853423429E-02  0.13281634449E+00  0.23243677195E-01 0.  0.
         14    1    1    2    0    0 -0.58668432045E-02 -0.22817104491E-01  0.17615831344E-02  0.23625056226E-01  0.00000000000E+00 0. -1.
     999901    1    3    3    0    0  0.71094934138E-01 -0.90162861030E-01  0.72237592085E-02  0.88748859929E+00  0.88000000000E+00 0. -1.
        -11    1    4    4    0    0 -0.47368897626E-01  0.84593964007E-01  0.35243511769E-02  0.97018726960E-01  0.51100000000E-03 0. -1.
         11    1    4    4    0    0 -0.17859193308E-01  0.28386001514E-01 -0.12509693520E-01  0.35797617526E-01  0.51100000000E-03 0.  1.
</event>
<event>
 8    1  0.1128298E+005  0.1043930E+01  0.7957747E-01            NaN
         13   -1    0    0    0    0  0.00000000000E+00  0.00000000000E+00  0.74505805969E-08  0.10566000000E+00  0.10566000000E+00 0. -1.
     999900   -1    0    0    0    0 -0.00000000000E+00 -0.00000000000E+00 -0.74505805969E-08  0.93827000000E+00  0.93827000000E+00 0. -1.
     999902    2    1    2    0    0  0.14171650570E-01 -0.13470353941E-01 -0.14493427385E-01  0.10195918499E+01  0.10193013268E+01 0.  0.
     999903    2    3    3    0    0 -0.12047688648E+00 -0.39395357882E-01 -0.92329479737E-02  0.12895724071E+00  0.21864313494E-01 0.  0.
         14    1    1    2    0    0 -0.14171650570E-01  0.13470353941E-01  0.14493427385E-01  0.24338150146E-01  0.00000000000E+00 0.  1.
     999901    1    3    3    0    0  0.13464853705E+00  0.25925003941E-01 -0.52604794109E-02  0.89063460914E+00  0.88000000000E+00 0. -1.
        -11    1    4    4    0    0 -0.10189701675E+00 -0.24504943637E-01 -0.80447412232E-02  0.10511171803E+00  0.51100000000E-03 0.  1.
         11    1    4    4    0    0 -0.18579869737E-01 -0.14890414244E-01 -0.11882067505E-02  0.23845522684E-01  0.51100000000E-03 0. -1.
</event>
<event>
 8    1  0.1128298E+005  0.1043930E+01  0.7957747E-01            NaN
         13   -1    0    0    0    0  0.00000000000E+00  0.00000000000E+00  0.74505805969E-08  0.10566000000E+00  0.10566000000E+00 0.  1.
     999900   -1    0    0    0    0 -0.00000000000E+00 -0.00000000000E+00 -0.74505805969E-08  0.93827000000E+00  0.93827000000E+00 0. -1.
     999902    2    1    2    0    0 -0.10434999266E-01 -0.47550601689E-02  0.20956567935E-01  0.10200411418E+01  0.10197613708E+01 0.  0.
     999903    2    3    3    0    0  0.10198100074E+00  0.24826144403E-01 -0.70017612915E-01  0.12774707238E+00  0.20009658297E-01 0.  0.
         14    1    1    2    0    0  0.10434999266E-01  0.47550601689E-02 -0.20956567935E-01  0.23888858208E-01  0.00000000000E+00 0. -1.
     999901    1    3    3    0    0 -0.11241600001E+00 -0.29581204572E-01  0.90974180850E-01  0.89229406941E+00  0.88000000000E+00 0.  1.
        -11    1    4    4    0    0  0.68202816040E-01  0.72175620549E-02 -0.48417614322E-01  0.83953819541E-01  0.51100000000E-03 0.  1.
         11    1    4    4    0    0  0.33778184704E-01  0.17608582348E-01 -0.21599998592E-01  0.43793252841E-01  0.51100000000E-03 0. -1.
</event>
<event>
 8    1  0.1128298E+005  0.1043930E+01  0.7957747E-01            NaN
         13   -1    0    0    0    0  0.00000000000E+00  0.00000000000E+00  0.74505805969E-08  0.10566000000E+00  0.10566000000E+00 0.  1.
     999900   -1    0    0    0    0 -0.00000000000E+00 -0.00000000000E+00 -0.74505805969E-08  0.93827000000E+00  0.93827000000E+00 0.  1.
     999902    2    1    2    0    0  0.13115398179E-01 -0.16882115465E-01 -0.11220381294E-01  0.10197863373E+01  0.10195004940E+01 0.  0.
     999903    2    3    3    0    0  0.63708074736E-01  0.11024743356E+00  0.72813977495E-02  0.12902045505E+00  0.19494708942E-01 0.  0.
         14    1    1    2    0    0 -0.13115398179E-01  0.16882115465E-01  0.11220381294E-01  0.24143662696E-01  0.00000000000E+00 0.  1.
     999901    1    3    3    0    0 -0.50592676556E-01 -0.12712954902E+00 -0.18501779043E-01  0.89076588225E+00  0.88000000000E+00 0. -1.
        -11    1    4    4    0    0  0.32878913576E-01  0.52207552591E-01  0.12985342884E-01  0.63051818025E-01  0.51100000000E-03 0.  1.
         11    1    4    4    0    0  0.30829161159E-01  0.58039880965E-01 -0.57039451340E-02  0.65968637028E-01  0.51100000000E-03 0. -1.
</event>
<event>
 8    1  0.1128298E+005  0.1043930E+01  0.7957747E-01            NaN
         13   -1    0    0    0    0  0.00000000000E+00  0.00000000000E+00  0.74505805969E-08  0.10566000000E+00  0.10566000000E+00 0. -1.
     999900   -1    0    0    0    0 -0.00000000000E+00 -0.00000000000E+00 -0.74505805969E-08  0.93827000000E+00  0.93827000000E+00 0.  1.
     999902    2    1    2    0    0  0.10848714771E-01 -0.21298343533E-01 -0.46884713678E-02  0.10195723356E+01  0.10192813408E+01 0.  0.
     999903    2    3    3    0    0  0.40383083163E-01 -0.10080136628E+00  0.72529552121E-01  0.13212902325E+00  0.20145322156E-01 0.  0.
         14    1    1    2    0    0 -0.10848714771E-01  0.21298343533E-01  0.46884713678E-02  0.24357664363E-01  0.00000000000E+00 0. -1.
     999901    1    3    3    0    0 -0.29534368392E-01  0.79503022749E-01 -0.77218023489E-01  0.88744331238E+00  0.88000000000E+00 0.  1.
        -11    1    4    4    0    0  0.88622696968E-02 -0.67380890525E-02  0.90040159389E-02  0.14327424482E-01  0.51100000000E-03 0. -1.
         11    1    4    4    0    0  0.31520813467E-01 -0.94063277230E-01  0.63525536183E-01  0.11780159877E+00  0.51100000000E-03 0.  1.
</event>
<event>
 8    1  0.1128298E+005  0.1043930E+01  0.7957747E-01            NaN
         13   -1    0    0    0    0  0.00000000000E+00  0.00000000000E+00  0.74505805969E-08  0.10566000000E+00  0.10566000000E+00 0.  1.
     999900   -1    0    0    0    0 -0.00000000000E+00 -0.00000000000E+00 -0.74505805969E-08  0.93827000000E+00  0.93827000000E+00 0. -1.
     999902    2    1    2    0    0  0.17239794007E-01  0.16561777737E-01 -0.79996952822E-02  0.10187209123E+01  0.10184089547E+01 0.  0.
     999903    2    3    3    0    0  0.10799669044E+00  0.59971743020E-01  0.39641655982E-01  0.13170854614E+00  0.22710903335E-01 0.  0.
         14    1    1    2    0    0 -0.17239794007E-01 -0.16561777737E-01  0.79996952822E-02  0.25209087723E-01  0.00000000000E+00 0. -1.
     999901    1    3    3    0    0 -0.90756896431E-01 -0.43409965282E-01 -0.47641351264E-01  0.88701236614E+00  0.88000000000E+00 0. -1.
        -11    1    4    4    0    0  0.61470262970E-01  0.44396181408E-01  0.30834418459E-01  0.81857416499E-01  0.51100000000E-03 0.  1.
         11    1    4    4    0    0  0.46526427467E-01  0.15575561612E-01  0.88072375230E-02  0.49851129638E-01  0.51100000000E-03 0. -1.
</event>
<event>
 8    1  0.1128298E+005  0.1043930E+01  0.7957747E-01            NaN
         13   -1    0    0    0    0  0.00000000000E+00  0.00000000000E+00  0.74505805969E-08  0.10566000000E+00  0.10566000000E+00 0.  1.
     999900   -1    0    0    0    0 -0.00000000000E+00 -0.00000000000E+00 -0.74505805969E-08  0.93827000000E+00  0.93827000000E+00 0. -1.
     999902    2    1    2    0    0 -0.15043523503E-01 -0.17321207586E-01 -0.10596280764E-02  0.10209636193E+01  0.10207052744E+01 0.  0.
     999903    2    3    3    0    0 -0.12476612710E+00  0.35841963278E-01 -0.16071906726E-01  0.13243070431E+00  0.20696677394E-01 0.  0.
         14    1    1    2    0    0  0.15043523503E-01  0.17321207586E-01  0.10596280764E-02  0.22966380718E-01  0.00000000000E+00 0.  1.
     999901    1    3    3    0    0  0.10972260360E+00 -0.53163170864E-01  0.15012278650E-01  0.88853291497E+00  0.88000000000E+00 0.  1.
        -11    1    4    4    0    0 -0.33536420604E-01  0.14753927414E-01  0.33712995844E-02  0.36796693642E-01  0.51100000000E-03 0.  1.
         11    1    4    4    0    0 -0.91229706497E-01  0.21088035865E-01 -0.19443206310E-01  0.95634010669E-01  0.51100000000E-03 0. -1.
</event>
<event>
 8    1  0.1128298E+005  0.1043930E+01  0.7957747E-01            NaN
         13   -1    0    0    0    0  0.00000000000E+00  0.00000000000E+00  0.74505805969E-08  0.10566000000E+00  0.10566000000E+00 0. -1.
     999900   -1    0    0    0    0 -0.00000000000E+00 -0.00000000000E+00 -0.74505805969E-08  0.93827000000E+00  0.93827000000E+00 0. -1.
     999902    2    1    2    0    0 -0.63701801497E-02  0.54801239959E-02 -0.22172770558E-01  0.10202183424E+01  0.10199427549E+01 0.  0.
     999903    2    3    3    0    0 -0.23574231998E-01  0.26679666775E-01  0.12116527186E+00  0.12820309897E+00  0.22078551750E-01 0.  0.
         14    1    1    2    0    0  0.63701801497E-02 -0.54801239959E-02  0.22172770558E-01  0.23711657647E-01  0.00000000000E+00 0. -1.
     999901    1    3    3    0    0  0.17204051848E-01 -0.21199542779E-01 -0.14333804242E+00  0.89201524338E+00  0.88000000000E+00 0. -1.
        -11    1    4    4    0    0  0.32593291887E-03  0.13582516415E-01  0.27905946866E-01  0.31041810127E-01  0.51100000000E-03 0. -1.
         11    1    4    4    0    0 -0.23900164917E-01  0.13097150360E-01  0.93259324997E-01  0.97161288848E-01  0.51100000000E-03 0.  1.
</event>
<event>
 8    1  0.1128298E+005  0.1043930E+01  0.7957747E-01            NaN
         13   -1    0    0    0    0  0.00000000000E+00  0.00000000000E+00  0.74505805969E-08  0.10566000000E+00  0.10566000000E+00 0. -1.
     999900   -1    0    0    0    0 -0.00000000000E+00 -0.00000000000E+00 -0.74505805969E-08  0.93827000000E+00  0.93827000000E+00 0.  1.
     999902    2    1    2    0    0  0.74734778812E-02 -0.20481059144E-01  0.12795330357E-01  0.10186506184E+01  0.10183368967E+01 0.  0.
     999903    2    3    3    0    0 -0.11474339264E+00  0.35391889558E-01 -0.36974655290E-01  0.12705889496E+00  0.18926321682E-01 0.  0.
         14    1    1    2    0    0 -0.74734778812E-02  0.20481059144E-01 -0.12795330357E-01  0.25279381604E-01  0.00000000000E+00 0.  1.
     999901    1    3    3    0    0  0.12221687052E+00 -0.55872948702E-01  0.49769985648E-01  0.89159172344E+00  0.88000000000E+00 0.  1.
        -11    1    4    4    0    0 -0.36330710509E-01  0.10805050808E-01 -0.26483666146E-02  0.37999271254E-01  0.51100000000E-03 0.  1.
         11    1    4    4    0    0 -0.78412682131E-01  0.24586838749E-01 -0.34326288676E-01  0.89059623702E-01  0.51100000000E-03 0. -1.
</event>
<event>
 8    1  0.1128298E+005  0.1043930E+01  0.7957747E-01            NaN
         13   -1    0    0    0    0  0.00000000000E+00  0.00000000000E+00  0.74505805969E-08  0.10566000000E+00  0.10566000000E+00 0. -1.
     999900   -1    0    0    0    0 -0.00000000000E+00 -0.00000000000E+00 -0.74505805969E-08  0.93827000000E+00  0.93827000000E+00 0.  1.
     999902    2    1    2    0    0 -0.22271566071E-01 -0.97356270586E-02  0.36995300634E-02  0.10193435889E+01  0.10190470355E+01 0.  0.
     999903    2    3    3    0    0  0.51524645339E-01  0.10710392848E+00  0.42270710819E-01  0.12772422023E+00  0.20015565631E-01 0.  0.
         14    1    1    2    0    0  0.22271566071E-01  0.97356270586E-02 -0.36995300634E-02  0.24586411129E-01  0.00000000000E+00 0.  1.
     999901    1    3    3    0    0 -0.73796211410E-01 -0.11683955553E+00 -0.38571180756E-01  0.89161936864E+00  0.88000000000E+00 0.  1.
        -11    1    4    4    0    0  0.36493827925E-01  0.84467248883E-01  0.40367356277E-01  0.10048034725E+00  0.51100000000E-03 0.  1.
         11    1    4    4    0    0  0.15030817414E-01  0.22636679592E-01  0.19033545419E-02  0.27243872974E-01  0.51100000000E-03 0. -1.
</event>
<event>
 8    1  0.1128298E+005  0.1043930E+01  0.7957747E-01            NaN
         13   -1    0    0    0    0  0.00000000000E+00  0.00000000000E+00  0.74505805969E-08  0.10566000000E+00  0.10566000000E+00 0. -1.
     999900   -1    0    0    0    0 -0.00000000000E+00 -0.00000000000E+00 -0.74505805969E-08  0.93827000000E+00  0.93827000000E+00 0. -1.
     999902    2    1    2    0    0 -0.42854375868E-02 -0.52911842331E-02  0.31083903511E-01  0.10121090845E+01  0.10116087328E+01 0.  0.
     999903    2    3    3    0    0  0.80111049182E-01 -0.60452705289E-01  0.72314188861E-01  0.12539295359E+00  0.20536336612E-01 0.  0.
         14    1    1    2    0    0  0.42854375868E-02  0.52911842331E-02 -0.31083903511E-01  0.31820915502E-01  0.00000000000E+00 0.  1.
     999901    1    3    3    0    0 -0.84396486769E-01  0.55161521056E-01 -0.41230285350E-01  0.88671613091E+00  0.88000000000E+00 0.  1.
        -11    1    4    4    0    0  0.29773726720E-01 -0.20597945862E-01  0.14535592754E-01  0.39016595882E-01  0.51100000000E-03 0.  1.
         11    1    4    4    0    0  0.50337322462E-01 -0.39854759427E-01  0.57778596107E-01  0.86376357707E-01  0.51100000000E-03 0. -1.
</event>
<event>
 8    1  0.1128298E+005  0.1043930E+01  0.7957747E-01            NaN
         13   -1    0    0    0    0  0.00000000000E+00  0.00000000000E+00  0.74505805969E-08  0.10566000000E+00  0.10566000000E+00 0. -1.
     999900   -1    0    0    0    0 -0.00000000000E+00 -0.00000000000E+00 -0.74505805969E-08  0.93827000000E+00  0.93827000000E+00 0.  1.
     999902    2    1    2    0    0 -0.14586286835E-01 -0.18717686295E-01 -0.42207228124E-03  0.10201962753E+01  0.10199201686E+01 0.  0.
     999903    2    3    3    0    0 -0.58195152337E-01 -0.11480957867E+00  0.29114199304E-01  0.13339991970E+00  0.19493251797E-01 0.  0.
         14    1    1    2    0    0  0.14586286835E-01  0.18717686295E-01  0.42207228124E-03  0.23733724715E-01  0.00000000000E+00 0. -1.
     999901    1    3    3    0    0  0.43608865502E-01  0.96091892377E-01 -0.29536271585E-01  0.88679635558E+00  0.88000000000E+00 0. -1.
        -11    1    4    4    0    0 -0.30342153577E-01 -0.80031657880E-01  0.17726647451E-01  0.87408281630E-01  0.51100000000E-03 0. -1.
         11    1    4    4    0    0 -0.27852998760E-01 -0.34777920793E-01  0.11387551853E-01  0.45991638074E-01  0.51100000000E-03 0.  1.
</event>
<event>
 7    1  0.1128298E+005  0.1043930E+01  0.7957747E-01            NaN
         13   -1    0    0    0    0  0.00000000000E+00  0.00000000000E+00  0.74505805969E-08  0.10566000000E+00  0.10566000000E+00 0.  1.
     999900   -1    0    0    0    0 -0.00000000000E+00 -0.00000000000E+00 -0.74505805969E-08  0.93827000000E+00  0.93827000000E+00 0. -1.
     999903    2    1    2    0    0 -0.50157127338E-01  0.10443613649E-01  0.91046816076E-01  0.10634468899E+00  0.19871176880E-01 0.  0.
         14    1    1    2    0    0  0.32660168239E-01  0.22392003676E-01  0.28408825383E-01  0.48735508386E-01  0.00000000000E+00 0.  1.
     999901    1    1    2    0    0  0.17496959100E-01 -0.32835617325E-01 -0.11945564146E+00  0.88884980262E+00  0.88000000000E+00 0. -1.
        -11    1    3    3    0    0 -0.16906548259E-01 -0.22285302305E-02  0.16475746381E-01  0.23717273470E-01  0.51100000000E-03 0. -1.
         11    1    3    3    0    0 -0.33250579079E-01  0.12672143880E-01  0.74571069696E-01  0.82627415524E-01  0.51100000000E-03 0.  1.
</event>
<event>
 8    1  0.1128298E+005  0.1043930E+01  0.7957747E-01            NaN
         13   -1    0    0    0    0  0.00000000000E+00  0.00000000000E+00  0.74505805969E-08  0.10566000000E+00  0.10566000000E+00 0.  1.
     999900   -1    0    0    0    0 -0.00000000000E+00 -0.00000000000E+00 -0.74505805969E-08  0.93827000000E+00  0.93827000000E+00 0. -1.
     999902    2    1    2    0    0  0.39819431003E-02 -0.75616671908E-03  0.23097565953E-01  0.10204795157E+01  0.10202100356E+01 0.  0.
     999903    2    3    3    0    0 -0.20598630945E-01 -0.59716331297E-01  0.11561590469E+00  0.13332668301E+00  0.20460282626E-01 0.  0.
         14    1    1    2    0    0 -0.39819431003E-02  0.75616671908E-03 -0.23097565953E-01  0.23450484258E-01  0.00000000000E+00 0. -1.
     999901    1    3    3    0    0  0.24580574046E-01  0.58960164578E-01 -0.92518338732E-01  0.88715283273E+00  0.88000000000E+00 0. -1.
        -11    1    4    4    0    0 -0.88389893973E-03 -0.32637441513E-01  0.51325278202E-01  0.60831974893E-01  0.51100000000E-03 0.  1.
         11    1    4    4    0    0 -0.19714732006E-01 -0.27078889784E-01  0.64290626483E-01  0.72494708114E-01  0.51100000000E-03 0. -1.
</event>
<event>
 8    1  0.1128298E+005  0.1043930E+01  0.7957747E-01            NaN
         13   -1    0    0    0    0  0.00000000000E+00  0.00000000000E+00  0.74505805969E-08  0.10566000000E+00  0.10566000000E+00 0.  1.
     999900   -1    0    0    0    0 -0.00000000000E+00 -0.00000000000E+00 -0.74505805969E-08  0.93827000000E+00  0.93827000000E+00 0. -1.
     999902    2    1    2    0    0 -0.13129454599E-01  0.11339275835E-02 -0.20416388897E-01  0.10196298497E+01  0.10193402440E+01 0.  0.
     999903    2    3    3    0    0  0.66202360107E-02  0.21879758442E-02  0.12560575350E+00  0.12737785200E+00  0.19992426205E-01 0.  0.
         14    1    1    2    0    0  0.13129454599E-01 -0.11339275835E-02  0.20416388897E-01  0.24300150317E-01  0.00000000000E+00 0.  1.
     999901    1    3    3    0    0 -0.19749690610E-01 -0.10540482608E-02 -0.14602214240E+00  0.89225199768E+00  0.88000000000E+00 0. -1.
        -11    1    4    4    0    0 -0.20370588076E-02  0.74668570295E-02  0.90547440013E-01  0.90879060165E-01  0.51100000000E-03 0. -1.
         11    1    4    4    0    0  0.86572948184E-02 -0.52788811853E-02  0.35058313485E-01  0.36498791837E-01  0.51100000000E-03 0.  1.
</event>
<event>
 8    1  0.1261936E+005  0.1043930E+01  0.7957747E-01            NaN
         13   -1    0    0    0    0  0.00000000000E+00  0.00000000000E+00  0.74505805969E-08  0.10566000000E+00  0.10566000000E+00 0.  1.
     999900   -1    0    0    0    0 -0.00000000000E+00 -0.00000000000E+00 -0.74505805969E-08  0.93827000000E+00  0.93827000000E+00 0.  1.
     999902    2    1    2    0    0 -0.32767501069E-02 -0.17182490973E-01 -0.17436609548E-01  0.10192316106E+01  0.10189323165E+01 0.  0.
     999903    2    3    3    0    0 -0.34043039300E-01 -0.11334533773E+00 -0.56420849247E-01  0.13260111901E+00  0.19840625533E-01 0.  0.
         14    1    1    2    0    0  0.32767501069E-02  0.17182490973E-01  0.17436609548E-01  0.24698389417E-01  0.00000000000E+00 0.  1.
     999901    1    3    3    0    0  0.30766289193E-01  0.96162846760E-01  0.38984239700E-01  0.88663049158E+00  0.88000000000E+00 0.  1.
        -11    1    4    4    0    0 -0.29317243151E-01 -0.65304941677E-01 -0.30561911336E-01  0.77836544752E-01  0.51100000000E-03 0.  1.
         11    1    4    4    0    0 -0.47257961494E-02 -0.48040396055E-01 -0.25858937911E-01  0.54764574255E-01  0.51100000000E-03 0. -1.
</event>
<event>
 8    1  0.1128298E+005  0.1043930E+01  0.7957747E-01            NaN
         13   -1    0    0    0    0  0.00000000000E+00  0.00000000000E+00  0.74505805969E-08  0.10566000000E+00  0.10566000000E+00 0.  1.
     999900   -1    0    0    0    0 -0.00000000000E+00 -0.00000000000E+00 -0.74505805969E-08  0.93827000000E+00  0.93827000000E+00 0. -1.
     999902    2    1    2    0    0 -0.11500421819E-01 -0.19818407500E-01 -0.68074779079E-02  0.10200266376E+01  0.10197465228E+01 0.  0.
     999903    2    3    3    0    0  0.28514656502E-02 -0.98829620887E-01 -0.86310862516E-01  0.13280088468E+00  0.20275235176E-01 0.  0.
         14    1    1    2    0    0  0.11500421819E-01  0.19818407500E-01  0.68074779079E-02  0.23903362385E-01  0.00000000000E+00 0.  1.
     999901    1    3    3    0    0 -0.14351887470E-01  0.79011213387E-01  0.79503384608E-01  0.88722575294E+00  0.88000000000E+00 0.  1.
        -11    1    4    4    0    0 -0.74453949279E-02 -0.60134741975E-01 -0.47014853575E-01  0.76696014732E-01  0.51100000000E-03 0.  1.
         11    1    4    4    0    0  0.10296860578E-01 -0.38694878912E-01 -0.39296008941E-01  0.56104869944E-01  0.51100000000E-03 0. -1.
</event>
<event>
 8    1  0.1128298E+005  0.1043930E+01  0.7957747E-01            NaN
         13   -1    0    0    0    0  0.00000000000E+00  0.00000000000E+00  0.74505805969E-08  0.10566000000E+00  0.10566000000E+00 0.  1.
     999900   -1    0    0    0    0 -0.00000000000E+00 -0.00000000000E+00 -0.74505805969E-08  0.93827000000E+00  0.93827000000E+00 0.  1.
     999902    2    1    2    0    0 -0.16783871987E-01 -0.13373644599E-01  0.90909306998E-02  0.10206233969E+01  0.10203572514E+01 0.  0.
     999903    2    3    3    0    0 -0.11617007101E+00  0.29787649486E-01  0.52581457721E-01  0.13291176587E+00  0.22758258940E-01 0.  0.
         14    1    1    2    0    0  0.16783871987E-01  0.13373644599E-01 -0.90909306998E-02  0.23306603136E-01  0.00000000000E+00 0. -1.
     999901    1    3    3    0    0  0.99386199024E-01 -0.43161294085E-01 -0.43490527021E-01  0.88771163100E+00  0.88000000000E+00 0.  1.
        -11    1    4    4    0    0 -0.68148872330E-01  0.62230909788E-02  0.26342084039E-01  0.73329135913E-01  0.51100000000E-03 0.  1.
         11    1    4    4    0    0 -0.48021198680E-01  0.23564558507E-01  0.26239373682E-01  0.59582629956E-01  0.51100000000E-03 0. -1.
</event>
<event>
 8    1  0.1128298E+005  0.1043930E+01  0.7957747E-01            NaN
         13   -1    0    0    0    0  0.00000000000E+00  0.00000000000E+00  0.74505805969E-08  0.10566000000E+00  0.10566000000E+00 0.  1.
     999900   -1    0    0    0    0 -0.00000000000E+00 -0.00000000000E+00 -0.74505805969E-08  0.93827000000E+00  0.93827000000E+00 0. -1.
     999902    2    1    2    0    0 -0.12998370831E-02  0.62953755820E-02  0.29648367247E-01  0.10135927785E+01  0.10131386744E+01 0.  0.
     999903    2    3    3    0    0 -0.13942207583E-01  0.11894082844E+00 -0.27634577070E-01  0.12447514660E+00  0.19725274361E-01 0.  0.
         14    1    1    2    0    0  0.12998370831E-02 -0.62953755820E-02 -0.29648367247E-01  0.30337221536E-01  0.00000000000E+00 0. -1.
     999901    1    3    3    0    0  0.12642370500E-01 -0.11264545286E+00  0.57282944317E-01  0.88911763186E+00  0.88000000000E+00 0.  1.
        -11    1    4    4    0    0 -0.12897435970E-02  0.81718304706E-01 -0.14392699595E-01  0.82987683937E-01  0.51100000000E-03 0.  1.
         11    1    4    4    0    0 -0.12652463986E-01  0.37222523735E-01 -0.13241877475E-01  0.41487462663E-01  0.51100000000E-03 0. -1.
</event>
<event>
 8    1  0.1128298E+005  0.1043930E+01  0.7957747E-01            NaN
         13   -1    0    0    0    0  0.00000000000E+00  0.00000000000E+00  0.74505805969E-08  0.10566000000E+00  0.10566000000E+00 0. -1.
     999900   -1    0    0    0    0 -0.00000000000E+00 -0.00000000000E+00 -0.74505805969E-08  0.93827000000E+00  0.93827000000E+00 0.  1.
     999902    2    1    2    0    0  0.12669943725E-01  0.41150112417E-02  0.18528469896E-01  0.10211097242E+01  0.10208546928E+01 0.  0.
     999903    2    3    3    0    0  0.28834747431E-01  0.12483958081E+00  0.27806703280E-01  0.13267187707E+00  0.20303955840E-01 0.  0.
         14    1    1    2    0    0 -0.12669943725E-01 -0.41150112417E-02 -0.18528469896E-01  0.22820275813E-01  0.00000000000E+00 0.  1.
     999901    1    3    3    0    0 -0.16164803706E-01 -0.12072456956E+00 -0.92782333846E-02  0.88843784712E+00  0.88000000000E+00 0.  1.
        -11    1    4    4    0    0  0.64548594058E-02  0.26336329170E-01  0.14589884510E-01  0.30795994791E-01  0.51100000000E-03 0. -1.
         11    1    4    4    0    0  0.22379888025E-01  0.98503251636E-01  0.13216818770E-01  0.10187588228E+00  0.51100000000E-03 0.  1.
</event>
<event>
 8    1  0.1128298E+005  0.1043930E+01  0.7957747E-01            NaN
         13   -1    0    0    0    0  0.00000000000E+00  0.00000000000E+00  0.74505805969E-08  0.10566000000E+00  0.10566000000E+00 0. -1.
     999900   -1    0    0    0    0 -0.00000000000E+00 -0.00000000000E+00 -0.74505805969E-08  0.93827000000E+00  0.93827000000E+00 0.  1.
     999902    2    1    2    0    0  0.10951265089E-01 -0.21763601216E-01 -0.11769212470E-02  0.10195379995E+01  0.10192461738E+01 0.  0.
     999903    2    3    3    0    0 -0.93890663257E-01  0.57992197996E-01 -0.61970121429E-01  0.12765873040E+00  0.16670447603E-01 0.  0.
         14    1    1    2    0    0 -0.10951265089E-01  0.21763601216E-01  0.11769212470E-02  0.24392000504E-01  0.00000000000E+00 0. -1.
     999901    1    3    3    0    0  0.10484192835E+00 -0.79755799212E-01  0.60793200182E-01  0.89187926909E+00  0.88000000000E+00 0. -1.
        -11    1    4    4    0    0 -0.23056410915E-01  0.22441392713E-01 -0.14713776233E-01  0.35383195492E-01  0.51100000000E-03 0. -1.
         11    1    4    4    0    0 -0.70834252342E-01  0.35550805283E-01 -0.47256345196E-01  0.92275534913E-01  0.51100000000E-03 0.  1.
</event>
<event>
 8    1  0.1128298E+005  0.1043930E+01  0.7957747E-01            NaN
         13   -1    0    0    0    0  0.00000000000E+00  0.00000000000E+00  0.74505805969E-08  0.10566000000E+00  0.10566000000E+00 0. -1.
     999900   -1    0    0    0    0 -0.00000000000E+00 -0.00000000000E+00 -0.74505805969E-08  0.93827000000E+00  0.93827000000E+00 0.  1.
     999902    2    1    2    0    0 -0.23649088337E-01 -0.62553169755E-02  0.10165023580E-02  0.10194465026E+01  0.10191524567E+01 0.  0.
     999903    2    3    3    0    0 -0.45687739981E-01 -0.11218843799E+00 -0.47613194028E-01  0.13148683250E+00  0.18658930084E-01 0.  0.
         14    1    1    2    0    0  0.23649088337E-01  0.62553169755E-02 -0.10165023580E-02  0.24483497436E-01  0.00000000000E+00 0.  1.
     999901    1    3    3    0    0  0.22038651644E-01  0.10593312101E+00  0.48629696386E-01  0.88795967007E+00  0.88000000000E+00 0. -1.
        -11    1    4    4    0    0 -0.30106672706E-01 -0.54048267920E-01 -0.18202148032E-01  0.64491908955E-01  0.51100000000E-03 0.  1.
         11    1    4    4    0    0 -0.15581067275E-01 -0.58140170068E-01 -0.29411045996E-01  0.66994923543E-01  0.51100000000E-03 0. -1.
</event>
<event>
 8    1  0.1128298E+005  0.1043930E+01  0.7957747E-01            NaN
         13   -1    0    0    0    0  0.00000000000E+00  0.00000000000E+00  0.74505805969E-08  0.10566000000E+00  0.10566000000E+00 0.  1.
     999900   -1    0    0    0    0 -0.00000000000E+00 -0.00000000000E+00 -0.74505805969E-08  0.93827000000E+00  0.93827000000E+00 0.  1.
     999902    2    1    2    0    0 -0.73082450595E-02  0.17330995796E-01  0.13995770806E-01  0.10204852679E+01  0.10202159216E+01 0.  0.
     999903    2    3    3    0    0  0.59975537220E-01  0.87762820406E-01  0.72756527858E-01  0.13316313035E+00  0.33756913793E-01 0.  0.
         14    1    1    2    0    0  0.73082450595E-02 -0.17330995796E-01 -0.13995770806E-01  0.23444732065E-01  0.00000000000E+00 0.  1.
     999901    1    3    3    0    0 -0.67283782279E-01 -0.70431824610E-01 -0.58760757053E-01  0.88732213758E+00  0.88000000000E+00 0. -1.
        -11    1    4    4    0    0  0.43442385648E-01  0.58675302153E-01  0.67230099036E-01  0.99248069457E-01  0.51100000000E-03 0.  1.
         11    1    4    4    0    0  0.16533151572E-01  0.29087518253E-01  0.55264288222E-02  0.33915060895E-01  0.51100000000E-03 0. -1.
</event>
<event>
 8    1  0.1128298E+005  0.1043930E+01  0.7957747E-01            NaN
         13   -1    0    0    0    0  0.00000000000E+00  0.00000000000E+00  0.74505805969E-08  0.10566000000E+00  0.10566000000E+00 0.  1.
     999900   -1    0    0    0    0 -0.00000000000E+00 -0.00000000000E+00 -0.74505805969E-08  0.93827000000E+00  0.93827000000E+00 0.  1.
     999902    2    1    2    0    0  0.19119560975E-01  0.15946069312E-01 -0.23280521489E-02  0.10189249092E+01  0.10186180423E+01 0.  0.
     999903    2    3    3    0    0  0.24053721459E-01 -0.12426613149E+00  0.37233830490E-02  0.12779056072E+00  0.17202060247E-01 0.  0.
         14    1    1    2    0    0 -0.19119560975E-01 -0.15946069312E-01  0.23280521489E-02  0.25005090785E-01  0.00000000000E+00 0.  1.
     999901    1    3    3    0    0 -0.49341604836E-02  0.14021220080E+00 -0.60514351979E-02  0.89113434849E+00  0.88000000000E+00 0. -1.
        -11    1    4    4    0    0  0.76124006411E-02 -0.41406640905E-01 -0.68419208305E-02  0.42655967416E-01  0.51100000000E-03 0. -1.
         11    1    4    4    0    0  0.16441320817E-01 -0.82859490586E-01  0.10565303879E-01  0.85134593307E-01  0.51100000000E-03 0.  1.
</event>
<event>
 7    1  0.1128298E+005  0.1043930E+01  0.7957747E-01            NaN
         13   -1    0    0    0    0  0.00000000000E+00  0.00000000000E+00  0.74505805969E-08  0.10566000000E+00  0.10566000000E+00 0. -1.
     999900   -1    0    0    0    0 -0.00000000000E+00 -0.00000000000E+00 -0.74505805969E-08  0.93827000000E+00  0.93827000000E+00 0.  1.
     999903    2    1    2    0    0 -0.10843039235E+00  0.42167614128E-01  0.21116526996E-01  0.11995394619E+00  0.20193658064E-01 0.  0.
         14    1    1    2    0    0  0.11957242416E-01 -0.33366243494E-01 -0.15390965171E-01  0.38641475903E-01  0.00000000000E+00 0. -1.
     999901    1    1    2    0    0  0.96473149939E-01 -0.88013706338E-02 -0.57255618257E-02  0.88533457791E+00  0.88000000000E+00 0. -1.
        -11    1    3    3    0    0 -0.25792762695E-01  0.94888138052E-02  0.13882011635E-01  0.30794083245E-01  0.51100000000E-03 0.  1.
         11    1    3    3    0    0 -0.82637629660E-01  0.32678800323E-01  0.72345153614E-02  0.89159862942E-01  0.51100000000E-03 0. -1.
</event>
<event>
 8    1  0.1128298E+005  0.1043930E+01  0.7957747E-01            NaN
         13   -1    0    0    0    0  0.00000000000E+00  0.00000000000E+00  0.74505805969E-08  0.10566000000E+00  0.10566000000E+00 0. -1.
     999900   -1    0    0    0    0 -0.00000000000E+00 -0.00000000000E+00 -0.74505805969E-08  0.93827000000E+00  0.93827000000E+00 0. -1.
     999902    2    1    2    0    0  0.14569063302E-01 -0.10045905454E-01 -0.13878231192E-01  0.10214403774E+01  0.10211927641E+01 0.  0.
     999903    2    3    3    0    0  0.67592070881E-01 -0.57250543859E-01  0.95545453929E-01  0.13182627004E+00  0.20072839554E-01 0.  0.
         14    1    1    2    0    0 -0.14569063302E-01  0.10045905454E-01  0.13878231192E-01  0.22489622561E-01  0.00000000000E+00 0. -1.
     999901    1    3    3    0    0 -0.53023007579E-01  0.47204638405E-01 -0.10942368512E+00  0.88961410740E+00  0.88000000000E+00 0. -1.
        -11    1    4    4    0    0  0.16962795556E-01 -0.70562016033E-02  0.28792543134E-01  0.34158426124E-01  0.51100000000E-03 0. -1.
         11    1    4    4    0    0  0.50629275325E-01 -0.50194342256E-01  0.66752910795E-01  0.97667843915E-01  0.51100000000E-03 0.  1.
</event>
<event>
 8    1  0.1128298E+005  0.1043930E+01  0.7957747E-01            NaN
         13   -1    0    0    0    0  0.00000000000E+00  0.00000000000E+00  0.74505805969E-08  0.10566000000E+00  0.10566000000E+00 0. -1.
     999900   -1    0    0    0    0 -0.00000000000E+00 -0.00000000000E+00 -0.74505805969E-08  0.93827000000E+00  0.93827000000E+00 0.  1.
     999902    2    1    2    0    0  0.18694075348E-02  0.10439317835E-01 -0.21736197415E-01  0.10197445432E+01  0.10194576976E+01 0.  0.
     999903    2    3    3    0    0  0.36348807130E-01  0.33933626676E-01 -0.12185648005E+00  0.13308514834E+00  0.19746599182E-01 0.  0.
         14    1    1    2    0    0 -0.18694075348E-02 -0.10439317835E-01  0.21736197415E-01  0.24185456776E-01  0.00000000000E+00 0.  1.
     999901    1    3    3    0    0 -0.34479399595E-01 -0.23494308840E-01  0.10012028263E+00  0.88665939489E+00  0.88000000000E+00 0. -1.
        -11    1    4    4    0    0  0.27688978768E-01  0.20480780426E-01 -0.59928665823E-01  0.69121979285E-01  0.51100000000E-03 0. -1.
         11    1    4    4    0    0  0.86598283620E-02  0.13452846250E-01 -0.61927814226E-01  0.63963169053E-01  0.51100000000E-03 0.  1.
</event>
<event>
 8    1  0.1128298E+005  0.1043930E+01  0.7957747E-01            NaN
         13   -1    0    0    0    0  0.00000000000E+00  0.00000000000E+00  0.74505805969E-08  0.10566000000E+00  0.10566000000E+00 0. -1.
     999900   -1    0    0    0    0 -0.00000000000E+00 -0.00000000000E+00 -0.74505805969E-08  0.93827000000E+00  0.93827000000E+00 0. -1.
     999902    2    1    2    0    0 -0.12061387009E-01  0.18332263150E-01 -0.86943140896E-02  0.10203261862E+01  0.10200531291E+01 0.  0.
     999903    2    3    3    0    0  0.60335332066E-01  0.94730203004E-01 -0.67899235683E-01  0.13207894984E+00  0.14845171866E-01 0.  0.
         14    1    1    2    0    0  0.12061387009E-01 -0.18332263150E-01  0.86943140896E-02  0.23603813807E-01  0.00000000000E+00 0.  1.
     999901    1    3    3    0    0 -0.72396719075E-01 -0.76397939855E-01  0.59204921594E-01  0.88824723635E+00  0.88000000000E+00 0.  1.
        -11    1    4    4    0    0  0.42950745277E-01  0.74576234562E-01 -0.57478731542E-01  0.10349128940E+00  0.51100000000E-03 0. -1.
         11    1    4    4    0    0  0.17384586789E-01  0.20153968442E-01 -0.10420504142E-01  0.28587660439E-01  0.51100000000E-03 0.  1.
</event>
<event>
 8    1  0.1128298E+005  0.1043930E+01  0.7957747E-01            NaN
         13   -1    0    0    0    0  0.00000000000E+00  0.00000000000E+00  0.74505805969E-08  0.10566000000E+00  0.10566000000E+00 0.  1.
     999900   -1    0    0    0    0 -0.00000000000E+00 -0.00000000000E+00 -0.74505805969E-08  0.93827000000E+00  0.93827000000E+00 0. -1.
     999902    2    1    2    0    0  0.12914883495E-02 -0.18539259968E-01  0.13788296970E-01  0.10207893597E+01  0.10205270342E+01 0.  0.
     999903    2    3    3    0    0  0.22088233850E-01 -0.48324725302E-01 -0.11741521991E+00  0.13032092034E+00  0.19340094648E-01 0.  0.
         14    1    1    2    0    0 -0.12914883495E-02  0.18539259968E-01 -0.13788296970E-01  0.23140640347E-01  0.00000000000E+00 0. -1.
     999901    1    3    3    0    0 -0.20796745501E-01  0.29785465334E-01  0.13120351688E+00  0.89046843931E+00  0.88000000000E+00 0.  1.
        -11    1    4    4    0    0  0.13777725489E-01 -0.45456865862E-01 -0.94380919793E-01  0.10566064317E+00  0.51100000000E-03 0.  1.
         11    1    4    4    0    0  0.83105083606E-02 -0.28678594404E-02 -0.23034300121E-01  0.24660277169E-01  0.51100000000E-03 0. -1.
</event>
<event>
 8    1  0.1128298E+005  0.1043930E+01  0.7957747E-01            NaN
         13   -1    0    0    0    0  0.00000000000E+00  0.00000000000E+00  0.74505805969E-08  0.10566000000E+00  0.10566000000E+00 0.  1.
     999900   -1    0    0    0    0 -0.00000000000E+00 -0.00000000000E+00 -0.74505805969E-08  0.93827000000E+00  0.93827000000E+00 0. -1.
     999902    2    1    2    0    0 -0.63192570650E-03  0.79975211377E-02 -0.22069957806E-01  0.10204471826E+01  0.10201769502E+01 0.  0.
     999903    2    3    3    0    0 -0.46061559182E-01 -0.91037386093E-01  0.75259097108E-01  0.12840194309E+00  0.20338495277E-01 0.  0.
         14    1    1    2    0    0  0.63192570650E-03 -0.79975211377E-02  0.22069957806E-01  0.23482817377E-01  0.00000000000E+00 0.  1.
     999901    1    3    3    0    0  0.45429633476E-01  0.99034907231E-01 -0.97329054913E-01  0.89204523954E+00  0.88000000000E+00 0. -1.
        -11    1    4    4    0    0 -0.66489757007E-03 -0.14337060511E-01  0.61708431756E-02  0.15631180997E-01  0.51100000000E-03 0. -1.
         11    1    4    4    0    0 -0.45396661612E-01 -0.76700325582E-01  0.69088253932E-01  0.11277076209E+00  0.51100000000E-03 0.  1.
</event>
<event>
 8    1  0.1128298E+005  0.1043930E+01  0.7957747E-01            NaN
         13   -1    0    0    0    0  0.00000000000E+00  0.00000000000E+00  0.74505805969E-08  0.10566000000E+00  0.10566000000E+00 0.  1.
     999900   -1    0    0    0    0 -0.00000000000E+00 -0.00000000000E+00 -0.74505805969E-08  0.93827000000E+00  0.93827000000E+00 0.  1.
     999902    2    1    2    0    0  0.50494083228E-02 -0.22207005703E-01  0.10100698537E-02  0.10211337751E+01  0.10208792871E+01 0.  0.
     999903    2    3    3    0    0  0.25746966230E-01  0.28507710891E-01  0.12418232048E+00  0.13086877262E+00  0.15158861379E-01 0.  0.
         14    1    1    2    0    0 -0.50494083228E-02  0.22207005703E-01 -0.10100698537E-02  0.22796224858E-01  0.00000000000E+00 0. -1.
     999901    1    3    3    0    0 -0.20697557907E-01 -0.50714716594E-01 -0.12317225063E+00  0.89026500252E+00  0.88000000000E+00 0.  1.
        -11    1    4    4    0    0  0.16711426665E-01  0.26189069285E-01  0.10550887340E+00  0.10998873860E+00  0.51100000000E-03 0.  1.
         11    1    4    4    0    0  0.90355395656E-02  0.23186416065E-02  0.18673447079E-01  0.20880034027E-01  0.51100000000E-03 0. -1.
</event>
<event>
 8    1  0.1128298E+005  0.1043930E+01  0.7957747E-01            NaN
         13   -1    0    0    0    0  0.00000000000E+00  0.00000000000E+00  0.74505805969E-08  0.10566000000E+00  0.10566000000E+00 0. -1.
     999900   -1    0    0    0    0 -0.00000000000E+00 -0.00000000000E+00 -0.74505805969E-08  0.93827000000E+00  0.93827000000E+00 0. -1.
     999902    2    1    2    0    0  0.12030838187E-01 -0.97275548105E-02 -0.17640657860E-01  0.10204660020E+01  0.10201962077E+01 0.  0.
     999903    2    3    3    0    0  0.38681401269E-01  0.10818414122E+00  0.55845284510E-01  0.12916717208E+00  0.19115525818E-01 0.  0.
         14    1    1    2    0    0 -0.12030838187E-01  0.97275548105E-02  0.17640657860E-01  0.23463997950E-01  0.00000000000E+00 0. -1.
     999901    1    3    3    0    0 -0.26650563082E-01 -0.11791169603E+00 -0.73485942370E-01  0.89129882997E+00  0.88000000000E+00 0. -1.
        -11    1    4    4    0    0  0.10606513474E-01  0.33263209244E-01  0.26918402356E-01  0.44088555473E-01  0.51100000000E-03 0. -1.
         11    1    4    4    0    0  0.28074887795E-01  0.74920931972E-01  0.28926882154E-01  0.85078616611E-01  0.51100000000E-03 0.  1.
</event>
<event>
 8    1  0.1128298E+005  0.1043930E+01  0.7957747E-01            NaN
         13   -1    0    0    0    0  0.00000000000E+00  0.00000000000E+00  0.74505805969E-08  0.10566000000E+00  0.10566000000E+00 0.  1.
     999900   -1    0    0    0    0 -0.00000000000E+00 -0.00000000000E+00 -0.74505805969E-08  0.93827000000E+00  0.93827000000E+00 0.  1.
     999902    2    1    2    0    0 -0.16964927013E-01 -0.55535353712E-02  0.15297321338E-01  0.10204213092E+01  0.10201504740E+01 0.  0.
     999903    2    3    3    0    0  0.73067334982E-01 -0.79467704406E-01 -0.67596859001E-01  0.12888299945E+00  0.19686053862E-01 0.  0.
         14    1    1    2    0    0  0.16964927013E-01  0.55535353712E-02 -0.15297321338E-01  0.23508690814E-01  0.00000000000E+00 0. -1.
     999901    1    3    3    0    0 -0.90032261996E-01  0.73914169035E-01  0.82894180338E-01  0.89153830973E+00  0.88000000000E+00 0. -1.
        -11    1    4    4    0    0  0.63998239533E-01 -0.59243083342E-01 -0.57919607638E-01  0.10469221393E+00  0.51100000000E-03 0. -1.
         11    1    4    4    0    0  0.90690954490E-02 -0.20224621064E-01 -0.96772513630E-02  0.24190785527E-01  0.51100000000E-03 0.  1.
</event>
<event>
 8    1  0.1128298E+005  0.1043930E+01  0.7957747E-01            NaN
         13   -1    0    0    0    0  0.00000000000E+00  0.00000000000E+00  0.74505805969E-08  0.10566000000E+00  0.10566000000E+00 0.  1.
     999900   -1    0    0    0    0 -0.00000000000E+00 -0.00000000000E+00 -0.74505805969E-08  0.93827000000E+00  0.93827000000E+00 0.  1.
     999902    2    1    2    0    0  0.16473190382E-01  0.15364357975E-01  0.76285410453E-02  0.10201471462E+01  0.10198698818E+01 0.  0.
     999903    2    3    3    0    0 -0.93484659947E-01 -0.80318475084E-01  0.15222462459E-01  0.12812494857E+00  0.31525227944E-01 0.  0.
         14    1    1    2    0    0 -0.16473190382E-01 -0.15364357975E-01 -0.76285410453E-02  0.23782853820E-01  0.00000000000E+00 0.  1.
     999901    1    3    3    0    0  0.10995785033E+00  0.95682833059E-01 -0.75939214136E-02  0.89202219761E+00  0.88000000000E+00 0.  1.
        -11    1    4    4    0    0 -0.33792783527E-01 -0.32108124953E-01 -0.93702060579E-02  0.47549403667E-01  0.51100000000E-03 0. -1.
         11    1    4    4    0    0 -0.59691876420E-01 -0.48210350131E-01  0.24592668517E-01  0.80575544901E-01  0.51100000000E-03 0.  1.
</event>
<event>
 8    1  0.1128298E+005  0.1043930E+01  0.7957747E-01            NaN
         13   -1    0    0    0    0  0.00000000000E+00  0.00000000000E+00  0.74505805969E-08  0.10566000000E+00  0.10566000000E+00 0. -1.
     999900   -1    0    0    0    0 -0.00000000000E+00 -0.00000000000E+00 -0.74505805969E-08  0.93827000000E+00  0.93827000000E+00 0.  1.
     999902    2    1    2    0    0 -0.14266119382E-01  0.35234428326E-02  0.14558785383E-01  0.10232443759E+01  0.10230352671E+01 0.  0.
     999903    2    3    3    0    0 -0.75066211224E-01 -0.46568643056E-01 -0.97125004091E-01  0.13269446881E+00  0.19260868313E-01 0.  0.
         14    1    1    2    0    0  0.14266119382E-01 -0.35234428326E-02 -0.14558785383E-01  0.20685624076E-01  0.00000000000E+00 0.  1.
     999901    1    3    3    0    0  0.60800091842E-01  0.50092085889E-01  0.11168378947E+00  0.89054990712E+00  0.88000000000E+00 0. -1.
        -11    1    4    4    0    0 -0.66493845096E-01 -0.45981075258E-01 -0.92750339202E-01  0.12303892579E+00  0.51100000000E-03 0. -1.
         11    1    4    4    0    0 -0.85723661282E-02 -0.58756779876E-03 -0.43746648899E-02  0.96555430118E-02  0.51100000000E-03 0.  1.
</event>
<event>
 8    1  0.1128298E+005  0.1043930E+01  0.7957747E-01            NaN
         13   -1    0    0    0    0  0.00000000000E+00  0.00000000000E+00  0.74505805969E-08  0.10566000000E+00  0.10566000000E+00 0. -1.
     999900   -1    0    0    0    0 -0.00000000000E+00 -0.00000000000E+00 -0.74505805969E-08  0.93827000000E+00  0.93827000000E+00 0. -1.
     999902    2    1    2    0    0 -0.72251224529E-02 -0.14062306256E-01 -0.18419236029E-01  0.10196561641E+01  0.10193671929E+01 0.  0.
     999903    2    3    3    0    0  0.36475638074E-01  0.12076058473E+00  0.88666702520E-02  0.12789863594E+00  0.19127264272E-01 0.  0.
         14    1    1    2    0    0  0.72251224529E-02  0.14062306256E-01  0.18419236029E-01  0.24273835865E-01  0.00000000000E+00 0. -1.
     999901    1    3    3    0    0 -0.43700760527E-01 -0.13482289098E+00 -0.27285906281E-01  0.89175752819E+00  0.88000000000E+00 0. -1.
        -11    1    4    4    0    0  0.22048490872E-01  0.43464435706E-01  0.70339527365E-02  0.49244601056E-01  0.51100000000E-03 0. -1.
         11    1    4    4    0    0  0.14427147202E-01  0.77296149020E-01  0.18327175156E-02  0.78654034889E-01  0.51100000000E-03 0.  1.
</event>
<event>
 8    1  0.1128298E+005  0.1043930E+01  0.7957747E-01            NaN
         13   -1    0    0    0    0  0.00000000000E+00  0.00000000000E+00  0.74505805969E-08  0.10566000000E+00  0.10566000000E+00 0. -1.
     999900   -1    0    0    0    0 -0.00000000000E+00 -0.00000000000E+00 -0.74505805969E-08  0.93827000000E+00  0.93827000000E+00 0. -1.
     999902    2    1    2    0    0  0.16875130177E-01 -0.15777441204E-01  0.60143004375E-02  0.10200580608E+01  0.10197786907E+01 0.  0.
     999903    2    3    3    0    0  0.73089601610E-02  0.75733849042E-01  0.10328545096E+00  0.12993025846E+00  0.20614337065E-01 0.  0.
         14    1    1    2    0    0 -0.16875130177E-01  0.15777441204E-01 -0.60143004375E-02  0.23871939159E-01  0.00000000000E+00 0.  1.
     999901    1    3    3    0    0  0.95661700164E-02 -0.91511290246E-01 -0.97271150527E-01  0.89012780238E+00  0.88000000000E+00 0. -1.
        -11    1    4    4    0    0 -0.55175784226E-02  0.47336413206E-01  0.61718708415E-01  0.77978457129E-01  0.51100000000E-03 0.  1.
         11    1    4    4    0    0  0.12826538584E-01  0.28397435837E-01  0.41566742550E-01  0.51951801329E-01  0.51100000000E-03 0. -1.
</event>
<event>
 8    1  0.1128298E+005  0.1043930E+01  0.7957747E-01            NaN
         13   -1    0    0    0    0  0.00000000000E+00  0.00000000000E+00  0.74505805969E-08  0.10566000000E+00  0.10566000000E+00 0. -1.
     999900   -1    0    0    0    0 -0.00000000000E+00 -0.00000000000E+00 -0.74505805969E-08  0.93827000000E+00  0.93827000000E+00 0. -1.
     999902    2    1    2    0    0  0.35396133477E-02 -0.68230740790E-02  0.22503587307E-01  0.10201498687E+01  0.10198726685E+01 0.  0.
     999903    2    3    3    0    0  0.11031979848E+00  0.63262091358E-01  0.24057840807E-01  0.13092753765E+00  0.19765886516E-01 0.  0.
         14    1    1    2    0    0 -0.35396133477E-02  0.68230740790E-02 -0.22503587307E-01  0.23780131291E-01  0.00000000000E+00 0.  1.
     999901    1    3    3    0    0 -0.10678018514E+00 -0.70085165437E-01 -0.15542535007E-02  0.88922233106E+00  0.88000000000E+00 0.  1.
        -11    1    4    4    0    0  0.20700290329E-01  0.10655830915E-01 -0.31638527846E-02  0.23501485860E-01  0.51100000000E-03 0. -1.
         11    1    4    4    0    0  0.89619508155E-01  0.52606260444E-01  0.27221693592E-01  0.10742605179E+00  0.51100000000E-03 0.  1.
</event>
<event>
 8    1  0.1128298E+005  0.1043930E+01  0.7957747E-01            NaN
         13   -1    0    0    0    0  0.00000000000E+00  0.00000000000E+00  0.74505805969E-08  0.10566000000E+00  0.10566000000E+00 0. -1.
     999900   -1    0    0    0    0 -0.00000000000E+00 -0.00000000000E+00 -0.74505805969E-08  0.93827000000E+00  0.93827000000E+00 0.  1.
     999902    2    1    2    0    0  0.13364760374E-01  0.95031565382E-02 -0.19459212067E-01  0.10184822547E+01  0.10181642871E+01 0.  0.
     999903    2    3    3    0    0  0.34797405652E-01 -0.32739425567E-02  0.11951191638E+00  0.12722719188E+00  0.26116700712E-01 0.  0.
         14    1    1    2    0    0 -0.13364760374E-01 -0.95031565382E-02  0.19459212067E-01  0.25447745250E-01  0.00000000000E+00 0.  1.
     999901    1    3    3    0    0 -0.21432645278E-01  0.12777099095E-01 -0.13897112845E+00  0.89125506287E+00  0.88000000000E+00 0.  1.
        -11    1    4    4    0    0  0.66667767990E-02 -0.69504890106E-02  0.65591113370E-01  0.66296383645E-01  0.51100000000E-03 0.  1.
         11    1    4    4    0    0  0.28130628854E-01  0.36765464540E-02  0.53920803015E-01  0.60930808236E-01  0.51100000000E-03 0. -1.
</event>
<event>
 8    1  0.1128298E+005  0.1043930E+01  0.7957747E-01            NaN
         13   -1    0    0    0    0  0.00000000000E+00  0.00000000000E+00  0.74505805969E-08  0.10566000000E+00  0.10566000000E+00 0. -1.
     999900   -1    0    0    0    0 -0.00000000000E+00 -0.00000000000E+00 -0.74505805969E-08  0.93827000000E+00  0.93827000000E+00 0. -1.
     999902    2    1    2    0    0  0.20977636205E-01 -0.78140516218E-02 -0.61574409760E-02  0.10207128791E+01  0.10204487968E+01 0.  0.
     999903    2    3    3    0    0 -0.35006387037E-01 -0.76844307148E-01  0.96839269945E-01  0.13025922534E+00  0.21427246860E-01 0.  0.
         14    1    1    2    0    0 -0.20977636205E-01  0.78140516218E-02  0.61574409760E-02  0.23217120900E-01  0.00000000000E+00 0. -1.
     999901    1    3    3    0    0  0.55984023242E-01  0.69030255527E-01 -0.10299671092E+00  0.89045365376E+00  0.88000000000E+00 0. -1.
        -11    1    4    4    0    0 -0.30263410579E-02 -0.25986549944E-01  0.38228242672E-01  0.46326225585E-01  0.51100000000E-03 0. -1.
         11    1    4    4    0    0 -0.31980045979E-01 -0.50857757204E-01  0.58611027273E-01  0.83932999754E-01  0.51100000000E-03 0.  1.
</event>
<event>
 8    1  0.1128298E+005  0.1043930E+01  0.7957747E-01            NaN
         13   -1    0    0    0    0  0.00000000000E+00  0.00000000000E+00  0.74505805969E-08  0.10566000000E+00  0.10566000000E+00 0.  1.
     999900   -1    0    0    0    0 -0.00000000000E+00 -0.00000000000E+00 -0.74505805969E-08  0.93827000000E+00  0.93827000000E+00 0.  1.
     999902    2    1    2    0    0 -0.39695530778E-02  0.23787002380E-01  0.44469598123E-02  0.10194074739E+01  0.10191124784E+01 0.  0.
     999903    2    3    3    0    0  0.14304056454E-01  0.83877992598E-01  0.99092348010E-01  0.13210673493E+00  0.19818483927E-01 0.  0.
         14    1    1    2    0    0  0.39695530778E-02 -0.23787002380E-01 -0.44469598123E-02  0.24522526082E-01  0.00000000000E+00 0.  1.
     999901    1    3    3    0    0 -0.18273609532E-01 -0.60090990218E-01 -0.94645388198E-01  0.88730073899E+00  0.88000000000E+00 0.  1.
        -11    1    4    4    0    0  0.45674717138E-02  0.11898890589E-01  0.26522245069E-01  0.29430188576E-01  0.51100000000E-03 0. -1.
         11    1    4    4    0    0  0.97365847400E-02  0.71979102009E-01  0.72570102941E-01  0.10267654635E+00  0.51100000000E-03 0.  1.
</event>
<event>
 8    1  0.1291476E+005  0.1043930E+01  0.7957747E-01            NaN
         13   -1    0    0    0    0  0.00000000000E+00  0.00000000000E+00  0.74505805969E-08  0.10566000000E+00  0.10566000000E+00 0. -1.
     999900   -1    0    0    0    0 -0.00000000000E+00 -0.00000000000E+00 -0.74505805969E-08  0.93827000000E+00  0.93827000000E+00 0.  1.
     999902    2    1    2    0    0 -0.17539313125E-01  0.15333879383E-01  0.50444600464E-02  0.10200930132E+01  0.10198144702E+01 0.  0.
     999903    2    3    3    0    0  0.80018358513E-01  0.41038609481E-01 -0.90702672558E-01  0.12916891665E+00  0.19249131182E-01 0.  0.
         14    1    1    2    0    0  0.17539313125E-01 -0.15333879383E-01 -0.50444600464E-02  0.23836986785E-01  0.00000000000E+00 0. -1.
     999901    1    3    3    0    0 -0.97557671638E-01 -0.25704730098E-01  0.95747132604E-01  0.89092409657E+00  0.88000000000E+00 0.  1.
        -11    1    4    4    0    0  0.57777753901E-01  0.19460829756E-01 -0.60708372925E-01  0.86039295701E-01  0.51100000000E-03 0. -1.
         11    1    4    4    0    0  0.22240604612E-01  0.21577779726E-01 -0.29994299632E-01  0.43129620945E-01  0.51100000000E-03 0.  1.
</event>
<event>
 8    1  0.1128298E+005  0.1043930E+01  0.7957747E-01            NaN
         13   -1    0    0    0    0  0.00000000000E+00  0.00000000000E+00  0.74505805969E-08  0.10566000000E+00  0.10566000000E+00 0. -1.
     999900   -1    0    0    0    0 -0.00000000000E+00 -0.00000000000E+00 -0.74505805969E-08  0.93827000000E+00  0.93827000000E+00 0. -1.
     999902    2    1    2    0    0 -0.21362261863E-01 -0.43832108662E-02 -0.94293882858E-02  0.10201713777E+01  0.10198946846E+01 0.  0.
     999903    2    3    3    0    0 -0.65661331040E-01 -0.72852689952E-02  0.11113447052E+00  0.13084215098E+00  0.20107520899E-01 0.  0.
         14    1    1    2    0    0  0.21362261863E-01  0.43832108662E-02  0.94293882858E-02  0.23758622285E-01  0.00000000000E+00 0. -1.
     999901    1    3    3    0    0  0.44299069177E-01  0.29020581291E-02 -0.12056385881E+00  0.88932922673E+00  0.88000000000E+00 0. -1.
        -11    1    4    4    0    0 -0.22309401829E-01 -0.12141575151E-01  0.39182014823E-01  0.46697094810E-01  0.51100000000E-03 0.  1.
         11    1    4    4    0    0 -0.43351929212E-01  0.48563061554E-02  0.71952455700E-01  0.84145056172E-01  0.51100000000E-03 0. -1.
</event>
<event>
 8    1  0.1128298E+005  0.1043930E+01  0.7957747E-01            NaN
         13   -1    0    0    0    0  0.00000000000E+00  0.00000000000E+00  0.74505805969E-08  0.10566000000E+00  0.10566000000E+00 0.  1.
     999900   -1    0    0    0    0 -0.00000000000E+00 -0.00000000000E+00 -0.74505805969E-08  0.93827000000E+00  0.93827000000E+00 0.  1.
     999902    2    1    2    0    0  0.24953490159E-01 -0.87717912532E-02 -0.79893746466E-02  0.10162993811E+01  0.10159237082E+01 0.  0.
     999903    2    3    3    0    0  0.98544473446E-01  0.71662929495E-02 -0.81167014210E-01  0.13005752796E+00  0.23759364078E-01 0.  0.
         14    1    1    2    0    0 -0.24953490159E-01  0.87717912532E-02  0.79893746466E-02  0.27630618888E-01  0.00000000000E+00 0.  1.
     999901    1    3    3    0    0 -0.73590983288E-01 -0.15938084203E-01  0.73177639564E-01  0.88624185315E+00  0.88000000000E+00 0. -1.
        -11    1    4    4    0    0  0.16129234214E-01 -0.27951784360E-02 -0.43320142939E-02  0.16940858528E-01  0.51100000000E-03 0.  1.
         11    1    4    4    0    0  0.82415239232E-01  0.99614713855E-02 -0.76834999917E-01  0.11311666943E+00  0.51100000000E-03 0. -1.
</event>
<event>
 8    1  0.1128298E+005  0.1043930E+01  0.7957747E-01            NaN
         13   -1    0    0    0    0  0.00000000000E+00  0.00000000000E+00  0.74505805969E-08  0.10566000000E+00  0.10566000000E+00 0. -1.
     999900   -1    0    0    0    0 -0.00000000000E+00 -0.00000000000E+00 -0.74505805969E-08  0.93827000000E+00  0.93827000000E+00 0. -1.
     999902    2    1    2    0    0 -0.37796493957E-02 -0.43691163927E-02 -0.23735016386E-01  0.10195020257E+01  0.10192093281E+01 0.  0.
     999903    2    3    3    0    0 -0.71050345019E-01 -0.98922780408E-01 -0.45467807865E-01  0.13161799264E+00  0.20545228711E-01 0.  0.
         14    1    1    2    0    0  0.37796493957E-02  0.43691163927E-02  0.23735016386E-01  0.24427974342E-01  0.00000000000E+00 0. -1.
     999901    1    3    3    0    0  0.67270695623E-01  0.94553664015E-01  0.21732791479E-01  0.88788403302E+00  0.88000000000E+00 0. -1.
        -11    1    4    4    0    0 -0.12906672574E-01 -0.33414594327E-01 -0.10817870033E-01  0.37421982097E-01  0.51100000000E-03 0. -1.
         11    1    4    4    0    0 -0.58143672445E-01 -0.65508186081E-01 -0.34649937832E-01  0.94196010540E-01  0.51100000000E-03 0.  1.
</event>
<event>
 8    1  0.1128298E+005  0.1043930E+01  0.7957747E-01            NaN
         13   -1    0    0    0    0  0.00000000000E+00  0.00000000000E+00  0.74505805969E-08  0.10566000000E+00  0.10566000000E+00 0. -1.
     999900   -1    0    0    0    0 -0.00000000000E+00 -0.00000000000E+00 -0.74505805969E-08  0.93827000000E+00  0.93827000000E+00 0.  1.
     999902    2    1    2    0    0 -0.46385104041E-02 -0.21752266549E-01 -0.58257620295E-02  0.10209383410E+01  0.10206794207E+01 0.  0.
     999903    2    3    3    0    0 -0.82227564748E-01  0.90050979004E-01 -0.39735265377E-01  0.12983235324E+00  0.20174176773E-01 0.  0.
         14    1    1    2    0    0  0.46385104041E-02  0.21752266549E-01  0.58257620295E-02  0.22991658966E-01  0.00000000000E+00 0. -1.
     999901    1    3    3    0    0  0.77589054344E-01 -0.11180324555E+00  0.33909503347E-01  0.89110598780E+00  0.88000000000E+00 0. -1.
        -11    1    4    4    0    0 -0.45396425246E-01  0.64074756792E-01 -0.25544503289E-01  0.82578403063E-01  0.51100000000E-03 0.  1.
         11    1    4    4    0    0 -0.36831139503E-01  0.25976222211E-01 -0.14190762087E-01  0.47253950174E-01  0.51100000000E-03 0. -1.
</event>
<event>
 8    1  0.1128298E+005  0.1043930E+01  0.7957747E-01            NaN
         13   -1    0    0    0    0  0.00000000000E+00  0.00000000000E+00  0.74505805969E-08  0.10566000000E+00  0.10566000000E+00 0.  1.
     999900   -1    0    0    0    0 -0.00000000000E+00 -0.00000000000E+00 -0.74505805969E-08  0.93827000000E+00  0.93827000000E+00 0.  1.
     999902    2    1    2    0    0  0.51325072084E-02  0.41482025636E-02  0.21897984183E-01  0.10210592342E+01  0.10208030603E+01 0.  0.
     999903    2    3    3    0    0 -0.51984923163E-03 -0.12451383377E+00 -0.29569446937E-01  0.13019742387E+00  0.23938503414E-01 0.  0.
         14    1    1    2    0    0 -0.51325072084E-02 -0.41482025636E-02 -0.21897984183E-01  0.22870765750E-01  0.00000000000E+00 0. -1.
     999901    1    3    3    0    0  0.56523564400E-02  0.12866203634E+00  0.51467431120E-01  0.89086181038E+00  0.88000000000E+00 0. -1.
        -11    1    4    4    0    0 -0.63977869692E-02 -0.37721404793E-01  0.16338048510E-03  0.38263871627E-01  0.51100000000E-03 0. -1.
         11    1    4    4    0    0  0.58779377376E-02 -0.86792428981E-01 -0.29732827422E-01  0.91933552243E-01  0.51100000000E-03 0.  1.
</event>
<event>
 8    1  0.1128298E+005  0.1043930E+01  0.7957747E-01            NaN
         13   -1    0    0    0    0  0.00000000000E+00  0.00000000000E+00  0.74505805969E-08  0.10566000000E+00  0.10566000000E+00 0. -1.
     999900   -1    0    0    0    0 -0.00000000000E+00 -0.00000000000E+00 -0.74505805969E-08  0.93827000000E+00  0.93827000000E+00 0.  1.
     999902    2    1    2    0    0 -0.19771631314E-01  0.83440549689E-02  0.69027003304E-02  0.10213869760E+01  0.10211381723E+01 0.  0.
     999903    2    3    3    0    0  0.11412739400E+00 -0.51288971514E-01 -0.18014714053E-01  0.12891517010E+00  0.25277865831E-01 0.  0.
         14    1    1    2    0    0  0.19771631314E-01 -0.83440549689E-02 -0.69027003304E-02  0.22543023976E-01  0.00000000000E+00 0. -1.
     999901    1    3    3    0    0 -0.13389902531E+00  0.59633026483E-01  0.24917414383E-01  0.89247180592E+00  0.88000000000E+00 0.  1.
        -11    1    4    4    0    0  0.96982777175E-01 -0.45701805382E-01 -0.62831917361E-02  0.10739671179E+00  0.51100000000E-03 0.  1.
         11    1    4    4    0    0  0.17144616821E-01 -0.55871661315E-02 -0.11731522316E-01  0.21518458313E-01  0.51100000000E-03 0. -1.
</event>
<event>
 8    1  0.1128298E+005  0.1043930E+01  0.7957747E-01            NaN
         13   -1    0    0    0    0  0.00000000000E+00  0.00000000000E+00  0.74505805969E-08  0.10566000000E+00  0.10566000000E+00 0.  1.
     999900   -1    0    0    0    0 -0.00000000000E+00 -0.00000000000E+00 -0.74505805969E-08  0.93827000000E+00  0.93827000000E+00 0.  1.
     999902    2    1    2    0    0 -0.11970148691E-01 -0.17515236382E-01 -0.10188606889E-01  0.10203954366E+01  0.10201239980E+01 0.  0.
     999903    2    3    3    0    0 -0.10238849511E+00  0.33541366592E-01 -0.73350452731E-01  0.13204208748E+00  0.21128103231E-01 0.  0.
         14    1    1    2    0    0  0.11970148691E-01  0.17515236382E-01  0.10188606889E-01  0.23534563424E-01  0.00000000000E+00 0.  1.
     999901    1    3    3    0    0  0.90418346423E-01 -0.51056602974E-01  0.63161845842E-01  0.88835334909E+00  0.88000000000E+00 0. -1.
        -11    1    4    4    0    0 -0.58102682552E-01  0.19249950461E-01 -0.28911993140E-01  0.67695249323E-01  0.51100000000E-03 0. -1.
         11    1    4    4    0    0 -0.44285812562E-01  0.14291416131E-01 -0.44438459591E-01  0.64346838159E-01  0.51100000000E-03 0.  1.
</event>
<event>
 8    1  0.1128298E+005  0.1043930E+01  0.7957747E-01            NaN
         13   -1    0    0    0    0  0.00000000000E+00  0.00000000000E+00  0.74505805969E-08  0.10566000000E+00  0.10566000000E+00 0.  1.
     999900   -1    0    0    0    0 -0.00000000000E+00 -0.00000000000E+00 -0.74505805969E-08  0.93827000000E+00  0.93827000000E+00 0.  1.
     999902    2    1    2    0    0 -0.18348236972E-01 -0.12387479302E-01  0.11280587946E-02  0.10217629082E+01  0.10215224229E+01 0.  0.
     999903    2    3    3    0    0  0.70922207383E-01 -0.14894484314E-01 -0.10646350095E+00  0.13072337985E+00  0.22412492977E-01 0.  0.
         14    1    1    2    0    0  0.18348236972E-01  0.12387479302E-01 -0.11280587946E-02  0.22167091827E-01  0.00000000000E+00 0.  1.
     999901    1    3    3    0    0 -0.89270444355E-01  0.25070050126E-02  0.10759155974E+00  0.89103952832E+00  0.88000000000E+00 0. -1.
        -11    1    4    4    0    0  0.37009685079E-01 -0.85901685563E-02 -0.74800534188E-01  0.83898085921E-01  0.51100000000E-03 0. -1.
         11    1    4    4    0    0  0.33912522304E-01 -0.63043157579E-02 -0.31662966762E-01  0.46825293927E-01  0.51100000000E-03 0.  1.
</event>
<event>
 8    1  0.1128298E+005  0.1043930E+01  0.7957747E-01            NaN
         13   -1    0    0    0    0  0.00000000000E+00  0.00000000000E+00  0.74505805969E-08  0.10566000000E+00  0.10566000000E+00 0. -1.
     999900   -1    0    0    0    0 -0.00000000000E+00 -0.00000000000E+00 -0.74505805969E-08  0.93827000000E+00  0.93827000000E+00 0.  1.
     999902    2    1    2    0    0 -0.13602227683E-01  0.10020370895E-01  0.15519732955E-01  0.10209889769E+01  0.10207312087E+01 0.  0.
     999903    2    3    3    0    0 -0.12435608609E+00  0.17941834649E-01 -0.37140606462E-01  0.13244956971E+00  0.19419533769E-01 0.  0.
         14    1    1    2    0    0  0.13602227683E-01 -0.10020370895E-01 -0.15519732955E-01  0.22941023120E-01  0.00000000000E+00 0.  1.
     999901    1    3    3    0    0  0.11075385840E+00 -0.79214637540E-02  0.52660339416E-01  0.88853940717E+00  0.88000000000E+00 0. -1.
        -11    1    4    4    0    0 -0.36175990943E-01  0.21294659256E-02 -0.19450203686E-01  0.41131599656E-01  0.51100000000E-03 0. -1.
         11    1    4    4    0    0 -0.88180095143E-01  0.15812368723E-01 -0.17690402776E-01  0.91317970058E-01  0.51100000000E-03 0.  1.
</event>
<event>
 8    1  0.1128298E+005  0.1043930E+01  0.7957747E-01            NaN
         13   -1    0    0    0    0  0.00000000000E+00  0.00000000000E+00  0.74505805969E-08  0.10566000000E+00  0.10566000000E+00 0.  1.
     999900   -1    0    0    0    0 -0.00000000000E+00 -0.00000000000E+00 -0.74505805969E-08  0.93827000000E+00  0.93827000000E+00 0. -1.
     999902    2    1    2    0    0 -0.12822469479E-01 -0.46503466529E-02  0.19783353918E-01  0.10199003820E+01  0.10196172648E+01 0.  0.
     999903    2    3    3    0    0 -0.37139819319E-02 -0.55257114236E-01 -0.11394434336E+00  0.12831353461E+00  0.20344715439E-01 0.  0.
         14    1    1    2    0    0  0.12822469479E-01  0.46503466529E-02 -0.19783353918E-01  0.24029617970E-01  0.00000000000E+00 0. -1.
     999901    1    3    3    0    0 -0.91084875470E-02  0.50606767583E-01  0.13372769727E+00  0.89158684742E+00  0.88000000000E+00 0.  1.
        -11    1    4    4    0    0  0.20132281701E-02 -0.12936739339E-01 -0.11931308760E-01  0.17720879271E-01  0.51100000000E-03 0. -1.
         11    1    4    4    0    0 -0.57272101020E-02 -0.42320374897E-01 -0.10201303460E+00  0.11059265534E+00  0.51100000000E-03 0.  1.
</event>
<event>
 8    1  0.1128298E+005  0.1043930E+01  0.7957747E-01            NaN
         13   -1    0    0    0    0  0.00000000000E+00  0.00000000000E+00  0.74505805969E-08  0.10566000000E+00  0.10566000000E+00 0.  1.
     999900   -1    0    0    0    0 -0.00000000000E+00 -0.00000000000E+00 -0.74505805969E-08  0.93827000000E+00  0.93827000000E+00 0.  1.
     999902    2    1    2    0    0  0.55160241723E-02 -0.21431142257E-01 -0.78806708162E-02  0.10204390368E+01  0.10201686147E+01 0.  0.
     999903    2    3    3    0    0  0.78968500669E-01  0.93443900805E-01 -0.36839976495E-01  0.12946755394E+00  0.20901601851E-01 0.  0.
         14    1    1    2    0    0 -0.55160241723E-02  0.21431142257E-01  0.78806708162E-02  0.23490963233E-01  0.00000000000E+00 0.  1.
     999901    1    3    3    0    0 -0.73452476497E-01 -0.11487504306E+00  0.28959305679E-01  0.89097148283E+00  0.88000000000E+00 0. -1.
        -11    1    4    4    0    0  0.22597105794E-01  0.30697482511E-01 -0.21393165729E-01  0.43713765380E-01  0.51100000000E-03 0. -1.
         11    1    4    4    0    0  0.56371394875E-01  0.62746418294E-01 -0.15446810766E-01  0.85753788562E-01  0.51100000000E-03 0.  1.
</event>
<event>
 8    1  0.1128298E+005  0.1043930E+01  0.7957747E-01            NaN
         13   -1    0    0    0    0  0.00000000000E+00  0.00000000000E+00  0.74505805969E-08  0.10566000000E+00  0.10566000000E+00 0. -1.
     999900   -1    0    0    0    0 -0.00000000000E+00 -0.00000000000E+00 -0.74505805969E-08  0.93827000000E+00  0.93827000000E+00 0.  1.
     999902    2    1    2    0    0  0.10608853753E-01 -0.20782971294E-01  0.32962719608E-02  0.10203642392E+01  0.10200920721E+01 0.  0.
     999903    2    3    3    0    0 -0.10874713243E+00  0.44633279681E-01 -0.47237155383E-01  0.12846807673E+00  0.21322040769E-01 0.  0.
         14    1    1    2    0    0 -0.10608853753E-01  0.20782971294E-01 -0.32962719608E-02  0.23565760810E-01  0.00000000000E+00 0.  1.
     999901    1    3    3    0    0  0.11935598619E+00 -0.65416250974E-01  0.50533427344E-01  0.89189616246E+00  0.88000000000E+00 0. -1.
        -11    1    4    4    0    0 -0.46125827018E-01  0.27635102299E-01 -0.14019714823E-01  0.55570714607E-01  0.51100000000E-03 0.  1.
         11    1    4    4    0    0 -0.62621305416E-01  0.16998177381E-01 -0.33217440560E-01  0.72897362124E-01  0.51100000000E-03 0. -1.
</event>
<event>
 8    1  0.1128298E+005  0.1043930E+01  0.7957747E-01            NaN
         13   -1    0    0    0    0  0.00000000000E+00  0.00000000000E+00  0.74505805969E-08  0.10566000000E+00  0.10566000000E+00 0.  1.
     999900   -1    0    0    0    0 -0.00000000000E+00 -0.00000000000E+00 -0.74505805969E-08  0.93827000000E+00  0.93827000000E+00 0.  1.
     999902    2    1    2    0    0  0.21863289530E-01 -0.75803519946E-02 -0.37890570227E-02  0.10204817140E+01  0.10202122850E+01 0.  0.
     999903    2    3    3    0    0 -0.56922885099E-01 -0.11470383757E+00 -0.13961486620E-01  0.13043329909E+00  0.20511879513E-01 0.  0.
         14    1    1    2    0    0 -0.21863289530E-01  0.75803519946E-02  0.37890570227E-02  0.23448286048E-01  0.00000000000E+00 0. -1.
     999901    1    3    3    0    0  0.78786174629E-01  0.10712348558E+00  0.10172429597E-01  0.89004841486E+00  0.88000000000E+00 0. -1.
        -11    1    4    4    0    0 -0.12648731662E-01 -0.47078686759E-01 -0.27475518070E-02  0.48828304513E-01  0.51100000000E-03 0. -1.
         11    1    4    4    0    0 -0.44274153437E-01 -0.67625150812E-01 -0.11213934813E-01  0.81604994577E-01  0.51100000000E-03 0.  1.
</event>
<event>
 8    1  0.1128298E+005  0.1043930E+01  0.7957747E-01            NaN
         13   -1    0    0    0    0  0.00000000000E+00  0.00000000000E+00  0.74505805969E-08  0.10566000000E+00  0.10566000000E+00 0.  1.
     999900   -1    0    0    0    0 -0.00000000000E+00 -0.00000000000E+00 -0.74505805969E-08  0.93827000000E+00  0.93827000000E+00 0.  1.
     999902    2    1    2    0    0 -0.93900777147E-02 -0.14582540762E-01  0.16448128326E-01  0.10200267580E+01  0.10197466460E+01 0.  0.
     999903    2    3    3    0    0 -0.87335654553E-01  0.86152704387E-01 -0.39593379530E-01  0.12909255547E+00  0.68881888602E-02 0.  0.
         14    1    1    2    0    0  0.93900777147E-02  0.14582540762E-01 -0.16448128326E-01  0.23903242040E-01  0.00000000000E+00 0. -1.
     999901    1    3    3    0    0  0.77945576839E-01 -0.10073524515E+00  0.56041507856E-01  0.89093420249E+00  0.88000000000E+00 0.  1.
        -11    1    4    4    0    0 -0.58218564409E-01  0.52964444751E-01 -0.24582122045E-01  0.82457113064E-01  0.51100000000E-03 0.  1.
         11    1    4    4    0    0 -0.29117090145E-01  0.33188259636E-01 -0.15011257484E-01  0.46635442406E-01  0.51100000000E-03 0. -1.
</event>
<event>
 8    1  0.1128298E+005  0.1043930E+01  0.7957747E-01            NaN
         13   -1    0    0    0    0  0.00000000000E+00  0.00000000000E+00  0.74505805969E-08  0.10566000000E+00  0.10566000000E+00 0. -1.
     999900   -1    0    0    0    0 -0.00000000000E+00 -0.00000000000E+00 -0.74505805969E-08  0.93827000000E+00  0.93827000000E+00 0.  1.
     999902    2    1    2    0    0  0.12157999529E-02 -0.61689125225E-02  0.22320521468E-01  0.10207407928E+01  0.10204773524E+01 0.  0.
     999903    2    3    3    0    0 -0.98179600133E-01  0.26162809582E-01 -0.76953649002E-01  0.12901205226E+00  0.19962941815E-01 0.  0.
         14    1    1    2    0    0 -0.12157999529E-02  0.61689125225E-02 -0.22320521468E-01  0.23189207185E-01  0.00000000000E+00 0.  1.
     999901    1    3    3    0    0  0.99395400086E-01 -0.32331722105E-01  0.99274170470E-01  0.89172874056E+00  0.88000000000E+00 0. -1.
        -11    1    4    4    0    0 -0.53627786915E-01  0.97176860058E-02 -0.52143541920E-01  0.75429324773E-01  0.51100000000E-03 0. -1.
         11    1    4    4    0    0 -0.44551813217E-01  0.16445123576E-01 -0.24810107081E-01  0.53582727486E-01  0.51100000000E-03 0.  1.
</event>
<event>
 8    1  0.1128298E+005  0.1043930E+01  0.7957747E-01            NaN
         13   -1    0    0    0    0  0.00000000000E+00  0.00000000000E+00  0.74505805969E-08  0.10566000000E+00  0.10566000000E+00 0.  1.
     999900   -1    0    0    0    0 -0.00000000000E+00 -0.00000000000E+00 -0.74505805969E-08  0.93827000000E+00  0.93827000000E+00 0. -1.
     999902    2    1    2    0    0 -0.66483144687E-02  0.19682211499E-01  0.11446369755E-01  0.10202106215E+01  0.10199348525E+01 0.  0.
     999903    2    3    3    0    0 -0.12004978254E+00 -0.54205644588E-02 -0.47049379550E-01  0.13065354353E+00  0.20380665188E-01 0.  0.
         14    1    1    2    0    0  0.66483144687E-02 -0.19682211499E-01 -0.11446369755E-01  0.23719378477E-01  0.00000000000E+00 0. -1.
     999901    1    3    3    0    0  0.11340146807E+00  0.25102775958E-01  0.58495749305E-01  0.88955707799E+00  0.88000000000E+00 0. -1.
        -11    1    4    4    0    0 -0.36661969382E-01  0.27366407295E-02 -0.23438736699E-01  0.43603035451E-01  0.51100000000E-03 0. -1.
         11    1    4    4    0    0 -0.83387813159E-01 -0.81572051883E-02 -0.23610642851E-01  0.87050508078E-01  0.51100000000E-03 0.  1.
</event>
<event>
 8    1  0.1128298E+005  0.1043930E+01  0.7957747E-01            NaN
         13   -1    0    0    0    0  0.00000000000E+00  0.00000000000E+00  0.74505805969E-08  0.10566000000E+00  0.10566000000E+00 0.  1.
     999900   -1    0    0    0    0 -0.00000000000E+00 -0.00000000000E+00 -0.74505805969E-08  0.93827000000E+00  0.93827000000E+00 0. -1.
     999902    2    1    2    0    0  0.18349784991E-02  0.37236314178E-03  0.21013176769E-01  0.10228335691E+01  0.10226159839E+01 0.  0.
     999903    2    3    3    0    0  0.69826466387E-02  0.10576454630E+00 -0.74662034772E-01  0.13138095851E+00  0.21251828474E-01 0.  0.
         14    1    1    2    0    0 -0.18349784991E-02 -0.37236314178E-03 -0.21013176769E-01  0.21096430938E-01  0.00000000000E+00 0. -1.
     999901    1    3    3    0    0 -0.51476681395E-02 -0.10539218316E+00  0.95675211541E-01  0.89145261055E+00  0.88000000000E+00 0.  1.
        -11    1    4    4    0    0 -0.23050388563E-02  0.87021089512E-01 -0.62653917229E-01  0.10725557183E+00  0.51100000000E-03 0.  1.
         11    1    4    4    0    0  0.92876854950E-02  0.18743456791E-01 -0.12008117543E-01  0.24125386676E-01  0.51100000000E-03 0. -1.
</event>
<event>
 8    1  0.1128298E+005  0.1043930E+01  0.7957747E-01            NaN
         13   -1    0    0    0    0  0.00000000000E+00  0.00000000000E+00  0.74505805969E-08  0.10566000000E+00  0.10566000000E+00 0. -1.
     999900   -1    0    0    0    0 -0.00000000000E+00 -0.00000000000E+00 -0.74505805969E-08  0.93827000000E+00  0.93827000000E+00 0.  1.
     999902    2    1    2    0    0  0.17949889378E-01 -0.51456158143E-02  0.15275801410E-01  0.10198047850E+01  0.10195193836E+01 0.  0.
     999903    2    3    3    0    0  0.68807777039E-01  0.15431241617E-01 -0.10698092831E+00  0.12966061702E+00  0.19857572483E-01 0.  0.
         14    1    1    2    0    0 -0.17949889378E-01  0.51456158143E-02 -0.15275801410E-01  0.24125215015E-01  0.00000000000E+00 0.  1.
     999901    1    3    3    0    0 -0.50857887661E-01 -0.20576857431E-01  0.12225672972E+00  0.89014416796E+00  0.88000000000E+00 0. -1.
        -11    1    4    4    0    0  0.51410457564E-01  0.19385590002E-01 -0.86693115736E-01  0.10263914304E+00  0.51100000000E-03 0.  1.
         11    1    4    4    0    0  0.17397319476E-01 -0.39543483849E-02 -0.20287812575E-01  0.27021473982E-01  0.51100000000E-03 0. -1.
</event>
<event>
 8    1  0.1128298E+005  0.1043930E+01  0.7957747E-01            NaN
         13   -1    0    0    0    0  0.00000000000E+00  0.00000000000E+00  0.74505805969E-08  0.10566000000E+00  0.10566000000E+00 0.  1.
     999900   -1    0    0    0    0 -0.00000000000E+00 -0.00000000000E+00 -0.74505805969E-08  0.93827000000E+00  0.93827000000E+00 0.  1.
     999902    2    1    2    0    0  0.28946447955E-02 -0.16575915368E-01 -0.15309998621E-01  0.10211805825E+01  0.10209271502E+01 0.  0.
     999903    2    3    3    0    0 -0.24037517024E-01 -0.12772649216E+00 -0.22822742926E-01  0.13374820007E+00  0.21813858017E-01 0.  0.
         14    1    1    2    0    0 -0.28946447955E-02  0.16575915368E-01  0.15309998621E-01  0.22749417499E-01  0.00000000000E+00 0.  1.
     999901    1    3    3    0    0  0.26932161819E-01  0.11115057680E+00  0.75127443043E-02  0.88743238243E+00  0.88000000000E+00 0. -1.
        -11    1    4    4    0    0 -0.30524912772E-02 -0.26140230294E-01  0.39476495317E-02  0.26617182432E-01  0.51100000000E-03 0. -1.
         11    1    4    4    0    0 -0.20985025747E-01 -0.10158626187E+00 -0.26770392457E-01  0.10713101764E+00  0.51100000000E-03 0.  1.
</event>
<event>
 8    1  0.1128298E+005  0.1043930E+01  0.7957747E-01            NaN
         13   -1    0    0    0    0  0.00000000000E+00  0.00000000000E+00  0.74505805969E-08  0.10566000000E+00  0.10566000000E+00 0.  1.
     999900   -1    0    0    0    0 -0.00000000000E+00 -0.00000000000E+00 -0.74505805969E-08  0.93827000000E+00  0.93827000000E+00 0. -1.
     999902    2    1    2    0    0  0.34828184051E-02  0.98125962126E-02 -0.21602170683E-01  0.10199493652E+01  0.10196674147E+01 0.  0.
     999903    2    3    3    0    0  0.11303832240E+00 -0.51016745891E-01  0.31268984698E-01  0.12950117668E+00  0.20308487529E-01 0.  0.
         14    1    1    2    0    0 -0.34828184051E-02 -0.98125962126E-02  0.21602170683E-01  0.23980634827E-01  0.00000000000E+00 0.  1.
     999901    1    3    3    0    0 -0.10955550399E+00  0.60829342104E-01 -0.52871155381E-01  0.89044818849E+00  0.88000000000E+00 0. -1.
        -11    1    4    4    0    0  0.79573954883E-01 -0.38361563339E-01  0.12887041270E-01  0.89274636886E-01  0.51100000000E-03 0.  1.
         11    1    4    4    0    0  0.33464367517E-01 -0.12655182552E-01  0.18381943428E-01  0.40226539795E-01  0.51100000000E-03 0. -1.
</event>
<event>
 8    1  0.1128298E+005  0.1043930E+01  0.7957747E-01            NaN
         13   -1    0    0    0    0  0.00000000000E+00  0.00000000000E+00  0.74505805969E-08  0.10566000000E+00  0.10566000000E+00 0. -1.
     999900   -1    0    0    0    0 -0.00000000000E+00 -0.00000000000E+00 -0.74505805969E-08  0.93827000000E+00  0.93827000000E+00 0.  1.
     999902    2    1    2    0    0  0.49771299425E-02 -0.44982138529E-02 -0.22721797163E-01  0.10202385286E+01  0.10199634157E+01 0.  0.
     999903    2    3    3    0    0  0.72403474854E-02 -0.49927754226E-01  0.11611201006E+00  0.12819380365E+00  0.20160583854E-01 0.  0.
         14    1    1    2    0    0 -0.49771299425E-02  0.44982138529E-02  0.22721797163E-01  0.23691471390E-01  0.00000000000E+00 0. -1.
     999901    1    3    3    0    0 -0.22632175429E-02  0.45429540374E-01 -0.13883380722E+00  0.89204472496E+00  0.88000000000E+00 0.  1.
        -11    1    4    4    0    0  0.10118015167E-02 -0.47444673627E-01  0.98357161641E-01  0.10920811859E+00  0.51100000000E-03 0.  1.
         11    1    4    4    0    0  0.62285459687E-02 -0.24830805992E-02  0.17754848419E-01  0.18985685069E-01  0.51100000000E-03 0. -1.
</event>
<event>
 8    1  0.1128298E+005  0.1043930E+01  0.7957747E-01            NaN
         13   -1    0    0    0    0  0.00000000000E+00  0.00000000000E+00  0.74505805969E-08  0.10566000000E+00  0.10566000000E+00 0. -1.
     999900   -1    0    0    0    0 -0.00000000000E+00 -0.00000000000E+00 -0.74505805969E-08  0.93827000000E+00  0.93827000000E+00 0.  1.
     999902    2    1    2    0    0  0.45241633358E-02  0.10515437645E-01 -0.18794340513E-01  0.10219238709E+01  0.10216869032E+01 0.  0.
     999903    2    3    3    0    0  0.12258805413E+00 -0.42639223353E-01 -0.16586123503E-01  0.13244684673E+00  0.20521533408E-01 0.  0.
         14    1    1    2    0    0 -0.45241633358E-02 -0.10515437645E-01  0.18794340513E-01  0.22006129103E-01  0.00000000000E+00 0. -1.
     999901    1    3    3    0    0 -0.11806389079E+00  0.53154660998E-01 -0.22082170104E-02  0.88947702416E+00  0.88000000000E+00 0. -1.
        -11    1    4    4    0    0  0.81397213172E-01 -0.34852704441E-01 -0.38445115871E-02  0.88629897379E-01  0.51100000000E-03 0. -1.
         11    1    4    4    0    0  0.41190840956E-01 -0.77865189117E-02 -0.12741611916E-01  0.43816949353E-01  0.51100000000E-03 0.  1.
</event>
<event>
 8    1  0.1128298E+005  0.1043930E+01  0.7957747E-01            NaN
         13   -1    0    0    0    0  0.00000000000E+00  0.00000000000E+00  0.74505805969E-08  0.10566000000E+00  0.10566000000E+00 0. -1.
     999900   -1    0    0    0    0 -0.00000000000E+00 -0.00000000000E+00 -0.74505805969E-08  0.93827000000E+00  0.93827000000E+00 0. -1.
     999902    2    1    2    0    0  0.87351443288E-02  0.24113434059E-02 -0.21422409189E-01  0.10206697993E+01  0.10204047247E+01 0.  0.
     999903    2    3    3    0    0  0.78859682020E-01  0.72132850298E-01 -0.77208766416E-01  0.13337579106E+00  0.20147220408E-01 0.  0.
         14    1    1    2    0    0 -0.87351443288E-02 -0.24113434059E-02  0.21422409189E-01  0.23260200750E-01  0.00000000000E+00 0. -1.
     999901    1    3    3    0    0 -0.70124537691E-01 -0.69721506893E-01  0.55786357227E-01  0.88729400819E+00  0.88000000000E+00 0.  1.
        -11    1    4    4    0    0  0.27368380569E-01  0.35899801449E-01 -0.25150911629E-01  0.51678365646E-01  0.51100000000E-03 0. -1.
         11    1    4    4    0    0  0.51491301451E-01  0.36233048849E-01 -0.52057854786E-01  0.81697425418E-01  0.51100000000E-03 0.  1.
</event>
<event>
 8    1  0.1128298E+005  0.1043930E+01  0.7957747E-01            NaN
         13   -1    0    0    0    0  0.00000000000E+00  0.00000000000E+00  0.74505805969E-08  0.10566000000E+00  0.10566000000E+00 0. -1.
     999900   -1    0    0    0    0 -0.00000000000E+00 -0.00000000000E+00 -0.74505805969E-08  0.93827000000E+00  0.93827000000E+00 0. -1.
     999902    2    1    2    0    0  0.87922883617E-02  0.14533161839E-01 -0.16856661070E-01  0.10199995978E+01  0.10197188413E+01 0.  0.
     999903    2    3    3    0    0 -0.35253616083E-01 -0.56326500942E-01 -0.11098536179E+00  0.13105564803E+00  0.21031885200E-01 0.  0.
         14    1    1    2    0    0 -0.87922883617E-02 -0.14533161839E-01  0.16856661070E-01  0.23930402213E-01  0.00000000000E+00 0. -1.
     999901    1    3    3    0    0  0.44045904444E-01  0.70859662781E-01  0.94128700715E-01  0.88894394976E+00  0.88000000000E+00 0.  1.
        -11    1    4    4    0    0  0.27081781084E-02 -0.19605874159E-02 -0.50254421622E-02  0.60575838094E-02  0.51100000000E-03 0. -1.
         11    1    4    4    0    0 -0.37961794191E-01 -0.54365913526E-01 -0.10595991962E+00  0.12499806422E+00  0.51100000000E-03 0.  1.
</event>
<event>
 8    1  0.1128298E+005  0.1043930E+01  0.7957747E-01            NaN
         13   -1    0    0    0    0  0.00000000000E+00  0.00000000000E+00  0.74505805969E-08  0.10566000000E+00  0.10566000000E+00 0. -1.
     999900   -1    0    0    0    0 -0.00000000000E+00 -0.00000000000E+00 -0.74505805969E-08  0.93827000000E+00  0.93827000000E+00 0. -1.
     999902    2    1    2    0    0 -0.58372702182E-02  0.16731377044E-01 -0.15702258910E-01  0.10202535637E+01  0.10199788040E+01 0.  0.
     999903    2    3    3    0    0 -0.98066534255E-01 -0.82099018837E-01 -0.11178462048E-01  0.12991983467E+00  0.19922635173E-01 0.  0.
         14    1    1    2    0    0  0.58372702182E-02 -0.16731377044E-01  0.15702258910E-01  0.23676436309E-01  0.00000000000E+00 0. -1.
     999901    1    3    3    0    0  0.92229264037E-01  0.98830395881E-01 -0.45237968618E-02  0.89033372902E+00  0.88000000000E+00 0. -1.
        -11    1    4    4    0    0 -0.51127631684E-01 -0.49926129467E-01 -0.14481516452E-01  0.72915214907E-01  0.51100000000E-03 0.  1.
         11    1    4    4    0    0 -0.46938902571E-01 -0.32172889370E-01  0.33030544038E-02  0.57004619763E-01  0.51100000000E-03 0. -1.
</event>
<event>
 8    1  0.1128298E+005  0.1043930E+01  0.7957747E-01            NaN
         13   -1    0    0    0    0  0.00000000000E+00  0.00000000000E+00  0.74505805969E-08  0.10566000000E+00  0.10566000000E+00 0. -1.
     999900   -1    0    0    0    0 -0.00000000000E+00 -0.00000000000E+00 -0.74505805969E-08  0.93827000000E+00  0.93827000000E+00 0. -1.
     999902    2    1    2    0    0  0.58653316502E-02  0.24596351793E-01  0.10756687442E-02  0.10186211142E+01  0.10183066506E+01 0.  0.
     999903    2    3    3    0    0  0.12706962761E+00  0.23321975204E-01 -0.18408588058E-02  0.13030776210E+00  0.16915061724E-01 0.  0.
         14    1    1    2    0    0 -0.58653316502E-02 -0.24596351793E-01 -0.10756687442E-02  0.25308885794E-01  0.00000000000E+00 0. -1.
     999901    1    3    3    0    0 -0.12120429596E+00  0.12743765887E-02  0.29165275500E-02  0.88831335211E+00  0.88000000000E+00 0. -1.
        -11    1    4    4    0    0  0.12422043481E+00  0.23290254614E-01  0.80120684225E-03  0.12638850991E+00  0.51100000000E-03 0.  1.
         11    1    4    4    0    0  0.28491928045E-02  0.31720590357E-04 -0.26420656481E-02  0.39192521891E-02  0.51100000000E-03 0. -1.
</event>
<event>
 8    1  0.1128298E+005  0.1043930E+01  0.7957747E-01            NaN
         13   -1    0    0    0    0  0.00000000000E+00  0.00000000000E+00  0.74505805969E-08  0.10566000000E+00  0.10566000000E+00 0. -1.
     999900   -1    0    0    0    0 -0.00000000000E+00 -0.00000000000E+00 -0.74505805969E-08  0.93827000000E+00  0.93827000000E+00 0. -1.
     999902    2    1    2    0    0  0.48123755245E-02  0.22265813132E-01  0.36978854491E-02  0.10208518773E+01  0.10205909835E+01 0.  0.
     999903    2    3    3    0    0  0.10163716221E+00 -0.21219013225E-01 -0.77063754471E-01  0.13080220902E+00  0.19749338432E-01 0.  0.
         14    1    1    2    0    0 -0.48123755245E-02 -0.22265813132E-01 -0.36978854491E-02  0.23078122744E-01  0.00000000000E+00 0. -1.
     999901    1    3    3    0    0 -0.96824786682E-01  0.43484826357E-01  0.80761639920E-01  0.89004966823E+00  0.88000000000E+00 0.  1.
        -11    1    4    4    0    0  0.88926595399E-01 -0.11480401273E-01 -0.65757986111E-01  0.11119403240E+00  0.51100000000E-03 0.  1.
         11    1    4    4    0    0  0.12710566807E-01 -0.97386119524E-02 -0.11305768359E-01  0.19608176624E-01  0.51100000000E-03 0. -1.
</event>
<event>
 8    1  0.1128298E+005  0.1043930E+01  0.7957747E-01            NaN
         13   -1    0    0    0    0  0.00000000000E+00  0.00000000000E+00  0.74505805969E-08  0.10566000000E+00  0.10566000000E+00 0. -1.
     999900   -1    0    0    0    0 -0.00000000000E+00 -0.00000000000E+00 -0.74505805969E-08  0.93827000000E+00  0.93827000000E+00 0. -1.
     999902    2    1    2    0    0  0.12465864528E-01  0.15390686953E-01  0.99176949382E-02  0.10217797924E+01  0.10215396774E+01 0.  0.
     999903    2    3    3    0    0 -0.54672863882E-01 -0.49279615158E-01 -0.10462102867E+00  0.12947436486E+00  0.20011221867E-01 0.  0.
         14    1    1    2    0    0 -0.12465864528E-01 -0.15390686953E-01 -0.99176949382E-02  0.22150207588E-01  0.00000000000E+00 0.  1.
     999901    1    3    3    0    0  0.67138728410E-01  0.64670302111E-01  0.11453872361E+00  0.89230542755E+00  0.88000000000E+00 0.  1.
        -11    1    4    4    0    0 -0.43189889012E-01 -0.27874520020E-01 -0.78170711911E-01  0.93558947733E-01  0.51100000000E-03 0.  1.
         11    1    4    4    0    0 -0.11482974870E-01 -0.21405095138E-01 -0.26450316763E-01  0.35915417130E-01  0.51100000000E-03 0. -1.
</event>
<event>
 8    1  0.1128298E+005  0.1043930E+01  0.7957747E-01            NaN
         13   -1    0    0    0    0  0.00000000000E+00  0.00000000000E+00  0.74505805969E-08  0.10566000000E+00  0.10566000000E+00 0. -1.
     999900   -1    0    0    0    0 -0.00000000000E+00 -0.00000000000E+00 -0.74505805969E-08  0.93827000000E+00  0.93827000000E+00 0. -1.
     999902    2    1    2    0    0 -0.15321613679E-01 -0.18194549623E-01 -0.52489482588E-03  0.10201377955E+01  0.10198603104E+01 0.  0.
     999903    2    3    3    0    0  0.78223969560E-01  0.81724531205E-01  0.56003410867E-01  0.12776452817E+00  0.19735861129E-01 0.  0.
         14    1    1    2    0    0  0.15321613679E-01  0.18194549623E-01  0.52489482588E-03  0.23792204528E-01  0.00000000000E+00 0. -1.
     999901    1    3    3    0    0 -0.93545583239E-01 -0.99919080828E-01 -0.56528305693E-01  0.89237326731E+00  0.88000000000E+00 0. -1.
        -11    1    4    4    0    0  0.21605638671E-01  0.19289491058E-01  0.23961973537E-01  0.37594220093E-01  0.51100000000E-03 0. -1.
         11    1    4    4    0    0  0.56618330889E-01  0.62435040147E-01  0.32041437330E-01  0.90170308073E-01  0.51100000000E-03 0.  1.
</event>
<event>
 8    1  0.1128298E+005  0.1043930E+01  0.7957747E-01            NaN
         13   -1    0    0    0    0  0.00000000000E+00  0.00000000000E+00  0.74505805969E-08  0.10566000000E+00  0.10566000000E+00 0.  1.
     999900   -1    0    0    0    0 -0.00000000000E+00 -0.00000000000E+00 -0.74505805969E-08  0.93827000000E+00  0.93827000000E+00 0. -1.
     999902    2    1    2    0    0  0.20726941502E-01  0.93385258958E-02 -0.14443482736E-02  0.10211506165E+01  0.10208965086E+01 0.  0.
     999903    2    3    3    0    0 -0.74905753273E-01 -0.99940598951E-01 -0.19996429788E-01  0.12905660849E+00  0.25627247170E-01 0.  0.
         14    1    1    2    0    0 -0.20726941502E-01 -0.93385258958E-02  0.14443482736E-02  0.22779383483E-01  0.00000000000E+00 0. -1.
     999901    1    3    3    0    0  0.95632694775E-01  0.10927912485E+00  0.18552081514E-01  0.89209400803E+00  0.88000000000E+00 0.  1.
        -11    1    4    4    0    0 -0.26933094683E-01 -0.43169963245E-01 -0.20149083202E-01  0.54729187740E-01  0.51100000000E-03 0. -1.
         11    1    4    4    0    0 -0.47972658590E-01 -0.56770635706E-01  0.15265341474E-03  0.74327420745E-01  0.51100000000E-03 0.  1.
</event>
<event>
 8    1  0.1128298E+005  0.1043930E+01  0.7957747E-01            NaN
         13   -1    0    0    0    0  0.00000000000E+00  0.00000000000E+00  0.74505805969E-08  0.10566000000E+00  0.10566000000E+00 0. -1.
     999900   -1    0    0    0    0 -0.00000000000E+00 -0.00000000000E+00 -0.74505805969E-08  0.93827000000E+00  0.93827000000E+00 0. -1.
     999902    2    1    2    0    0  0.13505944585E-01 -0.19296592008E-01 -0.27200762182E-02  0.10202199216E+01  0.10199443714E+01 0.  0.
     999903    2    3    3    0    0  0.67932273096E-01  0.54270943349E-01  0.94754223067E-01  0.13012124927E+00  0.19825430708E-01 0.  0.
         14    1    1    2    0    0 -0.13505944585E-01  0.19296592008E-01  0.27200762182E-02  0.23710078382E-01  0.00000000000E+00 0. -1.
     999901    1    3    3    0    0 -0.54426328511E-01 -0.73567535357E-01 -0.97474299285E-01  0.89009867235E+00  0.88000000000E+00 0. -1.
        -11    1    4    4    0    0  0.40736062142E-01  0.23367061408E-01  0.40505689764E-01  0.62019499691E-01  0.51100000000E-03 0.  1.
         11    1    4    4    0    0  0.27196210954E-01  0.30903881941E-01  0.54248533303E-01  0.68101749579E-01  0.51100000000E-03 0. -1.
</event>
<event>
 8    1  0.1128298E+005  0.1043930E+01  0.7957747E-01            NaN
         13   -1    0    0    0    0  0.00000000000E+00  0.00000000000E+00  0.74505805969E-08  0.10566000000E+00  0.10566000000E+00 0. -1.
     999900   -1    0    0    0    0 -0.00000000000E+00 -0.00000000000E+00 -0.74505805969E-08  0.93827000000E+00  0.93827000000E+00 0.  1.
     999902    2    1    2    0    0 -0.12966105283E-01 -0.12727962369E-01  0.13396006754E-01  0.10213562562E+01  0.10211067663E+01 0.  0.
     999903    2    3    3    0    0  0.90068253721E-01 -0.18931483348E-01  0.93821359845E-01  0.13168058483E+00  0.81631775361E-02 0.  0.
         14    1    1    2    0    0  0.12966105283E-01  0.12727962369E-01 -0.13396006754E-01  0.22573743802E-01  0.00000000000E+00 0.  1.
     999901    1    3    3    0    0 -0.10303435900E+00  0.62035209786E-02 -0.80425353091E-01  0.88967567137E+00  0.88000000000E+00 0. -1.
        -11    1    4    4    0    0  0.54991054508E-01 -0.76397413822E-02  0.57815359577E-01  0.80157711097E-01  0.51100000000E-03 0. -1.
         11    1    4    4    0    0  0.35077199213E-01 -0.11291741965E-01  0.36006000268E-01  0.51522873731E-01  0.51100000000E-03 0.  1.
</event>
<event>
 8    1  0.1128298E+005  0.1043930E+01  0.7957747E-01            NaN
         13   -1    0    0    0    0  0.00000000000E+00  0.00000000000E+00  0.74505805969E-08  0.10566000000E+00  0.10566000000E+00 0. -1.
     999900   -1    0    0    0    0 -0.00000000000E+00 -0.00000000000E+00 -0.74505805969E-08  0.93827000000E+00  0.93827000000E+00 0.  1.
     999902    2    1    2    0    0  0.92503932903E-02 -0.10701486520E-01 -0.17917570172E-01  0.10211017081E+01  0.10208464955E+01 0.  0.
     999903    2    3    3    0    0  0.55636273098E-01 -0.11676612662E+00 -0.26134392480E-01  0.13348192808E+00  0.20117043646E-01 0.  0.
         14    1    1    2    0    0 -0.92503932903E-02  0.10701486520E-01  0.17917570172E-01  0.22828291891E-01  0.00000000000E+00 0. -1.
     999901    1    3    3    0    0 -0.46385879808E-01  0.10606464010E+00  0.82168223079E-02  0.88761978003E+00  0.88000000000E+00 0.  1.
        -11    1    4    4    0    0  0.38220193709E-01 -0.92939431720E-01 -0.13582837263E-01  0.10140648778E+00  0.51100000000E-03 0.  1.
         11    1    4    4    0    0  0.17416079389E-01 -0.23826694897E-01 -0.12551555217E-01  0.32075440299E-01  0.51100000000E-03 0. -1.
</event>
<event>
 8    1  0.1128298E+005  0.1043930E+01  0.7957747E-01            NaN
         13   -1    0    0    0    0  0.00000000000E+00  0.00000000000E+00  0.74505805969E-08  0.10566000000E+00  0.10566000000E+00 0.  1.
     999900   -1    0    0    0    0 -0.00000000000E+00 -0.00000000000E+00 -0.74505805969E-08  0.93827000000E+00  0.93827000000E+00 0.  1.
     999902    2    1    2    0    0  0.21425874564E-01 -0.50933425234E-02 -0.92084144027E-02  0.10200594086E+01  0.10197800704E+01 0.  0.
     999903    2    3    3    0    0  0.61811919512E-01  0.78417318236E-01 -0.83992466938E-01  0.13202916270E+00  0.20173648841E-01 0.  0.
         14    1    1    2    0    0 -0.21425874564E-01  0.50933425234E-02  0.92084144027E-02  0.23870591419E-01  0.00000000000E+00 0.  1.
     999901    1    3    3    0    0 -0.40386044949E-01 -0.83510660760E-01  0.74784052536E-01  0.88803024588E+00  0.88000000000E+00 0.  1.
        -11    1    4    4    0    0  0.13677617320E-01  0.24014663976E-01 -0.34137321593E-01  0.43924926272E-01  0.51100000000E-03 0. -1.
         11    1    4    4    0    0  0.48134302192E-01  0.54402654260E-01 -0.49855145345E-01  0.88104236428E-01  0.51100000000E-03 0.  1.
</event>
<event>
 8    1  0.1128298E+005  0.1043930E+01  0.7957747E-01            NaN
         13   -1    0    0    0    0  0.00000000000E+00  0.00000000000E+00  0.74505805969E-08  0.10566000000E+00  0.10566000000E+00 0.  1.
     999900   -1    0    0    0    0 -0.00000000000E+00 -0.00000000000E+00 -0.74505805969E-08  0.93827000000E+00  0.93827000000E+00 0. -1.
     999902    2    1    2    0    0 -0.24104170979E-01 -0.20770891611E-02  0.16433260997E-02  0.10196807551E+01  0.10193923761E+01 0.  0.
     999903    2    3    3    0    0 -0.62715534661E-01  0.11365769340E+00  0.96031344161E-03  0.13126314844E+00  0.19436624717E-01 0.  0.
         14    1    1    2    0    0  0.24104170979E-01  0.20770891611E-02 -0.16433260997E-02  0.24249244909E-01  0.00000000000E+00 0. -1.
     999901    1    3    3    0    0  0.38611363682E-01 -0.11573478256E+00  0.68301265810E-03  0.88841760665E+00  0.88000000000E+00 0.  1.
        -11    1    4    4    0    0 -0.43617273571E-01  0.66085973453E-01  0.76996562662E-02  0.79557326933E-01  0.51100000000E-03 0.  1.
         11    1    4    4    0    0 -0.19098261090E-01  0.47571719945E-01 -0.67393428246E-02  0.51705821509E-01  0.51100000000E-03 0. -1.
</event>
<event>
 8    1  0.1128298E+005  0.1043930E+01  0.7957747E-01            NaN
         13   -1    0    0    0    0  0.00000000000E+00  0.00000000000E+00  0.74505805969E-08  0.10566000000E+00  0.10566000000E+00 0.  1.
     999900   -1    0    0    0    0 -0.00000000000E+00 -0.00000000000E+00 -0.74505805969E-08  0.93827000000E+00  0.93827000000E+00 0. -1.
     999902    2    1    2    0    0 -0.16128090296E-01 -0.11874918719E-01  0.10880129859E-01  0.10211373210E+01  0.10208829130E+01 0.  0.
     999903    2    3    3    0    0 -0.22722235951E-02 -0.75742111526E-01  0.10792328527E+00  0.13339390232E+00  0.20111370293E-01 0.  0.
         14    1    1    2    0    0  0.16128090296E-01  0.11874918719E-01 -0.10880129859E-01  0.22792679021E-01  0.00000000000E+00 0.  1.
     999901    1    3    3    0    0 -0.13855866701E-01  0.63867192807E-01 -0.97043155409E-01  0.88774341866E+00  0.88000000000E+00 0.  1.
        -11    1    4    4    0    0  0.10777675592E-02 -0.56396671952E-01  0.64195366340E-01  0.85457898235E-01  0.51100000000E-03 0.  1.
         11    1    4    4    0    0 -0.33499911543E-02 -0.19345439574E-01  0.43727918927E-01  0.47936004086E-01  0.51100000000E-03 0. -1.
</event>
<event>
 8    1  0.1128298E+005  0.1043930E+01  0.7957747E-01            NaN
         13   -1    0    0    0    0  0.00000000000E+00  0.00000000000E+00  0.74505805969E-08  0.10566000000E+00  0.10566000000E+00 0.  1.
     999900   -1    0    0    0    0 -0.00000000000E+00 -0.00000000000E+00 -0.74505805969E-08  0.93827000000E+00  0.93827000000E+00 0. -1.
     999902    2    1    2    0    0  0.21872887247E-01  0.41357992395E-02 -0.74238178513E-02  0.10204642568E+01  0.10201944218E+01 0.  0.
     999903    2    3    3    0    0 -0.97095022073E-01  0.62411729682E-01  0.52854956713E-01  0.12850967379E+00  0.19960523398E-01 0.  0.
         14    1    1    2    0    0 -0.21872887247E-01 -0.41357992395E-02  0.74238178513E-02  0.23465743188E-01  0.00000000000E+00 0.  1.
     999901    1    3    3    0    0  0.11896790932E+00 -0.58275930443E-01 -0.60278774564E-01  0.89195458303E+00  0.88000000000E+00 0. -1.
        -11    1    4    4    0    0 -0.90650480253E-01  0.53384373587E-01  0.42957809192E-01  0.11363553760E+00  0.51100000000E-03 0. -1.
         11    1    4    4    0    0 -0.64445418200E-02  0.90273560952E-02  0.98971475201E-02  0.14874136189E-01  0.51100000000E-03 0.  1.
</event>
<event>
 8    1  0.1128298E+005  0.1043930E+01  0.7957747E-01            NaN
         13   -1    0    0    0    0  0.00000000000E+00  0.00000000000E+00  0.74505805969E-08  0.10566000000E+00  0.10566000000E+00 0.  1.
     999900   -1    0    0    0    0 -0.00000000000E+00 -0.00000000000E+00 -0.74505805969E-08  0.93827000000E+00  0.93827000000E+00 0. -1.
     999902    2    1    2    0    0 -0.21965762264E-02  0.21017189268E-01  0.12299260895E-01  0.10194796624E+01  0.10191864221E+01 0.  0.
     999903    2    3    3    0    0 -0.66937495094E-01 -0.61258082621E-01 -0.87519941594E-01  0.12766999650E+00  0.20166975350E-01 0.  0.
         14    1    1    2    0    0  0.21965762264E-02 -0.21017189268E-01 -0.12299260895E-01  0.24450337633E-01  0.00000000000E+00 0. -1.
     999901    1    3    3    0    0  0.64740918868E-01  0.82275271889E-01  0.99819202489E-01  0.89180966586E+00  0.88000000000E+00 0.  1.
        -11    1    4    4    0    0 -0.15740503342E-01 -0.16941851949E-01 -0.35098352815E-01  0.42035048284E-01  0.51100000000E-03 0.  1.
         11    1    4    4    0    0 -0.51196991753E-01 -0.44316230672E-01 -0.52421588779E-01  0.85634948220E-01  0.51100000000E-03 0. -1.
</event>
<event>
 8    1  0.1128298E+005  0.1043930E+01  0.7957747E-01            NaN
         13   -1    0    0    0    0  0.00000000000E+00  0.00000000000E+00  0.74505805969E-08  0.10566000000E+00  0.10566000000E+00 0. -1.
     999900   -1    0    0    0    0 -0.00000000000E+00 -0.00000000000E+00 -0.74505805969E-08  0.93827000000E+00  0.93827000000E+00 0.  1.
     999902    2    1    2    0    0  0.10796533785E-01  0.82543577638E-02  0.15561813082E-01  0.10232691774E+01  0.10230605749E+01 0.  0.
     999903    2    3    3    0    0 -0.87896031607E-01 -0.59233146585E-01  0.77655811093E-01  0.13301615141E+00  0.20702500157E-01 0.  0.
         14    1    1    2    0    0 -0.10796533785E-01 -0.82543577638E-02 -0.15561813082E-01  0.20660822594E-01  0.00000000000E+00 0.  1.
     999901    1    3    3    0    0  0.98692565392E-01  0.67487504349E-01 -0.62093998011E-01  0.89025302600E+00  0.88000000000E+00 0.  1.
        -11    1    4    4    0    0 -0.59189721321E-01 -0.28779158548E-01  0.42402761916E-01  0.78293795513E-01  0.51100000000E-03 0.  1.
         11    1    4    4    0    0 -0.28706310286E-01 -0.30453988037E-01  0.35253049177E-01  0.54722355897E-01  0.51100000000E-03 0. -1.
</event>
<event>
 8    1  0.1128298E+005  0.1043930E+01  0.7957747E-01            NaN
         13   -1    0    0    0    0  0.00000000000E+00  0.00000000000E+00  0.74505805969E-08  0.10566000000E+00  0.10566000000E+00 0.  1.
     999900   -1    0    0    0    0 -0.00000000000E+00 -0.00000000000E+00 -0.74505805969E-08  0.93827000000E+00  0.93827000000E+00 0. -1.
     999902    2    1    2    0    0 -0.12422215204E-01 -0.30443135086E-02  0.19103446457E-01  0.10209404167E+01  0.10206815436E+01 0.  0.
     999903    2    3    3    0    0  0.20271108616E-02 -0.61044243529E-01 -0.11211039514E+00  0.12920623703E+00  0.19874660834E-01 0.  0.
         14    1    1    2    0    0  0.12422215204E-01  0.30443135086E-02 -0.19103446457E-01  0.22989583334E-01  0.00000000000E+00 0. -1.
     999901    1    3    3    0    0 -0.14449326066E-01  0.57999930020E-01  0.13121384159E+00  0.89173417964E+00  0.88000000000E+00 0.  1.
        -11    1    4    4    0    0 -0.15239886057E-02 -0.26961585224E-01 -0.69237721658E-01  0.74319397471E-01  0.51100000000E-03 0. -1.
         11    1    4    4    0    0  0.35510994673E-02 -0.34082658305E-01 -0.42872673478E-01  0.54886839558E-01  0.51100000000E-03 0.  1.
</event>
<event>
 8    1  0.1128298E+005  0.1043930E+01  0.7957747E-01            NaN
         13   -1    0    0    0    0  0.00000000000E+00  0.00000000000E+00  0.74505805969E-08  0.10566000000E+00  0.10566000000E+00 0.  1.
     999900   -1    0    0    0    0 -0.00000000000E+00 -0.00000000000E+00 -0.74505805969E-08  0.93827000000E+00  0.93827000000E+00 0.  1.
     999902    2    1    2    0    0 -0.18668621945E-02  0.47082529388E-02  0.24082391773E-01  0.10193207657E+01  0.10190236547E+01 0.  0.
     999903    2    3    3    0    0  0.37086477793E-01  0.60569551093E-02  0.12523361643E+00  0.13266933928E+00  0.22485581157E-01 0.  0.
         14    1    1    2    0    0  0.18668621945E-02 -0.47082529388E-02 -0.24082391773E-01  0.24609234318E-01  0.00000000000E+00 0. -1.
     999901    1    3    3    0    0 -0.38953339987E-01 -0.13487021705E-02 -0.10115122466E+00  0.88665142640E+00  0.88000000000E+00 0.  1.
        -11    1    4    4    0    0  0.33380377441E-01 -0.32554097406E-02  0.90550716661E-01  0.96563661382E-01  0.51100000000E-03 0.  1.
         11    1    4    4    0    0  0.37061003516E-02  0.93123648499E-02  0.34682899771E-01  0.36105677897E-01  0.51100000000E-03 0. -1.
</event>
<event>
 8    1  0.1128298E+005  0.1043930E+01  0.7957747E-01            NaN
         13   -1    0    0    0    0  0.00000000000E+00  0.00000000000E+00  0.74505805969E-08  0.10566000000E+00  0.10566000000E+00 0.  1.
     999900   -1    0    0    0    0 -0.00000000000E+00 -0.00000000000E+00 -0.74505805969E-08  0.93827000000E+00  0.93827000000E+00 0.  1.
     999902    2    1    2    0    0  0.19935262608E-01  0.12093963108E-01  0.98914423974E-03  0.10205921114E+01  0.10203252426E+01 0.  0.
     999903    2    3    3    0    0  0.35991131019E-01 -0.91439448062E-01 -0.83248390677E-01  0.13038263018E+00  0.20317517747E-01 0.  0.
         14    1    1    2    0    0 -0.19935262608E-01 -0.12093963108E-01 -0.98914423974E-03  0.23337888619E-01  0.00000000000E+00 0.  1.
     999901    1    3    3    0    0 -0.16055868411E-01  0.10353341117E+00  0.84237534916E-01  0.89020948121E+00  0.88000000000E+00 0. -1.
        -11    1    4    4    0    0  0.33125458704E-01 -0.66243913082E-01 -0.53955343054E-01  0.91635103535E-01  0.51100000000E-03 0. -1.
         11    1    4    4    0    0  0.28656723144E-02 -0.25195534979E-01 -0.29293047623E-01  0.38747526640E-01  0.51100000000E-03 0.  1.
</event>
<event>
 8    1  0.1128298E+005  0.1043930E+01  0.7957747E-01            NaN
         13   -1    0    0    0    0  0.00000000000E+00  0.00000000000E+00  0.74505805969E-08  0.10566000000E+00  0.10566000000E+00 0. -1.
     999900   -1    0    0    0    0 -0.00000000000E+00 -0.00000000000E+00 -0.74505805969E-08  0.93827000000E+00  0.93827000000E+00 0.  1.
     999902    2    1    2    0    0  0.20162310142E-01  0.61984946092E-02  0.10950605043E-01  0.10201633040E+01  0.10198864207E+01 0.  0.
     999903    2    3    3    0    0 -0.72037579045E-01  0.25732028950E-01 -0.10079135513E+00  0.12810464892E+00  0.20008840479E-01 0.  0.
         14    1    1    2    0    0 -0.20162310142E-01 -0.61984946092E-02 -0.10950605043E-01  0.23766695953E-01  0.00000000000E+00 0. -1.
     999901    1    3    3    0    0  0.92199889187E-01 -0.19533534340E-01  0.11174196017E+00  0.89205865513E+00  0.88000000000E+00 0. -1.
        -11    1    4    4    0    0 -0.24200936911E-01  0.45206822745E-02 -0.46985616175E-01  0.53047442577E-01  0.51100000000E-03 0.  1.
         11    1    4    4    0    0 -0.47836642134E-01  0.21211346675E-01 -0.53805738952E-01  0.75057206340E-01  0.51100000000E-03 0. -1.
</event>
<event>
 8    1  0.1128298E+005  0.1043930E+01  0.7957747E-01            NaN
         13   -1    0    0    0    0  0.00000000000E+00  0.00000000000E+00  0.74505805969E-08  0.10566000000E+00  0.10566000000E+00 0.  1.
     999900   -1    0    0    0    0 -0.00000000000E+00 -0.00000000000E+00 -0.74505805969E-08  0.93827000000E+00  0.93827000000E+00 0. -1.
     999902    2    1    2    0    0 -0.21521387656E-01  0.72892798453E-02  0.58706574455E-02  0.10204615457E+01  0.10201916477E+01 0.  0.
     999903    2    3    3    0    0 -0.38628587319E-01 -0.74936780700E-01  0.99092112023E-01  0.13156108959E+00  0.19529074993E-01 0.  0.
         14    1    1    2    0    0  0.21521387656E-01 -0.72892798453E-02 -0.58706574455E-02  0.23468454277E-01  0.00000000000E+00 0. -1.
     999901    1    3    3    0    0  0.17107199663E-01  0.82226060545E-01 -0.93221454578E-01  0.88890045613E+00  0.88000000000E+00 0. -1.
        -11    1    4    4    0    0 -0.32291852118E-01 -0.56257275805E-01  0.62993572157E-01  0.90421767558E-01  0.51100000000E-03 0. -1.
         11    1    4    4    0    0 -0.63367352004E-02 -0.18679504895E-01  0.36098539867E-01  0.41139322037E-01  0.51100000000E-03 0.  1.
</event>
<event>
 8    1  0.1128298E+005  0.1043930E+01  0.7957747E-01            NaN
         13   -1    0    0    0    0  0.00000000000E+00  0.00000000000E+00  0.74505805969E-08  0.10566000000E+00  0.10566000000E+00 0.  1.
     999900   -1    0    0    0    0 -0.00000000000E+00 -0.00000000000E+00 -0.74505805969E-08  0.93827000000E+00  0.93827000000E+00 0. -1.
     999902    2    1    2    0    0 -0.44990051829E-02 -0.28057012658E-02 -0.23210749700E-01  0.10201213480E+01  0.10198434747E+01 0.  0.
     999903    2    3    3    0    0  0.71311688039E-01 -0.81700359857E-01 -0.72591692887E-01  0.13197152625E+00  0.19662762116E-01 0.  0.
         14    1    1    2    0    0  0.44990051829E-02  0.28057012658E-02  0.23210749700E-01  0.23808651975E-01  0.00000000000E+00 0.  1.
     999901    1    3    3    0    0 -0.75810693222E-01  0.78894658591E-01  0.49380943187E-01  0.88814982177E+00  0.88000000000E+00 0.  1.
        -11    1    4    4    0    0  0.31837026415E-01 -0.22235129601E-01 -0.25692444098E-01  0.46565653051E-01  0.51100000000E-03 0. -1.
         11    1    4    4    0    0  0.39474661624E-01 -0.59465230256E-01 -0.46899248789E-01  0.85405873204E-01  0.51100000000E-03 0.  1.
</event>
<event>
 8    1  0.1128298E+005  0.1043930E+01  0.7957747E-01            NaN
         13   -1    0    0    0    0  0.00000000000E+00  0.00000000000E+00  0.74505805969E-08  0.10566000000E+00  0.10566000000E+00 0. -1.
     999900   -1    0    0    0    0 -0.00000000000E+00 -0.00000000000E+00 -0.74505805969E-08  0.93827000000E+00  0.93827000000E+00 0.  1.
     999902    2    1    2    0    0 -0.23337712092E-01 -0.21910657933E-02  0.48862508482E-02  0.10199857936E+01  0.10197047092E+01 0.  0.
     999903    2    3    3    0    0 -0.91928691722E-01  0.16972713636E-01  0.92114221147E-01  0.13281011099E+00  0.20360217923E-01 0.  0.
         14    1    1    2    0    0  0.23337712092E-01  0.21910657933E-02 -0.48862508482E-02  0.23944206446E-01  0.00000000000E+00 0.  1.
     999901    1    3    3    0    0  0.68590979631E-01 -0.19163779429E-01 -0.87227970299E-01  0.88717568256E+00  0.88000000000E+00 0.  1.
        -11    1    4    4    0    0 -0.51547934115E-01  0.13395226801E-01  0.39114161006E-01  0.66081769988E-01  0.51100000000E-03 0.  1.
         11    1    4    4    0    0 -0.40380757608E-01  0.35774868354E-02  0.53000060141E-01  0.66728341003E-01  0.51100000000E-03 0. -1.
</event>
<event>
 8    1  0.1128298E+005  0.1043930E+01  0.7957747E-01            NaN
         13   -1    0    0    0    0  0.00000000000E+00  0.00000000000E+00  0.74505805969E-08  0.10566000000E+00  0.10566000000E+00 0.  1.
     999900   -1    0    0    0    0 -0.00000000000E+00 -0.00000000000E+00 -0.74505805969E-08  0.93827000000E+00  0.93827000000E+00 0.  1.
     999902    2    1    2    0    0  0.15538332106E-01  0.30112441804E-02  0.17955061842E-01  0.10199948459E+01  0.10197139766E+01 0.  0.
     999903    2    3    3    0    0 -0.53267286044E-02 -0.12478592868E+00 -0.27940100745E-01  0.12933563268E+00  0.18632085663E-01 0.  0.
         14    1    1    2    0    0 -0.15538332106E-01 -0.30112441804E-02 -0.17955061842E-01  0.23935154103E-01  0.00000000000E+00 0. -1.
     999901    1    3    3    0    0  0.20865060711E-01  0.12779717286E+00  0.45895162587E-01  0.89065921322E+00  0.88000000000E+00 0. -1.
        -11    1    4    4    0    0 -0.59091184656E-02 -0.10782396201E+00 -0.17479784509E-01  0.10939254295E+00  0.51100000000E-03 0.  1.
         11    1    4    4    0    0  0.58238986120E-03 -0.16961966667E-01 -0.10460316236E-01  0.19943089729E-01  0.51100000000E-03 0. -1.
</event>
<event>
 8    1  0.1128298E+005  0.1043930E+01  0.7957747E-01            NaN
         13   -1    0    0    0    0  0.00000000000E+00  0.00000000000E+00  0.74505805969E-08  0.10566000000E+00  0.10566000000E+00 0. -1.
     999900   -1    0    0    0    0 -0.00000000000E+00 -0.00000000000E+00 -0.74505805969E-08  0.93827000000E+00  0.93827000000E+00 0.  1.
     999902    2    1    2    0    0  0.23480453108E-01 -0.23781617986E-02 -0.49944371172E-03  0.10203241368E+01  0.10200510318E+01 0.  0.
     999903    2    3    3    0    0 -0.10004227872E+00  0.71434737871E-01 -0.30100097723E-01  0.12814567478E+00  0.20097730614E-01 0.  0.
         14    1    1    2    0    0 -0.23480453108E-01  0.23781617986E-02  0.49944371172E-03  0.23605863164E-01  0.00000000000E+00 0.  1.
     999901    1    3    3    0    0  0.12352273183E+00 -0.73812899670E-01  0.29600654011E-01  0.89217846205E+00  0.88000000000E+00 0. -1.
        -11    1    4    4    0    0 -0.39737496272E-01  0.22083958749E-01 -0.19623431895E-01  0.49518784763E-01  0.51100000000E-03 0.  1.
         11    1    4    4    0    0 -0.60304782449E-01  0.49350779122E-01 -0.10476665827E-01  0.78626890018E-01  0.51100000000E-03 0. -1.
</event>
<event>
 8    1  0.1128298E+005  0.1043930E+01  0.7957747E-01            NaN
         13   -1    0    0    0    0  0.00000000000E+00  0.00000000000E+00  0.74505805969E-08  0.10566000000E+00  0.10566000000E+00 0.  1.
     999900   -1    0    0    0    0 -0.00000000000E+00 -0.00000000000E+00 -0.74505805969E-08  0.93827000000E+00  0.93827000000E+00 0. -1.
     999902    2    1    2    0    0 -0.14244513927E-01 -0.18789996834E-01  0.85410808107E-02  0.10188517182E+01  0.10185430297E+01 0.  0.
     999903    2    3    3    0    0 -0.84847297496E-01  0.49603960850E-01  0.83162364610E-01  0.13023997928E+00  0.19668667767E-01 0.  0.
         14    1    1    2    0    0  0.14244513927E-01  0.18789996834E-01 -0.85410808107E-02  0.25078281828E-01  0.00000000000E+00 0. -1.
     999901    1    3    3    0    0  0.70602783569E-01 -0.68393957684E-01 -0.74621283800E-01  0.88861173889E+00  0.88000000000E+00 0.  1.
        -11    1    4    4    0    0 -0.60730774549E-01  0.45198290762E-01  0.63389614057E-01  0.98740147642E-01  0.51100000000E-03 0.  1.
         11    1    4    4    0    0 -0.24116522947E-01  0.44056700888E-02  0.19772750554E-01  0.31499831641E-01  0.51100000000E-03 0. -1.
</event>
<event>
 8    1  0.1128298E+005  0.1043930E+01  0.7957747E-01            NaN
         13   -1    0    0    0    0  0.00000000000E+00  0.00000000000E+00  0.74505805969E-08  0.10566000000E+00  0.10566000000E+00 0. -1.
     999900   -1    0    0    0    0 -0.00000000000E+00 -0.00000000000E+00 -0.74505805969E-08  0.93827000000E+00  0.93827000000E+00 0.  1.
     999902    2    1    2    0    0 -0.21905146228E-01  0.64838548405E-02  0.49454845689E-02  0.10205562193E+01  0.10202885196E+01 0.  0.
     999903    2    3    3    0    0 -0.40697501659E-01  0.30978991566E-01 -0.11945590674E+00  0.13127062376E+00  0.18608558448E-01 0.  0.
         14    1    1    2    0    0  0.21905146228E-01 -0.64838548405E-02 -0.49454845689E-02  0.23373780663E-01  0.00000000000E+00 0.  1.
     999901    1    3    3    0    0  0.18792355431E-01 -0.24495136726E-01  0.12440139131E+00  0.88928559558E+00  0.88000000000E+00 0. -1.
        -11    1    4    4    0    0 -0.18601381895E-01  0.24703457659E-01 -0.77351640886E-01  0.83305520210E-01  0.51100000000E-03 0.  1.
         11    1    4    4    0    0 -0.22096119764E-01  0.62755339070E-02 -0.42104265852E-01  0.47965103548E-01  0.51100000000E-03 0. -1.
</event>
<event>
 8    1  0.1128298E+005  0.1043930E+01  0.7957747E-01            NaN
         13   -1    0    0    0    0  0.00000000000E+00  0.00000000000E+00  0.74505805969E-08  0.10566000000E+00  0.10566000000E+00 0. -1.
     999900   -1    0    0    0    0 -0.00000000000E+00 -0.00000000000E+00 -0.74505805969E-08  0.93827000000E+00  0.93827000000E+00 0.  1.
     999902    2    1    2    0    0  0.15114934815E-02  0.21928846836E-01  0.11834754572E-01  0.10189656183E+01  0.10186597621E+01 0.  0.
     999903    2    3    3    0    0  0.86077451288E-01 -0.82011706757E-01 -0.40646524019E-01  0.12727658930E+00  0.20296369222E-01 0.  0.
         14    1    1    2    0    0 -0.15114934815E-02 -0.21928846836E-01 -0.11834754572E-01  0.24964381664E-01  0.00000000000E+00 0. -1.
     999901    1    3    3    0    0 -0.84565957807E-01  0.10394055359E+00  0.52481278590E-01  0.89168902904E+00  0.88000000000E+00 0. -1.
        -11    1    4    4    0    0  0.27788909018E-01 -0.14583279498E-01 -0.12795830085E-01  0.33895278342E-01  0.51100000000E-03 0. -1.
         11    1    4    4    0    0  0.58288542270E-01 -0.67428427259E-01 -0.27850693933E-01  0.93381310958E-01  0.51100000000E-03 0.  1.
</event>
<event>
 8    1  0.1128298E+005  0.1043930E+01  0.7957747E-01            NaN
         13   -1    0    0    0    0  0.00000000000E+00  0.00000000000E+00  0.74505805969E-08  0.10566000000E+00  0.10566000000E+00 0.  1.
     999900   -1    0    0    0    0 -0.00000000000E+00 -0.00000000000E+00 -0.74505805969E-08  0.93827000000E+00  0.93827000000E+00 0.  1.
     999902    2    1    2    0    0  0.31891694384E-02  0.18532572109E-01  0.14050184969E-01  0.10204558711E+01  0.10201858410E+01 0.  0.
     999903    2    3    3    0    0 -0.34007569554E-01 -0.74235938830E-01  0.99868912260E-01  0.13065002262E+00  0.20691529017E-01 0.  0.
         14    1    1    2    0    0 -0.31891694384E-02 -0.18532572109E-01 -0.14050184969E-01  0.23474128915E-01  0.00000000000E+00 0.  1.
     999901    1    3    3    0    0  0.37196738992E-01  0.92768510938E-01 -0.85818727291E-01  0.88980584847E+00  0.88000000000E+00 0. -1.
        -11    1    4    4    0    0 -0.42528830280E-02 -0.16699732014E-01  0.10201786287E-01  0.20032614104E-01  0.51100000000E-03 0.  1.
         11    1    4    4    0    0 -0.29754686526E-01 -0.57536206815E-01  0.89667125973E-01  0.11061740851E+00  0.51100000000E-03 0. -1.
</event>
<event>
 8    1  0.1128298E+005  0.1043930E+01  0.7957747E-01            NaN
         13   -1    0    0    0    0  0.00000000000E+00  0.00000000000E+00  0.74505805969E-08  0.10566000000E+00  0.10566000000E+00 0.  1.
     999900   -1    0    0    0    0 -0.00000000000E+00 -0.00000000000E+00 -0.74505805969E-08  0.93827000000E+00  0.93827000000E+00 0. -1.
     999902    2    1    2    0    0  0.22427979713E-01  0.38668764943E-02 -0.76162982759E-02  0.10199305207E+01  0.10196481217E+01 0.  0.
     999903    2    3    3    0    0  0.72469018049E-01 -0.10502492870E+00 -0.25704241841E-01  0.13162387067E+00  0.19548428504E-01 0.  0.
         14    1    1    2    0    0 -0.22427979713E-01 -0.38668764943E-02  0.76162982759E-02  0.23999479312E-01  0.00000000000E+00 0. -1.
     999901    1    3    3    0    0 -0.50041038336E-01  0.10889180520E+00  0.18087943565E-01  0.88830665001E+00  0.88000000000E+00 0.  1.
        -11    1    4    4    0    0  0.49214610104E-01 -0.58993927225E-01 -0.22003083517E-01  0.79917195286E-01  0.51100000000E-03 0.  1.
         11    1    4    4    0    0  0.23254407945E-01 -0.46031001476E-01 -0.37011583238E-02  0.51706675388E-01  0.51100000000E-03 0. -1.
</event>
<event>
 8    1  0.1128298E+005  0.1043930E+01  0.7957747E-01            NaN
         13   -1    0    0    0    0  0.00000000000E+00  0.00000000000E+00  0.74505805969E-08  0.10566000000E+00  0.10566000000E+00 0.  1.
     999900   -1    0    0    0    0 -0.00000000000E+00 -0.00000000000E+00 -0.74505805969E-08  0.93827000000E+00  0.93827000000E+00 0.  1.
     999902    2    1    2    0    0 -0.21834675961E-01  0.40898639267E-02  0.48752212848E-02  0.10211869166E+01  0.10209336270E+01 0.  0.
     999903    2    3    3    0    0  0.95794893928E-01 -0.64154347870E-01 -0.53917546613E-01  0.12880214658E+00  0.19759784348E-01 0.  0.
         14    1    1    2    0    0  0.21834675961E-01 -0.40898639267E-02 -0.48752212848E-02  0.22743083428E-01  0.00000000000E+00 0.  1.
     999901    1    3    3    0    0 -0.11762956989E+00  0.68244211797E-01  0.58792767898E-01  0.89238476999E+00  0.88000000000E+00 0. -1.
        -11    1    4    4    0    0  0.45091474451E-01 -0.22137940445E-01 -0.31230257848E-01  0.59151666092E-01  0.51100000000E-03 0. -1.
         11    1    4    4    0    0  0.50703419478E-01 -0.42016407425E-01 -0.22687288765E-01  0.69650480488E-01  0.51100000000E-03 0.  1.
</event>
<event>
 8    1  0.1128298E+005  0.1043930E+01  0.7957747E-01            NaN
         13   -1    0    0    0    0  0.00000000000E+00  0.00000000000E+00  0.74505805969E-08  0.10566000000E+00  0.10566000000E+00 0.  1.
     999900   -1    0    0    0    0 -0.00000000000E+00 -0.00000000000E+00 -0.74505805969E-08  0.93827000000E+00  0.93827000000E+00 0. -1.
     999902    2    1    2    0    0  0.29352065672E-02 -0.19862082355E-01 -0.12894802792E-01  0.10200680283E+01  0.10197888942E+01 0.  0.
     999903    2    3    3    0    0  0.52495460189E-01  0.11322559301E+00 -0.28900188483E-01  0.12853860063E+00  0.10542424135E-01 0.  0.
         14    1    1    2    0    0 -0.29352065672E-02  0.19862082355E-01  0.12894802792E-01  0.23861971673E-01  0.00000000000E+00 0.  1.
     999901    1    3    3    0    0 -0.49560253622E-01 -0.13308767536E+00  0.16005385691E-01  0.89152942769E+00  0.88000000000E+00 0. -1.
        -11    1    4    4    0    0  0.53428289930E-02  0.11550429832E-01 -0.62805191356E-02  0.14200855346E-01  0.51100000000E-03 0. -1.
         11    1    4    4    0    0  0.47152631196E-01  0.10167516317E+00 -0.22619669348E-01  0.11433774529E+00  0.51100000000E-03 0.  1.
</event>
<event>
 8    1  0.1128298E+005  0.1043930E+01  0.7957747E-01            NaN
         13   -1    0    0    0    0  0.00000000000E+00  0.00000000000E+00  0.74505805969E-08  0.10566000000E+00  0.10566000000E+00 0. -1.
     999900   -1    0    0    0    0 -0.00000000000E+00 -0.00000000000E+00 -0.74505805969E-08  0.93827000000E+00  0.93827000000E+00 0. -1.
     999902    2    1    2    0    0 -0.44296937110E-03  0.22839289574E-02  0.23212170467E-01  0.10206015322E+01  0.10203348813E+01 0.  0.
     999903    2    3    3    0    0 -0.33515572834E-01  0.94579157273E-01 -0.79312765309E-01  0.12924101660E+00  0.18553032579E-01 0.  0.
         14    1    1    2    0    0  0.44296937110E-03 -0.22839289574E-02 -0.23212170467E-01  0.23328467826E-01  0.00000000000E+00 0.  1.
     999901    1    3    3    0    0  0.33072603463E-01 -0.92295228315E-01  0.10252493578E+00  0.89136051557E+00  0.88000000000E+00 0.  1.
        -11    1    4    4    0    0 -0.24741967873E-01  0.82472925743E-01 -0.60645578711E-01  0.10531901914E+00  0.51100000000E-03 0. -1.
         11    1    4    4    0    0 -0.87736049605E-02  0.12106231529E-01 -0.18667186598E-01  0.23921997457E-01  0.51100000000E-03 0.  1.
</event>
<event>
 8    1  0.1128298E+005  0.1043930E+01  0.7957747E-01            NaN
         13   -1    0    0    0    0  0.00000000000E+00  0.00000000000E+00  0.74505805969E-08  0.10566000000E+00  0.10566000000E+00 0. -1.
     999900   -1    0    0    0    0 -0.00000000000E+00 -0.00000000000E+00 -0.74505805969E-08  0.93827000000E+00  0.93827000000E+00 0. -1.
     999902    2    1    2    0    0  0.17361978142E-01 -0.18987170009E-02  0.16144458619E-01  0.10201458255E+01  0.10198685300E+01 0.  0.
     999903    2    3    3    0    0  0.60680919043E-01  0.54854351536E-01  0.10281464580E+00  0.13301045662E+00  0.20730565815E-01 0.  0.
         14    1    1    2    0    0 -0.17361978142E-01  0.18987170009E-02 -0.16144458619E-01  0.23784174472E-01  0.00000000000E+00 0.  1.
     999901    1    3    3    0    0 -0.43318940901E-01 -0.56753068537E-01 -0.86670187185E-01  0.88713536891E+00  0.88000000000E+00 0. -1.
        -11    1    4    4    0    0  0.83056933454E-02  0.99791269109E-02  0.30114631921E-01  0.32798165994E-01  0.51100000000E-03 0. -1.
         11    1    4    4    0    0  0.52375225697E-01  0.44875224625E-01  0.72700013883E-01  0.10021229062E+00  0.51100000000E-03 0.  1.
</event>
<event>
 8    1  0.1128298E+005  0.1043930E+01  0.7957747E-01            NaN
         13   -1    0    0    0    0  0.00000000000E+00  0.00000000000E+00  0.74505805969E-08  0.10566000000E+00  0.10566000000E+00 0. -1.
     999900   -1    0    0    0    0 -0.00000000000E+00 -0.00000000000E+00 -0.74505805969E-08  0.93827000000E+00  0.93827000000E+00 0. -1.
     999902    2    1    2    0    0 -0.16505860325E-02 -0.71470225349E-02  0.21834236184E-01  0.10208965844E+01  0.10206367119E+01 0.  0.
     999903    2    3    3    0    0  0.12076479779E+00 -0.40388613421E-01  0.26876438746E-01  0.13178694358E+00  0.20738347533E-01 0.  0.
         14    1    1    2    0    0  0.16505860325E-02  0.71470225349E-02 -0.21834236184E-01  0.23033415619E-01  0.00000000000E+00 0.  1.
     999901    1    3    3    0    0 -0.12241538382E+00  0.33241590886E-01 -0.50422025627E-02  0.88910964080E+00  0.88000000000E+00 0. -1.
        -11    1    4    4    0    0  0.70558250839E-01 -0.27955955914E-01  0.25422364510E-01  0.80040989316E-01  0.51100000000E-03 0. -1.
         11    1    4    4    0    0  0.50206546952E-01 -0.12432657508E-01  0.14540742361E-02  0.51745954262E-01  0.51100000000E-03 0.  1.
</event>
<event>
 8    1  0.1128298E+005  0.1043930E+01  0.7957747E-01            NaN
         13   -1    0    0    0    0  0.00000000000E+00  0.00000000000E+00  0.74505805969E-08  0.10566000000E+00  0.10566000000E+00 0. -1.
     999900   -1    0    0    0    0 -0.00000000000E+00 -0.00000000000E+00 -0.74505805969E-08  0.93827000000E+00  0.93827000000E+00 0.  1.
     999902    2    1    2    0    0  0.15708139850E-01  0.24169651713E-01  0.10015563958E-01  0.10134139511E+01  0.10129543953E+01 0.  0.
     999903    2    3    3    0    0  0.11907949159E+00  0.40218075337E-01  0.11182496034E-01  0.12721727425E+00  0.16179238206E-01 0.  0.
         14    1    1    2    0    0 -0.15708139850E-01 -0.24169651713E-01 -0.10015563958E-01  0.30516048939E-01  0.00000000000E+00 0. -1.
     999901    1    3    3    0    0 -0.10337135174E+00 -0.16048423624E-01 -0.11669320760E-02  0.88619667681E+00  0.88000000000E+00 0.  1.
        -11    1    4    4    0    0  0.39612366587E-01  0.21308886012E-01  0.57560270989E-02  0.45349764924E-01  0.51100000000E-03 0. -1.
         11    1    4    4    0    0  0.79467125002E-01  0.18909189325E-01  0.54264689353E-02  0.81867509325E-01  0.51100000000E-03 0.  1.
</event>
<event>
 8    1  0.1128298E+005  0.1043930E+01  0.7957747E-01            NaN
         13   -1    0    0    0    0  0.00000000000E+00  0.00000000000E+00  0.74505805969E-08  0.10566000000E+00  0.10566000000E+00 0. -1.
     999900   -1    0    0    0    0 -0.00000000000E+00 -0.00000000000E+00 -0.74505805969E-08  0.93827000000E+00  0.93827000000E+00 0.  1.
     999902    2    1    2    0    0 -0.27409027808E-03 -0.20569382667E-01  0.92727751598E-02  0.10213654484E+01  0.10211161639E+01 0.  0.
     999903    2    3    3    0    0 -0.42420944440E-01  0.11626359376E+00  0.32447013064E-01  0.12949288687E+00  0.19970962211E-01 0.  0.
         14    1    1    2    0    0  0.27409027808E-03  0.20569382667E-01 -0.92727751598E-02  0.22564551579E-01  0.00000000000E+00 0. -1.
     999901    1    3    3    0    0  0.42146854162E-01 -0.13683297642E+00 -0.23174237904E-01  0.89187256156E+00  0.88000000000E+00 0.  1.
        -11    1    4    4    0    0 -0.33864362659E-01  0.64427121854E-01  0.20346328031E-01  0.75577002282E-01  0.51100000000E-03 0.  1.
         11    1    4    4    0    0 -0.85565817805E-02  0.51836471903E-01  0.12100685034E-01  0.53915884584E-01  0.51100000000E-03 0. -1.
</event>
<event>
 8    1  0.1128298E+005  0.1043930E+01  0.7957747E-01            NaN
         13   -1    0    0    0    0  0.00000000000E+00  0.00000000000E+00  0.74505805969E-08  0.10566000000E+00  0.10566000000E+00 0. -1.
     999900   -1    0    0    0    0 -0.00000000000E+00 -0.00000000000E+00 -0.74505805969E-08  0.93827000000E+00  0.93827000000E+00 0. -1.
     999902    2    1    2    0    0  0.13172737349E-01  0.18699380686E-01 -0.58252331665E-02  0.10203265852E+01  0.10200535375E+01 0.  0.
     999903    2    3    3    0    0  0.31005565349E-01  0.12680674533E+00 -0.22382707099E-01  0.13337711543E+00  0.15721755580E-01 0.  0.
         14    1    1    2    0    0 -0.13172737349E-01 -0.18699380686E-01  0.58252331665E-02  0.23603414769E-01  0.00000000000E+00 0.  1.
     999901    1    3    3    0    0 -0.17832828000E-01 -0.10810736464E+00  0.16557473933E-01  0.88694946981E+00  0.88000000000E+00 0.  1.
        -11    1    4    4    0    0  0.31856529108E-01  0.11007341637E+00 -0.17519803297E-01  0.11592325076E+00  0.51100000000E-03 0. -1.
         11    1    4    4    0    0 -0.85096375865E-03  0.16733328961E-01 -0.48629038019E-02  0.17453864667E-01  0.51100000000E-03 0.  1.
</event>
<event>
 8    1  0.1128298E+005  0.1043930E+01  0.7957747E-01            NaN
         13   -1    0    0    0    0  0.00000000000E+00  0.00000000000E+00  0.74505805969E-08  0.10566000000E+00  0.10566000000E+00 0.  1.
     999900   -1    0    0    0    0 -0.00000000000E+00 -0.00000000000E+00 -0.74505805969E-08  0.93827000000E+00  0.93827000000E+00 0.  1.
     999902    2    1    2    0    0  0.12404998215E-01  0.25361314861E-02 -0.19435597642E-01  0.10207339141E+01  0.10204703156E+01 0.  0.
     999903    2    3    3    0    0 -0.11417926454E+00 -0.57346506021E-01 -0.83899722501E-02  0.12959334627E+00  0.19962904582E-01 0.  0.
         14    1    1    2    0    0 -0.12404998215E-01 -0.25361314861E-02  0.19435597642E-01  0.23196085862E-01  0.00000000000E+00 0.  1.
     999901    1    3    3    0    0  0.12658426276E+00  0.59882637508E-01 -0.11045625392E-01  0.89114056786E+00  0.88000000000E+00 0.  1.
        -11    1    4    4    0    0 -0.55779069617E-01 -0.17520777960E-01 -0.70484890126E-02  0.58891634262E-01  0.51100000000E-03 0. -1.
         11    1    4    4    0    0 -0.58400194927E-01 -0.39825728061E-01 -0.13414832374E-02  0.70701712012E-01  0.51100000000E-03 0.  1.
</event>
<event>
 8    1  0.1128298E+005  0.1043930E+01  0.7957747E-01            NaN
         13   -1    0    0    0    0  0.00000000000E+00  0.00000000000E+00  0.74505805969E-08  0.10566000000E+00  0.10566000000E+00 0.  1.
     999900   -1    0    0    0    0 -0.00000000000E+00 -0.00000000000E+00 -0.74505805969E-08  0.93827000000E+00  0.93827000000E+00 0.  1.
     999902    2    1    2    0    0 -0.18025495161E-01 -0.14626277116E-01  0.50721141342E-02  0.10201692593E+01  0.10198925163E+01 0.  0.
     999903    2    3    3    0    0  0.22165131682E-01  0.10686273435E+00  0.65546534152E-01  0.12886009750E+00  0.19940901013E-01 0.  0.
         14    1    1    2    0    0  0.18025495161E-01  0.14626277116E-01 -0.50721141342E-02  0.23760740726E-01  0.00000000000E+00 0.  1.
     999901    1    3    3    0    0 -0.40190626843E-01 -0.12148901146E+00 -0.60474420018E-01  0.89130916178E+00  0.88000000000E+00 0.  1.
        -11    1    4    4    0    0  0.94316162402E-02  0.47322102130E-01  0.40583379157E-01  0.63052426755E-01  0.51100000000E-03 0.  1.
         11    1    4    4    0    0  0.12733515442E-01  0.59540632215E-01  0.24963154995E-01  0.65807670741E-01  0.51100000000E-03 0. -1.
</event>
<event>
 8    1  0.1128298E+005  0.1043930E+01  0.7957747E-01            NaN
         13   -1    0    0    0    0  0.00000000000E+00  0.00000000000E+00  0.74505805969E-08  0.10566000000E+00  0.10566000000E+00 0. -1.
     999900   -1    0    0    0    0 -0.00000000000E+00 -0.00000000000E+00 -0.74505805969E-08  0.93827000000E+00  0.93827000000E+00 0. -1.
     999902    2    1    2    0    0  0.20576715313E-01 -0.13269858250E-01 -0.95206314821E-03  0.10194270048E+01  0.10191324847E+01 0.  0.
     999903    2    3    3    0    0 -0.17826950921E-01 -0.24967502705E-01  0.12440699940E+00  0.12963682106E+00  0.19683178180E-01 0.  0.
         14    1    1    2    0    0 -0.20576715313E-01  0.13269858250E-01  0.95206314821E-03  0.24502995231E-01  0.00000000000E+00 0.  1.
     999901    1    3    3    0    0  0.38403666235E-01  0.11697644455E-01 -0.12535906255E+00  0.88979018371E+00  0.88000000000E+00 0. -1.
        -11    1    4    4    0    0 -0.35806415205E-02 -0.59133383106E-02  0.70331091933E-02  0.98749333972E-02  0.51100000000E-03 0.  1.
         11    1    4    4    0    0 -0.14246309401E-01 -0.19054164394E-01  0.11737389021E+00  0.11976188766E+00  0.51100000000E-03 0. -1.
</event>
<event>
 8    1  0.1128298E+005  0.1043930E+01  0.7957747E-01            NaN
         13   -1    0    0    0    0  0.00000000000E+00  0.00000000000E+00  0.74505805969E-08  0.10566000000E+00  0.10566000000E+00 0. -1.
     999900   -1    0    0    0    0 -0.00000000000E+00 -0.00000000000E+00 -0.74505805969E-08  0.93827000000E+00  0.93827000000E+00 0.  1.
     999902    2    1    2    0    0  0.43961825261E-02  0.17800133826E-01 -0.11555610170E-01  0.10222573603E+01  0.10220275962E+01 0.  0.
     999903    2    3    3    0    0 -0.12562817091E+00 -0.50276712171E-03 -0.35218935707E-01  0.13220046232E+00  0.21304898582E-01 0.  0.
         14    1    1    2    0    0 -0.43961825261E-02 -0.17800133826E-01  0.11555610170E-01  0.21672639697E-01  0.00000000000E+00 0. -1.
     999901    1    3    3    0    0  0.13002435344E+00  0.18302900948E-01  0.23663325537E-01  0.89005689798E+00  0.88000000000E+00 0.  1.
        -11    1    4    4    0    0 -0.89056388766E-01  0.55539868136E-02 -0.16780726697E-01  0.90795049750E-01  0.51100000000E-03 0. -1.
         11    1    4    4    0    0 -0.36571782148E-01 -0.60567539353E-02 -0.18438209010E-01  0.41405412571E-01  0.51100000000E-03 0.  1.
</event>
<event>
 8    1  0.1128298E+005  0.1043930E+01  0.7957747E-01            NaN
         13   -1    0    0    0    0  0.00000000000E+00  0.00000000000E+00  0.74505805969E-08  0.10566000000E+00  0.10566000000E+00 0. -1.
     999900   -1    0    0    0    0 -0.00000000000E+00 -0.00000000000E+00 -0.74505805969E-08  0.93827000000E+00  0.93827000000E+00 0. -1.
     999902    2    1    2    0    0  0.29503297805E-02 -0.19223868361E-01  0.17692432032E-01  0.10176377252E+01  0.10172980174E+01 0.  0.
     999903    2    3    3    0    0  0.50989780773E-01  0.26950728335E-01 -0.11012096856E+00  0.12591122704E+00  0.20017739075E-01 0.  0.
         14    1    1    2    0    0 -0.29503297805E-02  0.19223868361E-01 -0.17692432032E-01  0.26292274755E-01  0.00000000000E+00 0.  1.
     999901    1    3    3    0    0 -0.48039450993E-01 -0.46174596696E-01  0.12781340059E+00  0.89172649821E+00  0.88000000000E+00 0.  1.
        -11    1    4    4    0    0  0.34892766312E-01  0.13742796975E-01 -0.51570251893E-01  0.63766147844E-01  0.51100000000E-03 0. -1.
         11    1    4    4    0    0  0.16097014462E-01  0.13207931360E-01 -0.58550716664E-01  0.62145079196E-01  0.51100000000E-03 0.  1.
</event>
<event>
 8    1  0.1128298E+005  0.1043930E+01  0.7957747E-01            NaN
         13   -1    0    0    0    0  0.00000000000E+00  0.00000000000E+00  0.74505805969E-08  0.10566000000E+00  0.10566000000E+00 0.  1.
     999900   -1    0    0    0    0 -0.00000000000E+00 -0.00000000000E+00 -0.74505805969E-08  0.93827000000E+00  0.93827000000E+00 0.  1.
     999902    2    1    2    0    0 -0.34381671027E-02  0.22898268099E-01  0.28795839965E-02  0.10205966831E+01  0.10203299201E+01 0.  0.
     999903    2    3    3    0    0  0.10428797106E+00 -0.62297230013E-01  0.39426305602E-01  0.12919393649E+00  0.19486248463E-01 0.  0.
         14    1    1    2    0    0  0.34381671027E-02 -0.22898268099E-01 -0.28795839965E-02  0.23333316930E-01  0.00000000000E+00 0. -1.
     999901    1    3    3    0    0 -0.10772613816E+00  0.85195498112E-01 -0.36546721606E-01  0.89140274658E+00  0.88000000000E+00 0.  1.
        -11    1    4    4    0    0  0.22716575948E-01 -0.23526628395E-01  0.99522447633E-02  0.34188497529E-01  0.51100000000E-03 0.  1.
         11    1    4    4    0    0  0.81571395109E-01 -0.38770601617E-01  0.29474060839E-01  0.95005438966E-01  0.51100000000E-03 0. -1.
</event>
<event>
 8    1  0.1128298E+005  0.1043930E+01  0.7957747E-01            NaN
         13   -1    0    0    0    0  0.00000000000E+00  0.00000000000E+00  0.74505805969E-08  0.10566000000E+00  0.10566000000E+00 0.  1.
     999900   -1    0    0    0    0 -0.00000000000E+00 -0.00000000000E+00 -0.74505805969E-08  0.93827000000E+00  0.93827000000E+00 0. -1.
     999902    2    1    2    0    0  0.18118873578E-01 -0.10907017942E-01  0.15816039063E-01  0.10175215977E+01  0.10171788427E+01 0.  0.
     999903    2    3    3    0    0  0.12399766233E+00 -0.36931402270E-02 -0.33941895256E-01  0.12975011249E+00  0.17145841713E-01 0.  0.
         14    1    1    2    0    0 -0.18118873578E-01  0.10907017942E-01 -0.15816039063E-01  0.26408402295E-01  0.00000000000E+00 0. -1.
     999901    1    3    3    0    0 -0.10587878875E+00 -0.72138777150E-02  0.49757934320E-01  0.88777148522E+00  0.88000000000E+00 0. -1.
        -11    1    4    4    0    0  0.65583319449E-01  0.99695908587E-03 -0.96016111255E-02  0.66291913342E-01  0.51100000000E-03 0. -1.
         11    1    4    4    0    0  0.58414342883E-01 -0.46900993128E-02 -0.24340284131E-01  0.63458199144E-01  0.51100000000E-03 0.  1.
</event>
<event>
 8    1  0.1128298E+005  0.1043930E+01  0.7957747E-01            NaN
         13   -1    0    0    0    0  0.00000000000E+00  0.00000000000E+00  0.74505805969E-08  0.10566000000E+00  0.10566000000E+00 0.  1.
     999900   -1    0    0    0    0 -0.00000000000E+00 -0.00000000000E+00 -0.74505805969E-08  0.93827000000E+00  0.93827000000E+00 0. -1.
     999902    2    1    2    0    0  0.13126811131E-01 -0.13705581640E-01  0.14158620779E-01  0.10202525280E+01  0.10199777440E+01 0.  0.
     999903    2    3    3    0    0  0.38213097936E-01  0.11811999432E+00 -0.27969122723E-01  0.12908360403E+00  0.21627091596E-01 0.  0.
         14    1    1    2    0    0 -0.13126811131E-01  0.13705581640E-01 -0.14158620779E-01  0.23677472013E-01  0.00000000000E+00 0. -1.
     999901    1    3    3    0    0 -0.25086286805E-01 -0.13182557596E+00  0.42127743503E-01  0.89116892396E+00  0.88000000000E+00 0.  1.
        -11    1    4    4    0    0  0.16592220519E-01  0.62978850160E-01 -0.25049925711E-01  0.69781066547E-01  0.51100000000E-03 0.  1.
         11    1    4    4    0    0  0.21620877417E-01  0.55141144157E-01 -0.29191970123E-02  0.59302537479E-01  0.51100000000E-03 0. -1.
</event>
<event>
 8    1  0.1128298E+005  0.1043930E+01  0.7957747E-01            NaN
         13   -1    0    0    0    0  0.00000000000E+00  0.00000000000E+00  0.74505805969E-08  0.10566000000E+00  0.10566000000E+00 0.  1.
     999900   -1    0    0    0    0 -0.00000000000E+00 -0.00000000000E+00 -0.74505805969E-08  0.93827000000E+00  0.93827000000E+00 0. -1.
     999902    2    1    2    0    0 -0.12590039146E-01 -0.15810885752E-01 -0.13839726199E-01  0.10194344654E+01  0.10191401268E+01 0.  0.
     999903    2    3    3    0    0 -0.85578501593E-01  0.94183122210E-01 -0.13993312934E-01  0.12958839949E+00  0.20079841390E-01 0.  0.
         14    1    1    2    0    0  0.12590039146E-01  0.15810885752E-01  0.13839726199E-01  0.24495534598E-01  0.00000000000E+00 0.  1.
     999901    1    3    3    0    0  0.72988462447E-01 -0.10999400796E+00  0.15358673424E-03  0.88984606592E+00  0.88000000000E+00 0. -1.
        -11    1    4    4    0    0 -0.41011373098E-01  0.58014664996E-01 -0.12700826164E-01  0.72174830684E-01  0.51100000000E-03 0. -1.
         11    1    4    4    0    0 -0.44567128495E-01  0.36168457215E-01 -0.12924867698E-02  0.57413568802E-01  0.51100000000E-03 0.  1.
</event>
<event>
 8    1  0.1128298E+005  0.1043930E+01  0.7957747E-01            NaN
         13   -1    0    0    0    0  0.00000000000E+00  0.00000000000E+00  0.74505805969E-08  0.10566000000E+00  0.10566000000E+00 0.  1.
     999900   -1    0    0    0    0 -0.00000000000E+00 -0.00000000000E+00 -0.74505805969E-08  0.93827000000E+00  0.93827000000E+00 0. -1.
     999902    2    1    2    0    0  0.20688610017E-01  0.71598874702E-02 -0.61196807895E-02  0.10211982366E+01  0.10209452020E+01 0.  0.
     999903    2    3    3    0    0  0.27996458506E-01 -0.15811578876E-01  0.12551998071E+00  0.13108021446E+00  0.19822950057E-01 0.  0.
         14    1    1    2    0    0 -0.20688610017E-01 -0.71598874702E-02  0.61196807895E-02  0.22731763372E-01  0.00000000000E+00 0.  1.
     999901    1    3    3    0    0 -0.73078484892E-02  0.22971466347E-01 -0.13163966150E+00  0.89011802217E+00  0.88000000000E+00 0. -1.
        -11    1    4    4    0    0  0.13574552719E-01 -0.16091223446E-01  0.95182519513E-01  0.97484199209E-01  0.51100000000E-03 0.  1.
         11    1    4    4    0    0  0.14421905787E-01  0.27964457000E-03  0.30337461197E-01  0.33596015247E-01  0.51100000000E-03 0. -1.
</event>
<event>
 8    1  0.1128298E+005  0.1043930E+01  0.7957747E-01            NaN
         13   -1    0    0    0    0  0.00000000000E+00  0.00000000000E+00  0.74505805969E-08  0.10566000000E+00  0.10566000000E+00 0. -1.
     999900   -1    0    0    0    0 -0.00000000000E+00 -0.00000000000E+00 -0.74505805969E-08  0.93827000000E+00  0.93827000000E+00 0. -1.
     999902    2    1    2    0    0  0.56940583571E-02 -0.15801752958E-01  0.15675132667E-01  0.10209555037E+01  0.10206969741E+01 0.  0.
     999903    2    3    3    0    0 -0.33099328501E-01  0.12245901703E+00  0.17494686492E-01  0.12931416426E+00  0.18008681909E-01 0.  0.
         14    1    1    2    0    0 -0.56940583571E-02  0.15801752958E-01 -0.15675132667E-01  0.22974496322E-01  0.00000000000E+00 0.  1.
     999901    1    3    3    0    0  0.38793386858E-01 -0.13826076999E+00 -0.18195538248E-02  0.89164133942E+00  0.88000000000E+00 0. -1.
        -11    1    4    4    0    0 -0.19456888489E-01  0.45503067145E-01  0.13661370928E-02  0.49509868519E-01  0.51100000000E-03 0. -1.
         11    1    4    4    0    0 -0.13642440012E-01  0.76955949884E-01  0.16128549399E-01  0.79804295741E-01  0.51100000000E-03 0.  1.
</event>
<event>
 8    1  0.1128298E+005  0.1043930E+01  0.7957747E-01            NaN
         13   -1    0    0    0    0  0.00000000000E+00  0.00000000000E+00  0.74505805969E-08  0.10566000000E+00  0.10566000000E+00 0. -1.
     999900   -1    0    0    0    0 -0.00000000000E+00 -0.00000000000E+00 -0.74505805969E-08  0.93827000000E+00  0.93827000000E+00 0. -1.
     999902    2    1    2    0    0  0.81227879511E-02  0.14023761325E-01 -0.16258636171E-01  0.10209737630E+01  0.10207156489E+01 0.  0.
     999903    2    3    3    0    0 -0.74522574008E-01 -0.10057144079E+00  0.23769402292E-01  0.12880530356E+00  0.18910129590E-01 0.  0.
         14    1    1    2    0    0 -0.81227879511E-02 -0.14023761325E-01  0.16258636171E-01  0.22956236973E-01  0.00000000000E+00 0. -1.
     999901    1    3    3    0    0  0.82645361960E-01  0.11459520211E+00 -0.40028038463E-01  0.89216845947E+00  0.88000000000E+00 0. -1.
        -11    1    4    4    0    0 -0.29731578969E-01 -0.27497058158E-01  0.12319226926E-01  0.42332959598E-01  0.51100000000E-03 0.  1.
         11    1    4    4    0    0 -0.44790995039E-01 -0.73074382632E-01  0.11450175366E-01  0.86472343964E-01  0.51100000000E-03 0. -1.
</event>
<event>
 8    1  0.1128298E+005  0.1043930E+01  0.7957747E-01            NaN
         13   -1    0    0    0    0  0.00000000000E+00  0.00000000000E+00  0.74505805969E-08  0.10566000000E+00  0.10566000000E+00 0.  1.
     999900   -1    0    0    0    0 -0.00000000000E+00 -0.00000000000E+00 -0.74505805969E-08  0.93827000000E+00  0.93827000000E+00 0. -1.
     999902    2    1    2    0    0  0.23752833760E-02 -0.21320375224E-01  0.58304937774E-03  0.10224697969E+01  0.10222445623E+01 0.  0.
     999903    2    3    3    0    0  0.41327565656E-02  0.12116446746E+00 -0.42188901900E-01  0.12998200486E+00  0.20433068636E-01 0.  0.
         14    1    1    2    0    0 -0.23752833760E-02  0.21320375224E-01 -0.58304937774E-03  0.21460203106E-01  0.00000000000E+00 0.  1.
     999901    1    3    3    0    0 -0.17574731896E-02 -0.14248484268E+00  0.42771951278E-01  0.89248779203E+00  0.88000000000E+00 0.  1.
        -11    1    4    4    0    0  0.11901327477E-01  0.91643096526E-01 -0.31682361481E-01  0.97694072934E-01  0.51100000000E-03 0. -1.
         11    1    4    4    0    0 -0.77685709118E-02  0.29521370932E-01 -0.10506540419E-01  0.32287931930E-01  0.51100000000E-03 0.  1.
</event>
<event>
 8    1  0.1128298E+005  0.1043930E+01  0.7957747E-01            NaN
         13   -1    0    0    0    0  0.00000000000E+00  0.00000000000E+00  0.74505805969E-08  0.10566000000E+00  0.10566000000E+00 0. -1.
     999900   -1    0    0    0    0 -0.00000000000E+00 -0.00000000000E+00 -0.74505805969E-08  0.93827000000E+00  0.93827000000E+00 0.  1.
     999902    2    1    2    0    0 -0.68921706305E-02 -0.11319496227E-01 -0.21670826409E-01  0.10185280763E+01  0.10182112671E+01 0.  0.
     999903    2    3    3    0    0  0.71844933122E-01  0.10160648808E+00  0.15706923777E-01  0.12704116913E+00  0.20178661110E-01 0.  0.
         14    1    1    2    0    0  0.68921706305E-02  0.11319496227E-01  0.21670826409E-01  0.25401923708E-01  0.00000000000E+00 0.  1.
     999901    1    3    3    0    0 -0.78737103753E-01 -0.11292598430E+00 -0.37377750186E-01  0.89148690717E+00  0.88000000000E+00 0. -1.
        -11    1    4    4    0    0  0.35043842374E-02  0.75655874207E-02 -0.37781918338E-02  0.91681337488E-02  0.51100000000E-03 0. -1.
         11    1    4    4    0    0  0.68340548885E-01  0.94040900654E-01  0.19485115610E-01  0.11787303538E+00  0.51100000000E-03 0.  1.
</event>
<event>
 8    1  0.1128298E+005  0.1043930E+01  0.7957747E-01            NaN
         13   -1    0    0    0    0  0.00000000000E+00  0.00000000000E+00  0.74505805969E-08  0.10566000000E+00  0.10566000000E+00 0. -1.
     999900   -1    0    0    0    0 -0.00000000000E+00 -0.00000000000E+00 -0.74505805969E-08  0.93827000000E+00  0.93827000000E+00 0. -1.
     999902    2    1    2    0    0 -0.53534507012E-02  0.21440707998E-01  0.31555352452E-02  0.10216068999E+01  0.10213629801E+01 0.  0.
     999903    2    3    3    0    0 -0.44737810889E-01  0.11853403764E+00 -0.40138717413E-01  0.13433431792E+00  0.19565340039E-01 0.  0.
         14    1    1    2    0    0  0.53534507012E-02 -0.21440707998E-01 -0.31555352452E-02  0.22323100066E-01  0.00000000000E+00 0.  1.
     999901    1    3    3    0    0  0.39384360188E-01 -0.97093329646E-01  0.43294252659E-01  0.88727258202E+00  0.88000000000E+00 0. -1.
        -11    1    4    4    0    0 -0.23296364371E-01  0.81577057196E-01 -0.20357329830E-01  0.87248030651E-01  0.51100000000E-03 0. -1.
         11    1    4    4    0    0 -0.21441446518E-01  0.36956980448E-01 -0.19781387584E-01  0.47086287265E-01  0.51100000000E-03 0.  1.
</event>
<event>
 8    1  0.1128298E+005  0.1043930E+01  0.7957747E-01            NaN
         13   -1    0    0    0    0  0.00000000000E+00  0.00000000000E+00  0.74505805969E-08  0.10566000000E+00  0.10566000000E+00 0.  1.
     999900   -1    0    0    0    0 -0.00000000000E+00 -0.00000000000E+00 -0.74505805969E-08  0.93827000000E+00  0.93827000000E+00 0. -1.
     999902    2    1    2    0    0  0.20818016062E-01  0.10516807366E-01  0.50796708444E-02  0.10200595981E+01  0.10197802644E+01 0.  0.
     999903    2    3    3    0    0 -0.36407742108E-01  0.38755832071E-01 -0.11627897946E+00  0.12944174971E+00  0.20169960293E-01 0.  0.
         14    1    1    2    0    0 -0.20818016062E-01 -0.10516807366E-01 -0.50796708444E-02  0.23870401878E-01  0.00000000000E+00 0.  1.
     999901    1    3    3    0    0  0.57225758170E-01 -0.28239024705E-01  0.12135865030E+00  0.89061784842E+00  0.88000000000E+00 0.  1.
        -11    1    4    4    0    0 -0.10475615883E-01  0.21173609728E-01 -0.66995665641E-01  0.71040415348E-01  0.51100000000E-03 0.  1.
         11    1    4    4    0    0 -0.25932126225E-01  0.17582222342E-01 -0.49283313817E-01  0.58401334358E-01  0.51100000000E-03 0. -1.
</event>
<event>
 8    1  0.1128298E+005  0.1043930E+01  0.7957747E-01            NaN
         13   -1    0    0    0    0  0.00000000000E+00  0.00000000000E+00  0.74505805969E-08  0.10566000000E+00  0.10566000000E+00 0. -1.
     999900   -1    0    0    0    0 -0.00000000000E+00 -0.00000000000E+00 -0.74505805969E-08  0.93827000000E+00  0.93827000000E+00 0.  1.
     999902    2    1    2    0    0  0.19812355458E-01 -0.10923934117E-02 -0.11950246180E-01  0.10207668582E+01  0.10205040165E+01 0.  0.
     999903    2    3    3    0    0 -0.55480634256E-01  0.11562439505E+00 -0.13866729042E-01  0.12987095192E+00  0.15069056649E-01 0.  0.
         14    1    1    2    0    0 -0.19812355458E-01  0.10923934117E-02  0.11950246180E-01  0.23163141754E-01  0.00000000000E+00 0. -1.
     999901    1    3    3    0    0  0.75292989714E-01 -0.11671678846E+00  0.19164828626E-02  0.89089590633E+00  0.88000000000E+00 0.  1.
        -11    1    4    4    0    0 -0.35495640346E-01  0.59837438031E-01 -0.31322945386E-02  0.69645759841E-01  0.51100000000E-03 0.  1.
         11    1    4    4    0    0 -0.19984993910E-01  0.55786957022E-01 -0.10734434504E-01  0.60225192075E-01  0.51100000000E-03 0. -1.
</event>
<event>
 8    1  0.1128298E+005  0.1043930E+01  0.7957747E-01            NaN
         13   -1    0    0    0    0  0.00000000000E+00  0.00000000000E+00  0.74505805969E-08  0.10566000000E+00  0.10566000000E+00 0. -1.
     999900   -1    0    0    0    0 -0.00000000000E+00 -0.00000000000E+00 -0.74505805969E-08  0.93827000000E+00  0.93827000000E+00 0. -1.
     999902    2    1    2    0    0  0.10371849021E-01  0.37143304879E-02 -0.20948290465E-01  0.10202614053E+01  0.10199868297E+01 0.  0.
     999903    2    3    3    0    0  0.86872468226E-01 -0.67264982247E-01  0.65954757958E-01  0.12984434153E+00  0.20931300905E-01 0.  0.
         14    1    1    2    0    0 -0.10371849021E-01 -0.37143304879E-02  0.20948290465E-01  0.23668594730E-01  0.00000000000E+00 0. -1.
     999901    1    3    3    0    0 -0.76500619205E-01  0.70979312735E-01 -0.86903048423E-01  0.89041706374E+00  0.88000000000E+00 0. -1.
        -11    1    4    4    0    0  0.51650350729E-01 -0.34017389291E-01  0.47601999654E-01  0.78045839074E-01  0.51100000000E-03 0. -1.
         11    1    4    4    0    0  0.35222117496E-01 -0.33247592956E-01  0.18352758303E-01  0.51798502455E-01  0.51100000000E-03 0.  1.
</event>
<event>
 8    1  0.1128298E+005  0.1043930E+01  0.7957747E-01            NaN
         13   -1    0    0    0    0  0.00000000000E+00  0.00000000000E+00  0.74505805969E-08  0.10566000000E+00  0.10566000000E+00 0. -1.
     999900   -1    0    0    0    0 -0.00000000000E+00 -0.00000000000E+00 -0.74505805969E-08  0.93827000000E+00  0.93827000000E+00 0.  1.
     999902    2    1    2    0    0  0.16515899714E-01  0.84453414740E-02  0.11271461550E-01  0.10222241349E+01  0.10219936582E+01 0.  0.
     999903    2    3    3    0    0 -0.91198180385E-01 -0.99031535765E-02  0.92362226037E-01  0.13176655451E+00  0.20407438151E-01 0.  0.
         14    1    1    2    0    0 -0.16515899714E-01 -0.84453414740E-02 -0.11271461550E-01  0.21705865140E-01  0.00000000000E+00 0.  1.
     999901    1    3    3    0    0  0.10771408010E+00  0.18348495051E-01 -0.81090764488E-01  0.89045758035E+00  0.88000000000E+00 0.  1.
        -11    1    4    4    0    0 -0.28693475070E-01  0.55069933640E-02  0.34440285623E-01  0.45166767454E-01  0.51100000000E-03 0. -1.
         11    1    4    4    0    0 -0.62504705315E-01 -0.15410146941E-01  0.57921940415E-01  0.86599787053E-01  0.51100000000E-03 0.  1.
</event>
<event>
 8    1  0.1128298E+005  0.1043930E+01  0.7957747E-01            NaN
         13   -1    0    0    0    0  0.00000000000E+00  0.00000000000E+00  0.74505805969E-08  0.10566000000E+00  0.10566000000E+00 0.  1.
     999900   -1    0    0    0    0 -0.00000000000E+00 -0.00000000000E+00 -0.74505805969E-08  0.93827000000E+00  0.93827000000E+00 0. -1.
     999902    2    1    2    0    0 -0.20453315396E-01  0.73299243142E-02 -0.79537892215E-02  0.10207928294E+01  0.10205305835E+01 0.  0.
     999903    2    3    3    0    0 -0.37185250478E-01  0.10989809091E+00 -0.61932691124E-01  0.13303503116E+00  0.20058116756E-01 0.  0.
         14    1    1    2    0    0  0.20453315396E-01 -0.73299243142E-02  0.79537892215E-02  0.23137170616E-01  0.00000000000E+00 0.  1.
     999901    1    3    3    0    0  0.16731935082E-01 -0.10256816660E+00  0.53978901903E-01  0.88775779822E+00  0.88000000000E+00 0. -1.
        -11    1    4    4    0    0 -0.27811160626E-01  0.97823758299E-01 -0.48478100446E-01  0.11266470471E+00  0.51100000000E-03 0. -1.
         11    1    4    4    0    0 -0.93740898517E-02  0.12074332611E-01 -0.13454590679E-01  0.20370326455E-01  0.51100000000E-03 0.  1.
</event>
<event>
 8    1  0.1128298E+005  0.1043930E+01  0.7957747E-01            NaN
         13   -1    0    0    0    0  0.00000000000E+00  0.00000000000E+00  0.74505805969E-08  0.10566000000E+00  0.10566000000E+00 0.  1.
     999900   -1    0    0    0    0 -0.00000000000E+00 -0.00000000000E+00 -0.74505805969E-08  0.93827000000E+00  0.93827000000E+00 0. -1.
     999902    2    1    2    0    0  0.30259718428E-02 -0.22637592771E-01 -0.88412753963E-02  0.10194394863E+01  0.10191452698E+01 0.  0.
     999903    2    3    3    0    0  0.12048717486E-01  0.28116757190E-01 -0.12509114655E+00  0.13029863887E+00  0.19854891556E-01 0.  0.
         14    1    1    2    0    0 -0.30259718428E-02  0.22637592771E-01  0.88412753963E-02  0.24490513729E-01  0.00000000000E+00 0. -1.
     999901    1    3    3    0    0 -0.90227456433E-02 -0.50754349961E-01  0.11624987115E+00  0.88914084740E+00  0.88000000000E+00 0.  1.
        -11    1    4    4    0    0  0.78945780115E-02  0.16942594040E-02 -0.48493839072E-01  0.49164096918E-01  0.51100000000E-03 0.  1.
         11    1    4    4    0    0  0.41541394747E-02  0.26422497786E-01 -0.76597307474E-01  0.81134541949E-01  0.51100000000E-03 0. -1.
</event>
<event>
 8    1  0.1128298E+005  0.1043930E+01  0.7957747E-01            NaN
         13   -1    0    0    0    0  0.00000000000E+00  0.00000000000E+00  0.74505805969E-08  0.10566000000E+00  0.10566000000E+00 0. -1.
     999900   -1    0    0    0    0 -0.00000000000E+00 -0.00000000000E+00 -0.74505805969E-08  0.93827000000E+00  0.93827000000E+00 0. -1.
     999902    2    1    2    0    0  0.58767011626E-02 -0.20769982607E-01 -0.11755085971E-01  0.10193513540E+01  0.10190549902E+01 0.  0.
     999903    2    3    3    0    0 -0.11561399661E+00  0.48483501280E-01  0.15180084780E-01  0.12790223143E+00  0.20280525665E-01 0.  0.
         14    1    1    2    0    0 -0.58767011626E-02  0.20769982607E-01  0.11755085971E-01  0.24578646021E-01  0.00000000000E+00 0. -1.
     999901    1    3    3    0    0  0.12149069777E+00 -0.69253483887E-01 -0.26935170751E-01  0.89144912255E+00  0.88000000000E+00 0. -1.
        -11    1    4    4    0    0 -0.81594010555E-01  0.37854187204E-01  0.22275181443E-02  0.89976358036E-01  0.51100000000E-03 0. -1.
         11    1    4    4    0    0 -0.34019986057E-01  0.10629314075E-01  0.12952566636E-01  0.37925873391E-01  0.51100000000E-03 0.  1.
</event>
<event>
 8    1  0.1128298E+005  0.1043930E+01  0.7957747E-01            NaN
         13   -1    0    0    0    0  0.00000000000E+00  0.00000000000E+00  0.74505805969E-08  0.10566000000E+00  0.10566000000E+00 0.  1.
     999900   -1    0    0    0    0 -0.00000000000E+00 -0.00000000000E+00 -0.74505805969E-08  0.93827000000E+00  0.93827000000E+00 0.  1.
     999902    2    1    2    0    0 -0.10693738763E-02 -0.18459774940E-01  0.14890627810E-01  0.10201889459E+01  0.10199126667E+01 0.  0.
     999903    2    3    3    0    0 -0.10191703384E+00 -0.65673239510E-01  0.49192522038E-01  0.13250883368E+00  0.20943509830E-01 0.  0.
         14    1    1    2    0    0  0.10693738763E-02  0.18459774940E-01 -0.14890627810E-01  0.23741054061E-01  0.00000000000E+00 0. -1.
     999901    1    3    3    0    0  0.10084765996E+00  0.47213464570E-01 -0.34301894228E-01  0.88768011226E+00  0.88000000000E+00 0.  1.
        -11    1    4    4    0    0 -0.36529512915E-01 -0.29476741444E-01  0.28663611559E-01  0.55001339516E-01  0.51100000000E-03 0. -1.
         11    1    4    4    0    0 -0.65387520924E-01 -0.36196498066E-01  0.20528910479E-01  0.77507494162E-01  0.51100000000E-03 0.  1.
</event>
<event>
 8    1  0.1128298E+005  0.1043930E+01  0.7957747E-01            NaN
         13   -1    0    0    0    0  0.00000000000E+00  0.00000000000E+00  0.74505805969E-08  0.10566000000E+00  0.10566000000E+00 0. -1.
     999900   -1    0    0    0    0 -0.00000000000E+00 -0.00000000000E+00 -0.74505805969E-08  0.93827000000E+00  0.93827000000E+00 0.  1.
     999902    2    1    2    0    0 -0.19061074803E-01 -0.11718148260E-01  0.61286333995E-02  0.10207308681E+01  0.10204671996E+01 0.  0.
     999903    2    3    3    0    0 -0.12003424328E+00 -0.67671048393E-02 -0.53109276718E-01  0.13296444415E+00  0.20122993467E-01 0.  0.
         14    1    1    2    0    0  0.19061074803E-01  0.11718148260E-01 -0.61286333995E-02  0.23199131851E-01  0.00000000000E+00 0. -1.
     999901    1    3    3    0    0  0.10097316848E+00 -0.49510434205E-02  0.59237910118E-01  0.88776642400E+00  0.88000000000E+00 0. -1.
        -11    1    4    4    0    0 -0.61712208821E-01 -0.92495768828E-02 -0.18450831612E-01  0.65074155379E-01  0.51100000000E-03 0. -1.
         11    1    4    4    0    0 -0.58322034462E-01  0.24824720434E-02 -0.34658445106E-01  0.67890288771E-01  0.51100000000E-03 0.  1.
</event>
<event>
 8    1  0.1128298E+005  0.1043930E+01  0.7957747E-01            NaN
         13   -1    0    0    0    0  0.00000000000E+00  0.00000000000E+00  0.74505805969E-08  0.10566000000E+00  0.10566000000E+00 0.  1.
     999900   -1    0    0    0    0 -0.00000000000E+00 -0.00000000000E+00 -0.74505805969E-08  0.93827000000E+00  0.93827000000E+00 0.  1.
     999902    2    1    2    0    0 -0.74381301012E-02  0.78328080658E-02 -0.24994044743E-01  0.10167016887E+01  0.10163370223E+01 0.  0.
     999903    2    3    3    0    0  0.61229933097E-01  0.10642246916E+00  0.25045799091E-01  0.12712920144E+00  0.21440502757E-01 0.  0.
         14    1    1    2    0    0  0.74381301012E-02 -0.78328080658E-02  0.24994044743E-01  0.27228311262E-01  0.00000000000E+00 0.  1.
     999901    1    3    3    0    0 -0.68668063198E-01 -0.98589661095E-01 -0.50039843834E-01  0.88957248729E+00  0.88000000000E+00 0. -1.
        -11    1    4    4    0    0  0.50716560790E-01  0.78351656514E-01  0.10865361082E-01  0.93965253202E-01  0.51100000000E-03 0.  1.
         11    1    4    4    0    0  0.10513372307E-01  0.28070812646E-01  0.14180438009E-01  0.33163948242E-01  0.51100000000E-03 0. -1.
</event>
<event>
 8    1  0.1128298E+005  0.1043930E+01  0.7957747E-01            NaN
         13   -1    0    0    0    0  0.00000000000E+00  0.00000000000E+00  0.74505805969E-08  0.10566000000E+00  0.10566000000E+00 0. -1.
     999900   -1    0    0    0    0 -0.00000000000E+00 -0.00000000000E+00 -0.74505805969E-08  0.93827000000E+00  0.93827000000E+00 0. -1.
     999902    2    1    2    0    0  0.18925496186E-01  0.11241000331E-01 -0.10713618976E-01  0.10194490661E+01  0.10191550825E+01 0.  0.
     999903    2    3    3    0    0 -0.69605267881E-01  0.55238217275E-01 -0.92580162346E-01  0.13013720727E+00  0.21643758720E-01 0.  0.
         14    1    1    2    0    0 -0.18925496186E-01 -0.11241000331E-01  0.10713618976E-01  0.24480933926E-01  0.00000000000E+00 0. -1.
     999901    1    3    3    0    0  0.88530764067E-01 -0.43997216944E-01  0.81866543371E-01  0.88931185880E+00  0.88000000000E+00 0.  1.
        -11    1    4    4    0    0 -0.37420196952E-01  0.26792718637E-01 -0.32773215514E-01  0.56501908711E-01  0.51100000000E-03 0. -1.
         11    1    4    4    0    0 -0.32185070929E-01  0.28445498638E-01 -0.59806946832E-01  0.73635298559E-01  0.51100000000E-03 0.  1.
</event>
<event>
 8    1  0.1128298E+005  0.1043930E+01  0.7957747E-01            NaN
         13   -1    0    0    0    0  0.00000000000E+00  0.00000000000E+00  0.74505805969E-08  0.10566000000E+00  0.10566000000E+00 0.  1.
     999900   -1    0    0    0    0 -0.00000000000E+00 -0.00000000000E+00 -0.74505805969E-08  0.93827000000E+00  0.93827000000E+00 0. -1.
     999902    2    1    2    0    0  0.16851143261E-01 -0.60108541081E-02 -0.13190212556E-01  0.10217022447E+01  0.10214604269E+01 0.  0.
     999903    2    3    3    0    0 -0.66367243075E-01 -0.88563229508E-01 -0.69201429358E-01  0.13216447100E+00  0.20749770994E-01 0.  0.
         14    1    1    2    0    0 -0.16851143261E-01  0.60108541081E-02  0.13190212556E-01  0.22227755253E-01  0.00000000000E+00 0.  1.
     999901    1    3    3    0    0  0.83218386335E-01  0.82552375400E-01  0.56011216802E-01  0.88953777374E+00  0.88000000000E+00 0. -1.
        -11    1    4    4    0    0 -0.56199878071E-01 -0.61404720327E-01 -0.55800734203E-01  0.10021451508E+00  0.51100000000E-03 0. -1.
         11    1    4    4    0    0 -0.10167365004E-01 -0.27158509181E-01 -0.13400695155E-01  0.31949955927E-01  0.51100000000E-03 0.  1.
</event>
<event>
 8    1  0.1128298E+005  0.1043930E+01  0.7957747E-01            NaN
         13   -1    0    0    0    0  0.00000000000E+00  0.00000000000E+00  0.74505805969E-08  0.10566000000E+00  0.10566000000E+00 0. -1.
     999900   -1    0    0    0    0 -0.00000000000E+00 -0.00000000000E+00 -0.74505805969E-08  0.93827000000E+00  0.93827000000E+00 0. -1.
     999902    2    1    2    0    0  0.11488767776E-01  0.20298165525E-01  0.17616051541E-02  0.10205396054E+01  0.10202715205E+01 0.  0.
     999903    2    3    3    0    0 -0.11511332689E-01  0.13042094563E+00  0.15092318492E-01  0.13327767152E+00  0.19824878528E-01 0.  0.
         14    1    1    2    0    0 -0.11488767776E-01 -0.20298165525E-01 -0.17616051541E-02  0.23390394640E-01  0.00000000000E+00 0. -1.
     999901    1    3    3    0    0  0.23000100465E-01 -0.11012278011E+00 -0.13330713338E-01  0.88726193384E+00  0.88000000000E+00 0.  1.
        -11    1    4    4    0    0 -0.68127194651E-02  0.10157429181E+00  0.35969634711E-02  0.10186731159E+00  0.51100000000E-03 0.  1.
         11    1    4    4    0    0 -0.46986132238E-02  0.28846653824E-01  0.11495355021E-01  0.31410359933E-01  0.51100000000E-03 0. -1.
</event>
<event>
 8    1  0.1128298E+005  0.1043930E+01  0.7957747E-01            NaN
         13   -1    0    0    0    0  0.00000000000E+00  0.00000000000E+00  0.74505805969E-08  0.10566000000E+00  0.10566000000E+00 0.  1.
     999900   -1    0    0    0    0 -0.00000000000E+00 -0.00000000000E+00 -0.74505805969E-08  0.93827000000E+00  0.93827000000E+00 0. -1.
     999902    2    1    2    0    0 -0.16413830268E-01  0.16387263681E-01 -0.28301842442E-02  0.10205640808E+01  0.10202965632E+01 0.  0.
     999903    2    3    3    0    0 -0.31656958426E-01 -0.95565801607E-01 -0.79390568264E-01  0.13004325898E+00  0.21757789929E-01 0.  0.
         14    1    1    2    0    0  0.16413830268E-01 -0.16387263681E-01  0.28301842442E-02  0.23365919153E-01  0.00000000000E+00 0.  1.
     999901    1    3    3    0    0  0.15243128159E-01  0.11195306529E+00  0.76560384020E-01  0.89052082187E+00  0.88000000000E+00 0.  1.
        -11    1    4    4    0    0 -0.49575320980E-02 -0.82089491715E-02 -0.97099080833E-03  0.96523528299E-02  0.51100000000E-03 0. -1.
         11    1    4    4    0    0 -0.26699426328E-01 -0.87356852435E-01 -0.78419577455E-01  0.12039090615E+00  0.51100000000E-03 0.  1.
</event>
<event>
 8    1  0.1128298E+005  0.1043930E+01  0.7957747E-01            NaN
         13   -1    0    0    0    0  0.00000000000E+00  0.00000000000E+00  0.74505805969E-08  0.10566000000E+00  0.10566000000E+00 0.  1.
     999900   -1    0    0    0    0 -0.00000000000E+00 -0.00000000000E+00 -0.74505805969E-08  0.93827000000E+00  0.93827000000E+00 0. -1.
     999902    2    1    2    0    0  0.13324575337E-01  0.90399274010E-02  0.17818471504E-01  0.10199141194E+01  0.10196313296E+01 0.  0.
     999903    2    3    3    0    0  0.90832417670E-01 -0.10019945320E-02  0.95463458097E-01  0.13304487887E+00  0.18334008515E-01 0.  0.
         14    1    1    2    0    0 -0.13324575337E-01 -0.90399274010E-02 -0.17818471504E-01  0.24015880623E-01  0.00000000000E+00 0. -1.
     999901    1    3    3    0    0 -0.77507842332E-01  0.10041921933E-01 -0.77644986593E-01  0.88686924051E+00  0.88000000000E+00 0. -1.
        -11    1    4    4    0    0  0.23139119648E-01  0.37851852952E-02  0.35131289675E-01  0.42239970656E-01  0.51100000000E-03 0.  1.
         11    1    4    4    0    0  0.67693298021E-01 -0.47871798272E-02  0.60332168422E-01  0.90804908211E-01  0.51100000000E-03 0. -1.
</event>
<event>
 8    1  0.1128298E+005  0.1043930E+01  0.7957747E-01            NaN
         13   -1    0    0    0    0  0.00000000000E+00  0.00000000000E+00  0.74505805969E-08  0.10566000000E+00  0.10566000000E+00 0. -1.
     999900   -1    0    0    0    0 -0.00000000000E+00 -0.00000000000E+00 -0.74505805969E-08  0.93827000000E+00  0.93827000000E+00 0. -1.
     999902    2    1    2    0    0 -0.57876334787E-02 -0.22268601003E-01 -0.19387509745E-02  0.10208400445E+01  0.10205788800E+01 0.  0.
     999903    2    3    3    0    0 -0.10099378569E+00 -0.72507170562E-01 -0.43484450085E-01  0.13330741384E+00  0.20565375122E-01 0.  0.
         14    1    1    2    0    0  0.57876334787E-02  0.22268601003E-01  0.19387509745E-02  0.23089955549E-01  0.00000000000E+00 0.  1.
     999901    1    3    3    0    0  0.95206152211E-01  0.50238569559E-01  0.41545699110E-01  0.88753263061E+00  0.88000000000E+00 0. -1.
        -11    1    4    4    0    0 -0.42681088697E-01 -0.39210393852E-01 -0.28116592024E-01  0.64419982819E-01  0.51100000000E-03 0. -1.
         11    1    4    4    0    0 -0.58312696993E-01 -0.33296776709E-01 -0.15367858061E-01  0.68887431018E-01  0.51100000000E-03 0.  1.
</event>
<event>
 8    1  0.1128298E+005  0.1043930E+01  0.7957747E-01            NaN
         13   -1    0    0    0    0  0.00000000000E+00  0.00000000000E+00  0.74505805969E-08  0.10566000000E+00  0.10566000000E+00 0.  1.
     999900   -1    0    0    0    0 -0.00000000000E+00 -0.00000000000E+00 -0.74505805969E-08  0.93827000000E+00  0.93827000000E+00 0. -1.
     999902    2    1    2    0    0 -0.52277133193E-03  0.19838580481E-01  0.12835946869E-01  0.10202951931E+01  0.10200214100E+01 0.  0.
     999903    2    3    3    0    0 -0.34531280750E-01  0.46666073376E-01 -0.11463418472E+00  0.13005650177E+00  0.20088942037E-01 0.  0.
         14    1    1    2    0    0  0.52277133193E-03 -0.19838580481E-01 -0.12835946869E-01  0.23634806904E-01  0.00000000000E+00 0. -1.
     999901    1    3    3    0    0  0.34008509418E-01 -0.26827492895E-01  0.12747013159E+00  0.89023869133E+00  0.88000000000E+00 0.  1.
        -11    1    4    4    0    0 -0.28114937594E-01  0.47230887163E-01 -0.10232988741E+00  0.11615882832E+00  0.51100000000E-03 0. -1.
         11    1    4    4    0    0 -0.64163431562E-02 -0.56481378710E-03 -0.12304297310E-01  0.13897673453E-01  0.51100000000E-03 0.  1.
</event>
<event>
 7    1  0.1128298E+005  0.1043930E+01  0.7957747E-01            NaN
         13   -1    0    0    0    0  0.00000000000E+00  0.00000000000E+00  0.74505805969E-08  0.10566000000E+00  0.10566000000E+00 0.  1.
     999900   -1    0    0    0    0 -0.00000000000E+00 -0.00000000000E+00 -0.74505805969E-08  0.93827000000E+00  0.93827000000E+00 0.  1.
     999902    2    1    2    0    0 -0.14146514654E-01 -0.67090033113E-02 -0.13173592253E-01  0.10234683741E+01  0.10232638148E+01 0.  0.
         14    1    1    2    0    0  0.14146514654E-01  0.67090033113E-02  0.13173592253E-01  0.20461625916E-01  0.00000000000E+00 0.  1.
     999901    1    3    3    0    0  0.18887988423E-01  0.75664610631E-01  0.74151592815E-01  0.88655532717E+00  0.88000000000E+00 0. -1.
        -11    1    3    3    0    0 -0.11686905768E-01 -0.77141762874E-01 -0.47283680397E-01  0.91232904692E-01  0.51100000000E-03 0.  1.
         11    1    3    3    0    0 -0.21347597309E-01 -0.52318510686E-02 -0.40041504671E-01  0.45680142226E-01  0.51100000000E-03 0. -1.
</event>
<event>
 8    1  0.1128298E+005  0.1043930E+01  0.7957747E-01            NaN
         13   -1    0    0    0    0  0.00000000000E+00  0.00000000000E+00  0.74505805969E-08  0.10566000000E+00  0.10566000000E+00 0. -1.
     999900   -1    0    0    0    0 -0.00000000000E+00 -0.00000000000E+00 -0.74505805969E-08  0.93827000000E+00  0.93827000000E+00 0.  1.
     999902    2    1    2    0    0  0.16481580209E-01  0.99132321428E-02 -0.15727844888E-01  0.10190848845E+01  0.10187819797E+01 0.  0.
     999903    2    3    3    0    0 -0.11566864243E+00  0.21683100834E-01 -0.47708572589E-01  0.12856538554E+00  0.20088771887E-01 0.  0.
         14    1    1    2    0    0 -0.16481580209E-01 -0.99132321428E-02  0.15727844888E-01  0.24845115466E-01  0.00000000000E+00 0. -1.
     999901    1    3    3    0    0  0.13215022264E+00 -0.11769868691E-01  0.31980727702E-01  0.89051949900E+00  0.88000000000E+00 0.  1.
        -11    1    4    4    0    0 -0.49410934236E-01  0.75885451084E-02 -0.30891119373E-01  0.58766902386E-01  0.51100000000E-03 0. -1.
         11    1    4    4    0    0 -0.66257708194E-01  0.14094555726E-01 -0.16817453216E-01  0.69798483149E-01  0.51100000000E-03 0.  1.
</event>
<event>
 8    1  0.1128298E+005  0.1043930E+01  0.7957747E-01            NaN
         13   -1    0    0    0    0  0.00000000000E+00  0.00000000000E+00  0.74505805969E-08  0.10566000000E+00  0.10566000000E+00 0.  1.
     999900   -1    0    0    0    0 -0.00000000000E+00 -0.00000000000E+00 -0.74505805969E-08  0.93827000000E+00  0.93827000000E+00 0.  1.
     999902    2    1    2    0    0  0.23283030160E-01  0.31630732917E-02  0.10349028919E-02  0.10204103157E+01  0.10201392242E+01 0.  0.
     999903    2    3    3    0    0 -0.16043092338E-01  0.10416139589E+00  0.75404135488E-01  0.13064743276E+00  0.16612971862E-01 0.  0.
         14    1    1    2    0    0 -0.23283030160E-01 -0.31630732917E-02 -0.10349028919E-02  0.23519684310E-01  0.00000000000E+00 0. -1.
     999901    1    3    3    0    0  0.39326122498E-01 -0.10099832259E+00 -0.74369232596E-01  0.88976288293E+00  0.88000000000E+00 0. -1.
        -11    1    4    4    0    0  0.21816901901E-02  0.23719324968E-01  0.21672365065E-01  0.32207432023E-01  0.51100000000E-03 0. -1.
         11    1    4    4    0    0 -0.18224782528E-01  0.80442070918E-01  0.53731770423E-01  0.98440000740E-01  0.51100000000E-03 0.  1.
</event>
<event>
 8    1  0.1128298E+005  0.1043930E+01  0.7957747E-01            NaN
         13   -1    0    0    0    0  0.00000000000E+00  0.00000000000E+00  0.74505805969E-08  0.10566000000E+00  0.10566000000E+00 0.  1.
     999900   -1    0    0    0    0 -0.00000000000E+00 -0.00000000000E+00 -0.74505805969E-08  0.93827000000E+00  0.93827000000E+00 0. -1.
     999902    2    1    2    0    0  0.76364746021E-03  0.20004684304E-01  0.12940925016E-01  0.10200922549E+01  0.10198136940E+01 0.  0.
     999903    2    3    3    0    0  0.62712056998E-01  0.11009226708E+00  0.35229599856E-01  0.13304650464E+00  0.20177669022E-01 0.  0.
         14    1    1    2    0    0 -0.76364746021E-03 -0.20004684304E-01 -0.12940925016E-01  0.23837745107E-01  0.00000000000E+00 0. -1.
     999901    1    3    3    0    0 -0.61948409538E-01 -0.90087582777E-01 -0.22288674840E-01  0.88704575025E+00  0.88000000000E+00 0. -1.
        -11    1    4    4    0    0  0.20123909757E-01  0.18816245866E-01  0.66451641253E-02  0.28345055647E-01  0.51100000000E-03 0. -1.
         11    1    4    4    0    0  0.42588147241E-01  0.91276021215E-01  0.28584435731E-01  0.10470144899E+00  0.51100000000E-03 0.  1.
</event>
<event>
 8    1  0.1128298E+005  0.1043930E+01  0.7957747E-01            NaN
         13   -1    0    0    0    0  0.00000000000E+00  0.00000000000E+00  0.74505805969E-08  0.10566000000E+00  0.10566000000E+00 0. -1.
     999900   -1    0    0    0    0 -0.00000000000E+00 -0.00000000000E+00 -0.74505805969E-08  0.93827000000E+00  0.93827000000E+00 0. -1.
     999902    2    1    2    0    0  0.16409193240E-01 -0.17108497236E-01  0.38237067935E-02  0.10199178565E+01  0.10196351558E+01 0.  0.
     999903    2    3    3    0    0 -0.36312237311E-01  0.11600490548E+00  0.33895913598E-01  0.12783990879E+00  0.20454648523E-01 0.  0.
         14    1    1    2    0    0 -0.16409193240E-01  0.17108497236E-01 -0.38237067935E-02  0.24012143471E-01  0.00000000000E+00 0. -1.
     999901    1    3    3    0    0  0.52721430551E-01 -0.13311340272E+00 -0.30072206804E-01  0.89207794774E+00  0.88000000000E+00 0. -1.
        -11    1    4    4    0    0 -0.27689283172E-01  0.58958478103E-01  0.23285498682E-01  0.69175675729E-01  0.51100000000E-03 0.  1.
         11    1    4    4    0    0 -0.86229541393E-02  0.57046427378E-01  0.10610414916E-01  0.58664233059E-01  0.51100000000E-03 0. -1.
</event>
<event>
 8    1  0.1128298E+005  0.1043930E+01  0.7957747E-01            NaN
         13   -1    0    0    0    0  0.00000000000E+00  0.00000000000E+00  0.74505805969E-08  0.10566000000E+00  0.10566000000E+00 0.  1.
     999900   -1    0    0    0    0 -0.00000000000E+00 -0.00000000000E+00 -0.74505805969E-08  0.93827000000E+00  0.93827000000E+00 0. -1.
     999902    2    1    2    0    0  0.15232838448E-01 -0.13792701723E-01 -0.12388152427E-01  0.10199353275E+01  0.10196530429E+01 0.  0.
     999903    2    3    3    0    0  0.58310376311E-01 -0.59789889289E-02 -0.11706231094E+00  0.13265103944E+00  0.21374408204E-01 0.  0.
         14    1    1    2    0    0 -0.15232838448E-01  0.13792701723E-01  0.12388152427E-01  0.23994672504E-01  0.00000000000E+00 0.  1.
     999901    1    3    3    0    0 -0.43077537863E-01 -0.78137127944E-02  0.10467415852E+00  0.88728428806E+00  0.88000000000E+00 0.  1.
        -11    1    4    4    0    0  0.34808409473E-01 -0.12153102236E-01 -0.57337036296E-01  0.68169788882E-01  0.51100000000E-03 0.  1.
         11    1    4    4    0    0  0.23501966838E-01  0.61741133076E-02 -0.59725274647E-01  0.64481250555E-01  0.51100000000E-03 0. -1.
</event>
<event>
 8    1  0.1128298E+005  0.1043930E+01  0.7957747E-01            NaN
         13   -1    0    0    0    0  0.00000000000E+00  0.00000000000E+00  0.74505805969E-08  0.10566000000E+00  0.10566000000E+00 0.  1.
     999900   -1    0    0    0    0 -0.00000000000E+00 -0.00000000000E+00 -0.74505805969E-08  0.93827000000E+00  0.93827000000E+00 0.  1.
     999902    2    1    2    0    0 -0.19130345328E-01 -0.93131054137E-02  0.30809273624E-01  0.10064878395E+01  0.10057911590E+01 0.  0.
     999903    2    3    3    0    0  0.92118740346E-01  0.66362007497E-01 -0.72532133456E-02  0.11544809024E+00  0.19643677696E-01 0.  0.
         14    1    1    2    0    0  0.19130345328E-01  0.93131054137E-02 -0.30809273624E-01  0.37442160543E-01  0.00000000000E+00 0. -1.
     999901    1    3    3    0    0 -0.11124908567E+00 -0.75675112911E-01  0.38062486970E-01  0.89103974922E+00  0.88000000000E+00 0.  1.
        -11    1    4    4    0    0  0.64263141304E-02  0.73899785889E-02  0.44461629454E-02  0.10767487301E-01  0.51100000000E-03 0. -1.
         11    1    4    4    0    0  0.85692426215E-01  0.58972028908E-01 -0.11699376291E-01  0.10468060294E+00  0.51100000000E-03 0.  1.
</event>
<event>
 8    1  0.1128298E+005  0.1043930E+01  0.7957747E-01            NaN
         13   -1    0    0    0    0  0.00000000000E+00  0.00000000000E+00  0.74505805969E-08  0.10566000000E+00  0.10566000000E+00 0.  1.
     999900   -1    0    0    0    0 -0.00000000000E+00 -0.00000000000E+00 -0.74505805969E-08  0.93827000000E+00  0.93827000000E+00 0. -1.
     999902    2    1    2    0    0 -0.11300129861E-01  0.20154584490E-01  0.51250551196E-02  0.10202621653E+01  0.10199876075E+01 0.  0.
     999903    2    3    3    0    0 -0.98807130331E-01 -0.80751384581E-01  0.16651729109E-01  0.13010917059E+00  0.19169795854E-01 0.  0.
         14    1    1    2    0    0  0.11300129861E-01 -0.20154584490E-01 -0.51250551196E-02  0.23667834730E-01  0.00000000000E+00 0.  1.
     999901    1    3    3    0    0  0.87507000470E-01  0.10090596907E+00 -0.11526673990E-01  0.89015299468E+00  0.88000000000E+00 0. -1.
        -11    1    4    4    0    0 -0.69928758062E-01 -0.67207798252E-01  0.98316613289E-02  0.97487650682E-01  0.51100000000E-03 0. -1.
         11    1    4    4    0    0 -0.28878372269E-01 -0.13543586330E-01  0.68200677806E-02  0.32621519908E-01  0.51100000000E-03 0.  1.
</event>
<event>
 8    1  0.1128298E+005  0.1043930E+01  0.7957747E-01            NaN
         13   -1    0    0    0    0  0.00000000000E+00  0.00000000000E+00  0.74505805969E-08  0.10566000000E+00  0.10566000000E+00 0. -1.
     999900   -1    0    0    0    0 -0.00000000000E+00 -0.00000000000E+00 -0.74505805969E-08  0.93827000000E+00  0.93827000000E+00 0. -1.
     999902    2    1    2    0    0 -0.19434308970E-01  0.10850799019E-01 -0.12497802801E-01  0.10184030088E+01  0.10180830325E+01 0.  0.
     999903    2    3    3    0    0 -0.66184711431E-01 -0.35996393869E-01 -0.10515454958E+00  0.13106680852E+00  0.21092003254E-01 0.  0.
         14    1    1    2    0    0  0.19434308970E-01 -0.10850799019E-01  0.12497802801E-01  0.25526991192E-01  0.00000000000E+00 0. -1.
     999901    1    3    3    0    0  0.46750402461E-01  0.46847192888E-01  0.92656746775E-01  0.88733620028E+00  0.88000000000E+00 0.  1.
        -11    1    4    4    0    0 -0.46986989066E-01 -0.18483668393E-01 -0.55578470592E-01  0.75090949209E-01  0.51100000000E-03 0.  1.
         11    1    4    4    0    0 -0.19197722365E-01 -0.17512725476E-01 -0.49576078984E-01  0.55975859315E-01  0.51100000000E-03 0. -1.
</event>
<event>
 8    1  0.1251353E+005  0.1043930E+01  0.7957747E-01            NaN
         13   -1    0    0    0    0  0.00000000000E+00  0.00000000000E+00  0.74505805969E-08  0.10566000000E+00  0.10566000000E+00 0.  1.
     999900   -1    0    0    0    0 -0.00000000000E+00 -0.00000000000E+00 -0.74505805969E-08  0.93827000000E+00  0.93827000000E+00 0. -1.
     999902    2    1    2    0    0  0.10848409447E-01 -0.17930710956E-01  0.11666655440E-01  0.10199443953E+01  0.10196623266E+01 0.  0.
     999903    2    3    3    0    0  0.25607450612E-01  0.93458265932E-01 -0.81219472145E-01  0.12795046811E+00  0.19609452745E-01 0.  0.
         14    1    1    2    0    0 -0.10848409447E-01  0.17930710956E-01 -0.11666655440E-01  0.23985604684E-01  0.00000000000E+00 0. -1.
     999901    1    3    3    0    0 -0.14759041166E-01 -0.11138897689E+00  0.92886127585E-01  0.89199392720E+00  0.88000000000E+00 0.  1.
        -11    1    4    4    0    0  0.15005227027E-01  0.39586383289E-01 -0.24085517472E-01  0.48709463690E-01  0.51100000000E-03 0.  1.
         11    1    4    4    0    0  0.10602223585E-01  0.53871882643E-01 -0.57133954673E-01  0.79241004423E-01  0.51100000000E-03 0. -1.
</event>
<event>
 8    1  0.1128298E+005  0.1043930E+01  0.7957747E-01            NaN
         13   -1    0    0    0    0  0.00000000000E+00  0.00000000000E+00  0.74505805969E-08  0.10566000000E+00  0.10566000000E+00 0. -1.
     999900   -1    0    0    0    0 -0.00000000000E+00 -0.00000000000E+00 -0.74505805969E-08  0.93827000000E+00  0.93827000000E+00 0.  1.
     999902    2    1    2    0    0  0.10739639777E-01 -0.17790375123E-01 -0.12695134960E-01  0.10195783314E+01  0.10192874816E+01 0.  0.
     999903    2    3    3    0    0  0.14065624427E-01  0.21563043452E-01 -0.12727697843E+00  0.13127165435E+00  0.19235679435E-01 0.  0.
         14    1    1    2    0    0 -0.10739639777E-01  0.17790375123E-01  0.12695134960E-01  0.24351668551E-01  0.00000000000E+00 0.  1.
     999901    1    3    3    0    0 -0.33259846504E-02 -0.39353418575E-01  0.11458184347E+00  0.88830667710E+00  0.88000000000E+00 0. -1.
        -11    1    4    4    0    0 -0.44951078172E-02  0.70264523048E-02 -0.27250300546E-01  0.28502930149E-01  0.51100000000E-03 0. -1.
         11    1    4    4    0    0  0.18560732244E-01  0.14536591147E-01 -0.10002667789E+00  0.10276872420E+00  0.51100000000E-03 0.  1.
</event>
<event>
 8    1  0.1128298E+005  0.1043930E+01  0.7957747E-01            NaN
         13   -1    0    0    0    0  0.00000000000E+00  0.00000000000E+00  0.74505805969E-08  0.10566000000E+00  0.10566000000E+00 0.  1.
     999900   -1    0    0    0    0 -0.00000000000E+00 -0.00000000000E+00 -0.74505805969E-08  0.93827000000E+00  0.93827000000E+00 0.  1.
     999902    2    1    2    0    0  0.16259044251E-01  0.10284948602E-01  0.13073761175E-01  0.10206693053E+01  0.10204042193E+01 0.  0.
     999903    2    3    3    0    0 -0.44778570489E-01  0.32854151212E-01 -0.11478629267E+00  0.12905102783E+00  0.19843365950E-01 0.  0.
         14    1    1    2    0    0 -0.16259044251E-01 -0.10284948602E-01 -0.13073761175E-01  0.23260694722E-01  0.00000000000E+00 0. -1.
     999901    1    3    3    0    0  0.61037614739E-01 -0.22569202610E-01  0.12786005384E+00  0.89161827745E+00  0.88000000000E+00 0. -1.
        -11    1    4    4    0    0 -0.39586620245E-01  0.31260257720E-01 -0.85585554090E-01  0.99345117671E-01  0.51100000000E-03 0. -1.
         11    1    4    4    0    0 -0.51919502432E-02  0.15938934918E-02 -0.29200738575E-01  0.29705910154E-01  0.51100000000E-03 0.  1.
</event>
<event>
 8    1  0.1128298E+005  0.1043930E+01  0.7957747E-01            NaN
         13   -1    0    0    0    0  0.00000000000E+00  0.00000000000E+00  0.74505805969E-08  0.10566000000E+00  0.10566000000E+00 0. -1.
     999900   -1    0    0    0    0 -0.00000000000E+00 -0.00000000000E+00 -0.74505805969E-08  0.93827000000E+00  0.93827000000E+00 0. -1.
     999902    2    1    2    0    0  0.16023715382E-02  0.17492727567E-01 -0.19037067309E-01  0.10180268526E+01  0.10176972534E+01 0.  0.
     999903    2    3    3    0    0 -0.54561320850E-01 -0.99566551350E-01  0.50297247245E-01  0.12580239527E+00  0.20149285223E-01 0.  0.
         14    1    1    2    0    0 -0.16023715382E-02 -0.17492727567E-01  0.19037067309E-01  0.25903147376E-01  0.00000000000E+00 0. -1.
     999901    1    3    3    0    0  0.56163692388E-01  0.11705927892E+00 -0.69334314554E-01  0.89222445735E+00  0.88000000000E+00 0.  1.
        -11    1    4    4    0    0 -0.46326047680E-01 -0.80692380834E-01  0.32435254335E-01  0.98537657081E-01  0.51100000000E-03 0. -1.
         11    1    4    4    0    0 -0.82352731702E-02 -0.18874170516E-01  0.17861992910E-01  0.27264738190E-01  0.51100000000E-03 0.  1.
</event>
<event>
 8    1  0.1128298E+005  0.1043930E+01  0.7957747E-01            NaN
         13   -1    0    0    0    0  0.00000000000E+00  0.00000000000E+00  0.74505805969E-08  0.10566000000E+00  0.10566000000E+00 0. -1.
     999900   -1    0    0    0    0 -0.00000000000E+00 -0.00000000000E+00 -0.74505805969E-08  0.93827000000E+00  0.93827000000E+00 0. -1.
     999902    2    1    2    0    0  0.20626137991E-01 -0.10403753176E-01  0.31739025862E-02  0.10206115672E+01  0.10203451484E+01 0.  0.
     999903    2    3    3    0    0  0.12402200638E+00 -0.45817806278E-01  0.60851154871E-02  0.13384590715E+00  0.19924075690E-01 0.  0.
         14    1    1    2    0    0 -0.20626137991E-01  0.10403753176E-01 -0.31739025862E-02  0.23318432756E-01  0.00000000000E+00 0. -1.
     999901    1    3    3    0    0 -0.10339586839E+00  0.35414053102E-01 -0.29112129010E-02  0.88676566009E+00  0.88000000000E+00 0.  1.
        -11    1    4    4    0    0  0.63192359109E-01 -0.12763618627E-01  0.35062198592E-02  0.64565771961E-01  0.51100000000E-03 0. -1.
         11    1    4    4    0    0  0.60829647272E-01 -0.33054187651E-01  0.25788956279E-02  0.69280135191E-01  0.51100000000E-03 0.  1.
</event>
<event>
 8    1  0.1128298E+005  0.1043930E+01  0.7957747E-01            NaN
         13   -1    0    0    0    0  0.00000000000E+00  0.00000000000E+00  0.74505805969E-08  0.10566000000E+00  0.10566000000E+00 0.  1.
     999900   -1    0    0    0    0 -0.00000000000E+00 -0.00000000000E+00 -0.74505805969E-08  0.93827000000E+00  0.93827000000E+00 0. -1.
     999902    2    1    2    0    0  0.19656335300E-01 -0.97826543338E-02  0.74703140329E-02  0.10207378152E+01  0.10204743064E+01 0.  0.
     999903    2    3    3    0    0 -0.11495688034E+00 -0.51466802474E-01 -0.17879998809E-01  0.12916565078E+00  0.22364142977E-01 0.  0.
         14    1    1    2    0    0 -0.19656335300E-01  0.97826543338E-02 -0.74703140329E-02  0.23192184782E-01  0.00000000000E+00 0.  1.
     999901    1    3    3    0    0  0.13461321564E+00  0.41684148140E-01  0.25350312842E-01  0.89157216443E+00  0.88000000000E+00 0.  1.
        -11    1    4    4    0    0 -0.72834967791E-01 -0.23464812340E-01 -0.36091534705E-02  0.76608204920E-01  0.51100000000E-03 0.  1.
         11    1    4    4    0    0 -0.42121912547E-01 -0.28001990134E-01 -0.14270845339E-01  0.52557445864E-01  0.51100000000E-03 0. -1.
</event>
<event>
 8    1  0.1128298E+005  0.1043930E+01  0.7957747E-01            NaN
         13   -1    0    0    0    0  0.00000000000E+00  0.00000000000E+00  0.74505805969E-08  0.10566000000E+00  0.10566000000E+00 0.  1.
     999900   -1    0    0    0    0 -0.00000000000E+00 -0.00000000000E+00 -0.74505805969E-08  0.93827000000E+00  0.93827000000E+00 0. -1.
     999902    2    1    2    0    0 -0.10283806051E-01  0.18542003926E-01 -0.10448014168E-01  0.10202926656E+01  0.10200188233E+01 0.  0.
     999903    2    3    3    0    0  0.69844198119E-01  0.98953077916E-01 -0.49256573510E-01  0.13215273174E+00  0.19188820524E-01 0.  0.
         14    1    1    2    0    0  0.10283806051E-01 -0.18542003926E-01  0.10448014168E-01  0.23637334379E-01  0.00000000000E+00 0. -1.
     999901    1    3    3    0    0 -0.80128004169E-01 -0.80411073990E-01  0.38808559342E-01  0.88813993388E+00  0.88000000000E+00 0.  1.
        -11    1    4    4    0    0  0.59309040937E-01  0.77557840874E-01 -0.32132555775E-01  0.10278882857E+00  0.51100000000E-03 0.  1.
         11    1    4    4    0    0  0.10535157182E-01  0.21395237042E-01 -0.17124017734E-01  0.29363903168E-01  0.51100000000E-03 0. -1.
</event>
<event>
 8    1  0.1128298E+005  0.1043930E+01  0.7957747E-01            NaN
         13   -1    0    0    0    0  0.00000000000E+00  0.00000000000E+00  0.74505805969E-08  0.10566000000E+00  0.10566000000E+00 0. -1.
     999900   -1    0    0    0    0 -0.00000000000E+00 -0.00000000000E+00 -0.74505805969E-08  0.93827000000E+00  0.93827000000E+00 0.  1.
     999902    2    1    2    0    0  0.21477008229E-02 -0.30257747035E-01 -0.45213876052E-02  0.10132610121E+01  0.10127967673E+01 0.  0.
     999903    2    3    3    0    0  0.62696675024E-01  0.47493479985E-01  0.91801281425E-01  0.12253687512E+00  0.20032643192E-01 0.  0.
         14    1    1    2    0    0 -0.21477008229E-02  0.30257747035E-01  0.45213876052E-02  0.30668987925E-01  0.00000000000E+00 0. -1.
     999901    1    3    3    0    0 -0.60548974201E-01 -0.77751227021E-01 -0.96322669031E-01  0.89072413695E+00  0.88000000000E+00 0. -1.
        -11    1    4    4    0    0  0.45266402734E-02  0.12275077562E-01  0.16743820930E-01  0.21255226690E-01  0.51100000000E-03 0. -1.
         11    1    4    4    0    0  0.58170034751E-01  0.35218402424E-01  0.75057460496E-01  0.10128164843E+00  0.51100000000E-03 0.  1.
</event>
<event>
 7    1  0.1128298E+005  0.1043930E+01  0.7957747E-01            NaN
         13   -1    0    0    0    0  0.00000000000E+00  0.00000000000E+00  0.74505805969E-08  0.10566000000E+00  0.10566000000E+00 0.  1.
     999900   -1    0    0    0    0 -0.00000000000E+00 -0.00000000000E+00 -0.74505805969E-08  0.93827000000E+00  0.93827000000E+00 0.  1.
     999903    2    1    2    0    0 -0.98226639606E-01  0.50936564237E-03  0.13234770322E-01  0.10137212241E+00  0.21270069922E-01 0.  0.
         14    1    1    2    0    0  0.18859079832E-01 -0.45143540825E-01  0.28960980171E-01  0.56853694188E-01  0.00000000000E+00 0. -1.
     999901    1    1    2    0    0  0.79367559774E-01  0.44634175182E-01 -0.42195750494E-01  0.88570418340E+00  0.88000000000E+00 0.  1.
        -11    1    3    3    0    0 -0.48633021214E-01 -0.96580506428E-02  0.26923469085E-02  0.49658418697E-01  0.51100000000E-03 0.  1.
         11    1    3    3    0    0 -0.49593618393E-01  0.10167416285E-01  0.10542423414E-01  0.51713703712E-01  0.51100000000E-03 0. -1.
</event>
<event>
 8    1  0.1128298E+005  0.1043930E+01  0.7957747E-01            NaN
         13   -1    0    0    0    0  0.00000000000E+00  0.00000000000E+00  0.74505805969E-08  0.10566000000E+00  0.10566000000E+00 0. -1.
     999900   -1    0    0    0    0 -0.00000000000E+00 -0.00000000000E+00 -0.74505805969E-08  0.93827000000E+00  0.93827000000E+00 0. -1.
     999902    2    1    2    0    0 -0.84793139096E-02 -0.50989505294E-03 -0.21323818728E-01  0.10209764817E+01  0.10207184294E+01 0.  0.
     999903    2    3    3    0    0 -0.31161082288E-01 -0.24905058486E-01 -0.12640754530E+00  0.13409871323E+00  0.20305723174E-01 0.  0.
         14    1    1    2    0    0  0.84793139096E-02  0.50989505294E-03  0.21323818728E-01  0.22953518303E-01  0.00000000000E+00 0. -1.
     999901    1    3    3    0    0  0.22681768379E-01  0.24395163433E-01  0.10508372657E+00  0.88687776847E+00  0.88000000000E+00 0.  1.
        -11    1    4    4    0    0 -0.27254815987E-01 -0.10002324293E-01 -0.74799272467E-01  0.80237545877E-01  0.51100000000E-03 0. -1.
         11    1    4    4    0    0 -0.39062663014E-02 -0.14902734193E-01 -0.51608272830E-01  0.53861167351E-01  0.51100000000E-03 0.  1.
</event>
<event>
 8    1  0.1128298E+005  0.1043930E+01  0.7957747E-01            NaN
         13   -1    0    0    0    0  0.00000000000E+00  0.00000000000E+00  0.74505805969E-08  0.10566000000E+00  0.10566000000E+00 0. -1.
     999900   -1    0    0    0    0 -0.00000000000E+00 -0.00000000000E+00 -0.74505805969E-08  0.93827000000E+00  0.93827000000E+00 0. -1.
     999902    2    1    2    0    0 -0.14857141018E-01  0.19581076497E-02  0.18562998184E-01  0.10200730571E+01  0.10197940420E+01 0.  0.
     999903    2    3    3    0    0  0.19293248528E-01 -0.12642371055E+00 -0.77879158726E-02  0.12971216898E+00  0.20233910150E-01 0.  0.
         14    1    1    2    0    0  0.14857141018E-01 -0.19581076497E-02 -0.18562998184E-01  0.23856942938E-01  0.00000000000E+00 0.  1.
     999901    1    3    3    0    0 -0.34150389546E-01  0.12838181820E+00  0.26350914056E-01  0.89036088808E+00  0.88000000000E+00 0. -1.
        -11    1    4    4    0    0  0.12685695111E-01 -0.27158715615E-01 -0.10446454784E-02  0.29997918252E-01  0.51100000000E-03 0.  1.
         11    1    4    4    0    0  0.66075534169E-02 -0.99264994937E-01 -0.67432703942E-02  0.99714250730E-01  0.51100000000E-03 0. -1.
</event>
<event>
 8    1  0.1128298E+005  0.1043930E+01  0.7957747E-01            NaN
         13   -1    0    0    0    0  0.00000000000E+00  0.00000000000E+00  0.74505805969E-08  0.10566000000E+00  0.10566000000E+00 0. -1.
     999900   -1    0    0    0    0 -0.00000000000E+00 -0.00000000000E+00 -0.74505805969E-08  0.93827000000E+00  0.93827000000E+00 0.  1.
     999902    2    1    2    0    0 -0.54848788021E-02 -0.17721680299E-01 -0.15591308953E-01  0.10196971553E+01  0.10194091709E+01 0.  0.
     999903    2    3    3    0    0 -0.10633704341E+00  0.41890544469E-01 -0.60237715084E-01  0.13081129195E+00  0.20509199550E-01 0.  0.
         14    1    1    2    0    0  0.54848788021E-02  0.17721680299E-01  0.15591308953E-01  0.24232844715E-01  0.00000000000E+00 0. -1.
     999901    1    3    3    0    0  0.10085216461E+00 -0.59612224769E-01  0.44646406130E-01  0.88888586333E+00  0.88000000000E+00 0.  1.
        -11    1    4    4    0    0 -0.10092981238E+00  0.34410691298E-01 -0.57602916765E-01  0.12119933928E+00  0.51100000000E-03 0.  1.
         11    1    4    4    0    0 -0.54072310376E-02  0.74798531711E-02 -0.26347983188E-02  0.96119526703E-02  0.51100000000E-03 0. -1.
</event>
<event>
 7    1  0.1128298E+005  0.1043930E+01  0.7957747E-01            NaN
         13   -1    0    0    0    0  0.00000000000E+00  0.00000000000E+00  0.74505805969E-08  0.10566000000E+00  0.10566000000E+00 0. -1.
     999900   -1    0    0    0    0 -0.00000000000E+00 -0.00000000000E+00 -0.74505805969E-08  0.93827000000E+00  0.93827000000E+00 0. -1.
     999902    2    1    2    0    0 -0.21895878212E-02 -0.21995440526E-01  0.52236248359E-02  0.10212170091E+01  0.10209643969E+01 0.  0.
         14    1    1    2    0    0  0.21895878212E-02  0.21995440526E-01 -0.52236248359E-02  0.22712990891E-01  0.00000000000E+00 0. -1.
     999901    1    3    3    0    0 -0.15645002706E-01 -0.80155559963E-01 -0.10349011822E+00  0.88982014164E+00  0.88000000000E+00 0. -1.
        -11    1    3    3    0    0  0.16161946897E-01  0.10371571402E-02  0.18601747449E-01  0.24669218707E-01  0.51100000000E-03 0. -1.
         11    1    3    3    0    0 -0.27065320125E-02  0.57122962296E-01  0.90111995605E-01  0.10672764876E+00  0.51100000000E-03 0.  1.
</event>
<event>
 8    1  0.1128298E+005  0.1043930E+01  0.7957747E-01            NaN
         13   -1    0    0    0    0  0.00000000000E+00  0.00000000000E+00  0.74505805969E-08  0.10566000000E+00  0.10566000000E+00 0.  1.
     999900   -1    0    0    0    0 -0.00000000000E+00 -0.00000000000E+00 -0.74505805969E-08  0.93827000000E+00  0.93827000000E+00 0. -1.
     999902    2    1    2    0    0  0.34637676886E-02 -0.10401077337E-01  0.20534564739E-01  0.10206523617E+01  0.10203868849E+01 0.  0.
     999903    2    3    3    0    0  0.70275796911E-01 -0.16585721260E-01 -0.10520545335E+00  0.12918578956E+00  0.20174415232E-01 0.  0.
         14    1    1    2    0    0 -0.34637676886E-02  0.10401077337E-01 -0.20534564739E-01  0.23277638312E-01  0.00000000000E+00 0. -1.
     999901    1    3    3    0    0 -0.66812029222E-01  0.61846439234E-02  0.12574001809E+00  0.89146657213E+00  0.88000000000E+00 0.  1.
        -11    1    4    4    0    0  0.46384445131E-01 -0.99037951382E-02 -0.84350636170E-01  0.96772376490E-01  0.51100000000E-03 0.  1.
         11    1    4    4    0    0  0.23891351780E-01 -0.66819261219E-02 -0.20854817177E-01  0.32413413073E-01  0.51100000000E-03 0. -1.
</event>
<event>
 8    1  0.1128298E+005  0.1043930E+01  0.7957747E-01            NaN
         13   -1    0    0    0    0  0.00000000000E+00  0.00000000000E+00  0.74505805969E-08  0.10566000000E+00  0.10566000000E+00 0.  1.
     999900   -1    0    0    0    0 -0.00000000000E+00 -0.00000000000E+00 -0.74505805969E-08  0.93827000000E+00  0.93827000000E+00 0.  1.
     999902    2    1    2    0    0  0.86597091271E-02  0.19695834437E-02  0.21644365893E-01  0.10205345219E+01  0.10202663191E+01 0.  0.
     999903    2    3    3    0    0  0.10706405495E+00  0.42434575362E-01 -0.56714993485E-01  0.13066879042E+00  0.24379033106E-01 0.  0.
         14    1    1    2    0    0 -0.86597091271E-02 -0.19695834437E-02 -0.21644365893E-01  0.23395478111E-01  0.00000000000E+00 0. -1.
     999901    1    3    3    0    0 -0.98404345820E-01 -0.40464991918E-01  0.78359359378E-01  0.88986573147E+00  0.88000000000E+00 0.  1.
        -11    1    4    4    0    0  0.61727974251E-01  0.30779930099E-01 -0.45173940716E-01  0.82454186933E-01  0.51100000000E-03 0.  1.
         11    1    4    4    0    0  0.45336080696E-01  0.11654645263E-01 -0.11541052769E-01  0.48214603484E-01  0.51100000000E-03 0. -1.
</event>
<event>
 8    1  0.1128298E+005  0.1043930E+01  0.7957747E-01            NaN
         13   -1    0    0    0    0  0.00000000000E+00  0.00000000000E+00  0.74505805969E-08  0.10566000000E+00  0.10566000000E+00 0.  1.
     999900   -1    0    0    0    0 -0.00000000000E+00 -0.00000000000E+00 -0.74505805969E-08  0.93827000000E+00  0.93827000000E+00 0.  1.
     999902    2    1    2    0    0 -0.53810891427E-03 -0.21838749261E-01 -0.33230191795E-02  0.10218333263E+01  0.10215943832E+01 0.  0.
     999903    2    3    3    0    0  0.62642252417E-01  0.57716708703E-01  0.96940682254E-01  0.13033254744E+00  0.18270380266E-01 0.  0.
         14    1    1    2    0    0  0.53810891427E-03  0.21838749261E-01  0.33230191795E-02  0.22096673663E-01  0.00000000000E+00 0.  1.
     999901    1    3    3    0    0 -0.63180361331E-01 -0.79555457964E-01 -0.10026370143E+00  0.89150077890E+00  0.88000000000E+00 0.  1.
        -11    1    4    4    0    0  0.16507985173E-01  0.24899943242E-01  0.26323965462E-01  0.39821263499E-01  0.51100000000E-03 0. -1.
         11    1    4    4    0    0  0.46134267243E-01  0.32816765460E-01  0.70616716791E-01  0.90511283941E-01  0.51100000000E-03 0.  1.
</event>
<event>
 8    1  0.1128298E+005  0.1043930E+01  0.7957747E-01            NaN
         13   -1    0    0    0    0  0.00000000000E+00  0.00000000000E+00  0.74505805969E-08  0.10566000000E+00  0.10566000000E+00 0. -1.
     999900   -1    0    0    0    0 -0.00000000000E+00 -0.00000000000E+00 -0.74505805969E-08  0.93827000000E+00  0.93827000000E+00 0. -1.
     999902    2    1    2    0    0 -0.85001644668E-02 -0.18469231628E-01 -0.14236629516E-01  0.10191097072E+01  0.10188074148E+01 0.  0.
     999903    2    3    3    0    0 -0.36593335595E-01  0.10709604717E+00 -0.57799112212E-01  0.12868646214E+00  0.20269006834E-01 0.  0.
         14    1    1    2    0    0  0.85001644668E-02  0.18469231628E-01  0.14236629516E-01  0.24820292763E-01  0.00000000000E+00 0. -1.
     999901    1    3    3    0    0  0.28093171128E-01 -0.12556527879E+00  0.43562482697E-01  0.89042324509E+00  0.88000000000E+00 0.  1.
        -11    1    4    4    0    0  0.16853712305E-02  0.16358257838E-01 -0.94823943619E-02  0.18989734056E-01  0.51100000000E-03 0. -1.
         11    1    4    4    0    0 -0.38278706825E-01  0.90737789328E-01 -0.48316717851E-01  0.10969672809E+00  0.51100000000E-03 0.  1.
</event>
<event>
 8    1  0.1128298E+005  0.1043930E+01  0.7957747E-01            NaN
         13   -1    0    0    0    0  0.00000000000E+00  0.00000000000E+00  0.74505805969E-08  0.10566000000E+00  0.10566000000E+00 0. -1.
     999900   -1    0    0    0    0 -0.00000000000E+00 -0.00000000000E+00 -0.74505805969E-08  0.93827000000E+00  0.93827000000E+00 0. -1.
     999902    2    1    2    0    0  0.86267655959E-02 -0.14692325411E-01 -0.17247403888E-01  0.10196862699E+01  0.10193980236E+01 0.  0.
     999903    2    3    3    0    0 -0.19032064948E-01 -0.12592037040E+00  0.24731089390E-01  0.13126132491E+00  0.19993735400E-01 0.  0.
         14    1    1    2    0    0 -0.86267655959E-02  0.14692325411E-01  0.17247403888E-01  0.24243730149E-01  0.00000000000E+00 0.  1.
     999901    1    3    3    0    0  0.27658830544E-01  0.11122804499E+00 -0.41978493279E-01  0.88842494494E+00  0.88000000000E+00 0. -1.
        -11    1    4    4    0    0 -0.13164721525E-01 -0.52009772125E-01  0.19201039089E-02  0.53686815973E-01  0.51100000000E-03 0.  1.
         11    1    4    4    0    0 -0.58673434233E-02 -0.73910598279E-01  0.22810985481E-01  0.77574508935E-01  0.51100000000E-03 0. -1.
</event>
<event>
 8    1  0.1128298E+005  0.1043930E+01  0.7957747E-01            NaN
         13   -1    0    0    0    0  0.00000000000E+00  0.00000000000E+00  0.74505805969E-08  0.10566000000E+00  0.10566000000E+00 0. -1.
     999900   -1    0    0    0    0 -0.00000000000E+00 -0.00000000000E+00 -0.74505805969E-08  0.93827000000E+00  0.93827000000E+00 0.  1.
     999902    2    1    2    0    0  0.58056047663E-03  0.20718227089E-01  0.12071431396E-01  0.10199445577E+01  0.10196624929E+01 0.  0.
     999903    2    3    3    0    0 -0.37681935806E-01  0.12213584742E+00 -0.28263917005E-01  0.13237681798E+00  0.19689576540E-01 0.  0.
         14    1    1    2    0    0 -0.58056047663E-03 -0.20718227089E-01 -0.12071431396E-01  0.23985442254E-01  0.00000000000E+00 0.  1.
     999901    1    3    3    0    0  0.38262496282E-01 -0.10141762033E+00  0.40335348401E-01  0.88756773976E+00  0.88000000000E+00 0.  1.
        -11    1    4    4    0    0 -0.17083841586E-01  0.81119563457E-01 -0.23856766703E-01  0.86264985117E-01  0.51100000000E-03 0.  1.
         11    1    4    4    0    0 -0.20598094220E-01  0.41016283962E-01 -0.44071503012E-02  0.46111832867E-01  0.51100000000E-03 0. -1.
</event>
<event>
 8    1  0.1128298E+005  0.1043930E+01  0.7957747E-01            NaN
         13   -1    0    0    0    0  0.00000000000E+00  0.00000000000E+00  0.74505805969E-08  0.10566000000E+00  0.10566000000E+00 0. -1.
     999900   -1    0    0    0    0 -0.00000000000E+00 -0.00000000000E+00 -0.74505805969E-08  0.93827000000E+00  0.93827000000E+00 0.  1.
     999902    2    1    2    0    0 -0.12599253768E-01  0.20447560307E-02 -0.18462805096E-01  0.10214845685E+01  0.10212379381E+01 0.  0.
     999903    2    3    3    0    0  0.89357425994E-01 -0.16602116389E-01  0.89141021531E-01  0.12889202210E+00  0.20165609168E-01 0.  0.
         14    1    1    2    0    0  0.12599253768E-01 -0.20447560307E-02  0.18462805096E-01  0.22445431490E-01  0.00000000000E+00 0. -1.
     999901    1    3    3    0    0 -0.10195667976E+00  0.18646872420E-01 -0.10760382663E+00  0.89259254641E+00  0.88000000000E+00 0.  1.
        -11    1    4    4    0    0  0.23339738984E-01 -0.30908294701E-02  0.36244516459E-01  0.43222942253E-01  0.51100000000E-03 0.  1.
         11    1    4    4    0    0  0.66017687010E-01 -0.13511286919E-01  0.52896505072E-01  0.85669079849E-01  0.51100000000E-03 0. -1.
</event>
<event>
 8    1  0.1128298E+005  0.1043930E+01  0.7957747E-01            NaN
         13   -1    0    0    0    0  0.00000000000E+00  0.00000000000E+00  0.74505805969E-08  0.10566000000E+00  0.10566000000E+00 0. -1.
     999900   -1    0    0    0    0 -0.00000000000E+00 -0.00000000000E+00 -0.74505805969E-08  0.93827000000E+00  0.93827000000E+00 0.  1.
     999902    2    1    2    0    0  0.13334112426E-01  0.21633404357E-01 -0.20837135586E-02  0.10184320667E+01  0.10181128277E+01 0.  0.
     999903    2    3    3    0    0  0.44673699719E-01 -0.70992534756E-01  0.93637522133E-01  0.12785680923E+00  0.23317347144E-01 0.  0.
         14    1    1    2    0    0 -0.13334112426E-01 -0.21633404357E-01  0.20837135586E-02  0.25497933258E-01  0.00000000000E+00 0.  1.
     999901    1    3    3    0    0 -0.31339587293E-01  0.92625939113E-01 -0.95721235692E-01  0.89057525751E+00  0.88000000000E+00 0.  1.
        -11    1    4    4    0    0  0.23757586298E-01 -0.17617272834E-01  0.28379388837E-01  0.40993195052E-01  0.51100000000E-03 0. -1.
         11    1    4    4    0    0  0.20916113420E-01 -0.53375261922E-01  0.65258133297E-01  0.86863614179E-01  0.51100000000E-03 0.  1.
</event>
<event>
 8    1  0.1128298E+005  0.1043930E+01  0.7957747E-01            NaN
         13   -1    0    0    0    0  0.00000000000E+00  0.00000000000E+00  0.74505805969E-08  0.10566000000E+00  0.10566000000E+00 0.  1.
     999900   -1    0    0    0    0 -0.00000000000E+00 -0.00000000000E+00 -0.74505805969E-08  0.93827000000E+00  0.93827000000E+00 0.  1.
     999902    2    1    2    0    0  0.21095516863E-01 -0.12536859932E-01 -0.19128883773E-02  0.10193159221E+01  0.10190186928E+01 0.  0.
     999903    2    3    3    0    0 -0.57918837511E-01  0.62321082360E-01  0.92828537364E-01  0.12756319995E+00  0.20413808736E-01 0.  0.
         14    1    1    2    0    0 -0.21095516863E-01  0.12536859932E-01  0.19128883773E-02  0.24614077894E-01  0.00000000000E+00 0. -1.
     999901    1    3    3    0    0  0.79014354374E-01 -0.74857942291E-01 -0.94741425742E-01  0.89175272216E+00  0.88000000000E+00 0.  1.
        -11    1    4    4    0    0 -0.23800997242E-01  0.30205633856E-01  0.27997016127E-01  0.47570598266E-01  0.51100000000E-03 0. -1.
         11    1    4    4    0    0 -0.34117840269E-01  0.32115448503E-01  0.64831521237E-01  0.79992601683E-01  0.51100000000E-03 0.  1.
</event>
<event>
 8    1  0.1128298E+005  0.1043930E+01  0.7957747E-01            NaN
         13   -1    0    0    0    0  0.00000000000E+00  0.00000000000E+00  0.74505805969E-08  0.10566000000E+00  0.10566000000E+00 0. -1.
     999900   -1    0    0    0    0 -0.00000000000E+00 -0.00000000000E+00 -0.74505805969E-08  0.93827000000E+00  0.93827000000E+00 0.  1.
     999902    2    1    2    0    0 -0.70052280416E-02 -0.14931859792E-01 -0.17029336914E-01  0.10202227865E+01  0.10199473036E+01 0.  0.
     999903    2    3    3    0    0 -0.11241079938E+00  0.16531027535E-01 -0.64538513377E-01  0.13210265408E+00  0.19401773515E-01 0.  0.
         14    1    1    2    0    0  0.70052280416E-02  0.14931859792E-01  0.17029336914E-01  0.23707213511E-01  0.00000000000E+00 0. -1.
     999901    1    3    3    0    0  0.10540557134E+00 -0.31462887327E-01  0.47509176463E-01  0.88812013241E+00  0.88000000000E+00 0.  1.
        -11    1    4    4    0    0 -0.21846052435E-01  0.86923633031E-02 -0.70751326236E-02  0.24558619860E-01  0.51100000000E-03 0.  1.
         11    1    4    4    0    0 -0.90564746949E-01  0.78386642321E-02 -0.57463380753E-01  0.10754403422E+00  0.51100000000E-03 0. -1.
</event>
<event>
 8    1  0.1128298E+005  0.1043930E+01  0.7957747E-01            NaN
         13   -1    0    0    0    0  0.00000000000E+00  0.00000000000E+00  0.74505805969E-08  0.10566000000E+00  0.10566000000E+00 0.  1.
     999900   -1    0    0    0    0 -0.00000000000E+00 -0.00000000000E+00 -0.74505805969E-08  0.93827000000E+00  0.93827000000E+00 0. -1.
     999902    2    1    2    0    0 -0.17342558111E-01  0.26422703281E-02  0.14849811729E-01  0.10209460312E+01  0.10206872860E+01 0.  0.
     999903    2    3    3    0    0 -0.10600374147E+00  0.83438114316E-02  0.75514198330E-01  0.13439457706E+00  0.32451437536E-01 0.  0.
         14    1    1    2    0    0  0.17342558111E-01 -0.26422703281E-02 -0.14849811729E-01  0.22983968820E-01  0.00000000000E+00 0. -1.
     999901    1    3    3    0    0  0.88661183359E-01 -0.57015411034E-02 -0.60664386601E-01  0.88655145412E+00  0.88000000000E+00 0. -1.
        -11    1    4    4    0    0 -0.90297207557E-01  0.16530942848E-01  0.71153659658E-01  0.11614629640E+00  0.51100000000E-03 0. -1.
         11    1    4    4    0    0 -0.15706533912E-01 -0.81871314166E-02  0.43605386722E-02  0.18248280656E-01  0.51100000000E-03 0.  1.
</event>
<event>
 8    1  0.1128298E+005  0.1043930E+01  0.7957747E-01            NaN
         13   -1    0    0    0    0  0.00000000000E+00  0.00000000000E+00  0.74505805969E-08  0.10566000000E+00  0.10566000000E+00 0.  1.
     999900   -1    0    0    0    0 -0.00000000000E+00 -0.00000000000E+00 -0.74505805969E-08  0.93827000000E+00  0.93827000000E+00 0.  1.
     999902    2    1    2    0    0 -0.92143260269E-02 -0.22779648960E-01  0.29756106860E-03  0.10193555264E+01  0.10190592644E+01 0.  0.
     999903    2    3    3    0    0  0.67230281439E-01  0.10183556982E+00 -0.27166129954E-01  0.12687192145E+00  0.21635429542E-01 0.  0.
         14    1    1    2    0    0  0.92143260269E-02  0.22779648960E-01 -0.29756106860E-03  0.24574473615E-01  0.00000000000E+00 0. -1.
     999901    1    3    3    0    0 -0.76444607466E-01 -0.12461521878E+00  0.27463691023E-01  0.89248360494E+00  0.88000000000E+00 0.  1.
        -11    1    4    4    0    0  0.58581257873E-01  0.81663928983E-01 -0.14550511228E-01  0.10155165961E+00  0.51100000000E-03 0. -1.
         11    1    4    4    0    0  0.86490235669E-02  0.20171640837E-01 -0.12615618726E-01  0.25320261838E-01  0.51100000000E-03 0.  1.
</event>
<event>
 8    1  0.1128298E+005  0.1043930E+01  0.7957747E-01            NaN
         13   -1    0    0    0    0  0.00000000000E+00  0.00000000000E+00  0.74505805969E-08  0.10566000000E+00  0.10566000000E+00 0. -1.
     999900   -1    0    0    0    0 -0.00000000000E+00 -0.00000000000E+00 -0.74505805969E-08  0.93827000000E+00  0.93827000000E+00 0.  1.
     999902    2    1    2    0    0 -0.22867106251E-02 -0.97239342729E-02  0.21286158205E-01  0.10204165044E+01  0.10201455573E+01 0.  0.
     999903    2    3    3    0    0  0.30633857713E-01  0.13211076566E-01 -0.12190997044E+00  0.12793966450E+00  0.19838121790E-01 0.  0.
         14    1    1    2    0    0  0.22867106251E-02  0.97239342729E-02 -0.21286158205E-01  0.23513495579E-01  0.00000000000E+00 0.  1.
     999901    1    3    3    0    0 -0.32920568338E-01 -0.22935010839E-01  0.14319612865E+00  0.89247683992E+00  0.88000000000E+00 0. -1.
        -11    1    4    4    0    0  0.14142175104E-01 -0.40039313087E-02 -0.53908850518E-01  0.55878957289E-01  0.51100000000E-03 0.  1.
         11    1    4    4    0    0  0.16491682608E-01  0.17215007874E-01 -0.68001119923E-01  0.72060707207E-01  0.51100000000E-03 0. -1.
</event>
<event>
 8    1  0.1128298E+005  0.1043930E+01  0.7957747E-01            NaN
         13   -1    0    0    0    0  0.00000000000E+00  0.00000000000E+00  0.74505805969E-08  0.10566000000E+00  0.10566000000E+00 0. -1.
     999900   -1    0    0    0    0 -0.00000000000E+00 -0.00000000000E+00 -0.74505805969E-08  0.93827000000E+00  0.93827000000E+00 0. -1.
     999902    2    1    2    0    0  0.16141910708E-02  0.13734800330E-01 -0.19526455513E-01  0.10200023420E+01  0.10197216507E+01 0.  0.
     999903    2    3    3    0    0 -0.99917347271E-01 -0.76740824443E-01  0.17560907862E-01  0.12878409460E+00  0.20107886904E-01 0.  0.
         14    1    1    2    0    0 -0.16141910708E-02 -0.13734800330E-01  0.19526455513E-01  0.23927658010E-01  0.00000000000E+00 0. -1.
     999901    1    3    3    0    0  0.10153153834E+00  0.90475624773E-01 -0.37087363375E-01  0.89121824739E+00  0.88000000000E+00 0. -1.
        -11    1    4    4    0    0 -0.42287781152E-01 -0.44279265005E-01  0.12093848699E-01  0.62413396330E-01  0.51100000000E-03 0.  1.
         11    1    4    4    0    0 -0.57629566119E-01 -0.32461559437E-01  0.54670591631E-02  0.66370698272E-01  0.51100000000E-03 0. -1.
</event>
<event>
 8    1  0.1128298E+005  0.1043930E+01  0.7957747E-01            NaN
         13   -1    0    0    0    0  0.00000000000E+00  0.00000000000E+00  0.74505805969E-08  0.10566000000E+00  0.10566000000E+00 0. -1.
     999900   -1    0    0    0    0 -0.00000000000E+00 -0.00000000000E+00 -0.74505805969E-08  0.93827000000E+00  0.93827000000E+00 0. -1.
     999902    2    1    2    0    0 -0.22875759650E-01 -0.52168347942E-02 -0.15112713140E-02  0.10204183075E+01  0.10201474024E+01 0.  0.
     999903    2    3    3    0    0  0.79102367354E-01  0.42160528480E-01 -0.90132529231E-01  0.12884785019E+00  0.21052339292E-01 0.  0.
         14    1    1    2    0    0  0.22875759650E-01  0.52168347942E-02  0.15112713140E-02  0.23511692534E-01  0.00000000000E+00 0. -1.
     999901    1    3    3    0    0 -0.10197812700E+00 -0.47377363274E-01  0.88621257917E-01  0.89157045728E+00  0.88000000000E+00 0. -1.
        -11    1    4    4    0    0  0.41943486157E-01  0.34058799786E-01 -0.52077774494E-01  0.75044077655E-01  0.51100000000E-03 0. -1.
         11    1    4    4    0    0  0.37158881196E-01  0.81017286942E-02 -0.38054754737E-01  0.53803772532E-01  0.51100000000E-03 0.  1.
</event>
<event>
 8    1  0.1128298E+005  0.1043930E+01  0.7957747E-01            NaN
         13   -1    0    0    0    0  0.00000000000E+00  0.00000000000E+00  0.74505805969E-08  0.10566000000E+00  0.10566000000E+00 0. -1.
     999900   -1    0    0    0    0 -0.00000000000E+00 -0.00000000000E+00 -0.74505805969E-08  0.93827000000E+00  0.93827000000E+00 0.  1.
     999902    2    1    2    0    0 -0.10060302113E-01 -0.73551883578E-02 -0.20970617021E-01  0.10195358357E+01  0.10192439575E+01 0.  0.
     999903    2    3    3    0    0 -0.12273187259E+00  0.24648899606E-02  0.39169693395E-01  0.13026187696E+00  0.19097211231E-01 0.  0.
         14    1    1    2    0    0  0.10060302113E-01  0.73551883578E-02  0.20970617021E-01  0.24394164315E-01  0.00000000000E+00 0. -1.
     999901    1    3    3    0    0  0.11267157047E+00 -0.98200783184E-02 -0.60140310416E-01  0.88927395873E+00  0.88000000000E+00 0.  1.
        -11    1    4    4    0    0 -0.40968912576E-01  0.84974109719E-02  0.83197967402E-02  0.42663074546E-01  0.51100000000E-03 0.  1.
         11    1    4    4    0    0 -0.81762960012E-01 -0.60325210113E-02  0.30849896654E-01  0.87598802413E-01  0.51100000000E-03 0. -1.
</event>
<event>
 8    1  0.1128298E+005  0.1043930E+01  0.7957747E-01            NaN
         13   -1    0    0    0    0  0.00000000000E+00  0.00000000000E+00  0.74505805969E-08  0.10566000000E+00  0.10566000000E+00 0. -1.
     999900   -1    0    0    0    0 -0.00000000000E+00 -0.00000000000E+00 -0.74505805969E-08  0.93827000000E+00  0.93827000000E+00 0. -1.
     999902    2    1    2    0    0  0.20237834123E-01  0.54817273047E-02  0.77197834340E-02  0.10215868955E+01  0.10213425335E+01 0.  0.
     999903    2    3    3    0    0  0.69810635859E-01  0.16588285732E-03  0.11254673430E+00  0.13396399664E+00  0.20150250566E-01 0.  0.
         14    1    1    2    0    0 -0.20237834123E-01 -0.54817273047E-02 -0.77197834340E-02  0.22343104540E-01  0.00000000000E+00 0.  1.
     999901    1    3    3    0    0 -0.49572801736E-01  0.53158444474E-02 -0.10482695087E+00  0.88762289882E+00  0.88000000000E+00 0. -1.
        -11    1    4    4    0    0  0.36280135123E-01  0.88870304587E-02  0.49385661566E-01  0.61922792284E-01  0.51100000000E-03 0.  1.
         11    1    4    4    0    0  0.33530500737E-01 -0.87211476014E-02  0.63161072738E-01  0.72041204360E-01  0.51100000000E-03 0. -1.
</event>
<event>
 8    1  0.1128298E+005  0.1043930E+01  0.7957747E-01            NaN
         13   -1    0    0    0    0  0.00000000000E+00  0.00000000000E+00  0.74505805969E-08  0.10566000000E+00  0.10566000000E+00 0. -1.
     999900   -1    0    0    0    0 -0.00000000000E+00 -0.00000000000E+00 -0.74505805969E-08  0.93827000000E+00  0.93827000000E+00 0.  1.
     999902    2    1    2    0    0  0.79685292542E-03  0.46547173774E-02  0.22828723745E-01  0.10206179431E+01  0.10203516716E+01 0.  0.
     999903    2    3    3    0    0  0.12655877835E+00 -0.12348571532E-01  0.27214808631E-01  0.13150354583E+00  0.19568473609E-01 0.  0.
         14    1    1    2    0    0 -0.79685292542E-03 -0.46547173774E-02 -0.22828723745E-01  0.23312056886E-01  0.00000000000E+00 0.  1.
     999901    1    3    3    0    0 -0.12576192543E+00  0.17003288909E-01 -0.43860848859E-02  0.88911439729E+00  0.88000000000E+00 0. -1.
        -11    1    4    4    0    0  0.19800382008E-01 -0.60122493993E-02  0.10657807813E-01  0.23282015782E-01  0.51100000000E-03 0.  1.
         11    1    4    4    0    0  0.10675839634E+00 -0.63363221322E-02  0.16557000818E-01  0.10822153005E+00  0.51100000000E-03 0. -1.
</event>
<event>
 8    1  0.1128298E+005  0.1043930E+01  0.7957747E-01            NaN
         13   -1    0    0    0    0  0.00000000000E+00  0.00000000000E+00  0.74505805969E-08  0.10566000000E+00  0.10566000000E+00 0. -1.
     999900   -1    0    0    0    0 -0.00000000000E+00 -0.00000000000E+00 -0.74505805969E-08  0.93827000000E+00  0.93827000000E+00 0. -1.
     999902    2    1    2    0    0 -0.60665773942E-02 -0.17050492694E-01 -0.14385178325E-01  0.10208116952E+01  0.10205498817E+01 0.  0.
     999903    2    3    3    0    0  0.10529053480E+00  0.53910465952E-01 -0.50672050730E-01  0.13022054252E+00  0.19932333292E-01 0.  0.
         14    1    1    2    0    0  0.60665773942E-02  0.17050492694E-01  0.14385178325E-01  0.23118304822E-01  0.00000000000E+00 0. -1.
     999901    1    3    3    0    0 -0.11135711220E+00 -0.70960958646E-01  0.36286872405E-01  0.89059115266E+00  0.88000000000E+00 0.  1.
        -11    1    4    4    0    0  0.77396361025E-01  0.49025415238E-01 -0.37816383425E-01  0.99116234874E-01  0.51100000000E-03 0. -1.
         11    1    4    4    0    0  0.27894173776E-01  0.48850507134E-02 -0.12855667306E-01  0.31104307643E-01  0.51100000000E-03 0.  1.
</event>
<event>
 8    1  0.1128298E+005  0.1043930E+01  0.7957747E-01            NaN
         13   -1    0    0    0    0  0.00000000000E+00  0.00000000000E+00  0.74505805969E-08  0.10566000000E+00  0.10566000000E+00 0. -1.
     999900   -1    0    0    0    0 -0.00000000000E+00 -0.00000000000E+00 -0.74505805969E-08  0.93827000000E+00  0.93827000000E+00 0.  1.
     999902    2    1    2    0    0 -0.47933395320E-02 -0.92914919334E-02  0.20344305478E-01  0.10210564631E+01  0.10208002263E+01 0.  0.
     999903    2    3    3    0    0  0.44650609349E-01 -0.51567978979E-01  0.11319304012E+00  0.13378373557E+00  0.20796398777E-01 0.  0.
         14    1    1    2    0    0  0.47933395320E-02  0.92914919334E-02 -0.20344305478E-01  0.22873536928E-01  0.00000000000E+00 0.  1.
     999901    1    3    3    0    0 -0.49443948881E-01  0.42276487046E-01 -0.92848734639E-01  0.88727272750E+00  0.88000000000E+00 0.  1.
        -11    1    4    4    0    0  0.22086113075E-01 -0.29209400670E-01  0.79189801871E-01  0.87248331329E-01  0.51100000000E-03 0. -1.
         11    1    4    4    0    0  0.22564496274E-01 -0.22358578309E-01  0.34003238245E-01  0.46535404245E-01  0.51100000000E-03 0.  1.
</event>
<event>
 8    1  0.1128298E+005  0.1043930E+01  0.7957747E-01            NaN
         13   -1    0    0    0    0  0.00000000000E+00  0.00000000000E+00  0.74505805969E-08  0.10566000000E+00  0.10566000000E+00 0. -1.
     999900   -1    0    0    0    0 -0.00000000000E+00 -0.00000000000E+00 -0.74505805969E-08  0.93827000000E+00  0.93827000000E+00 0.  1.
     999902    2    1    2    0    0  0.83071014536E-02 -0.17863351842E-01 -0.12488925173E-01  0.10206044662E+01  0.10203378832E+01 0.  0.
     999903    2    3    3    0    0  0.88962035901E-01  0.48018278558E-01 -0.82033340261E-01  0.13173887834E+00  0.20141108305E-01 0.  0.
         14    1    1    2    0    0 -0.83071014536E-02  0.17863351842E-01  0.12488925173E-01  0.23325533768E-01  0.00000000000E+00 0.  1.
     999901    1    3    3    0    0 -0.80654934447E-01 -0.65881630400E-01  0.69544415087E-01  0.88886558790E+00  0.88000000000E+00 0. -1.
        -11    1    4    4    0    0  0.61740866879E-01  0.42895153681E-01 -0.56268300784E-01  0.93905865878E-01  0.51100000000E-03 0. -1.
         11    1    4    4    0    0  0.27221169022E-01  0.51231248774E-02 -0.25765039477E-01  0.37833012459E-01  0.51100000000E-03 0.  1.
</event>
<event>
 8    1  0.1128298E+005  0.1043930E+01  0.7957747E-01            NaN
         13   -1    0    0    0    0  0.00000000000E+00  0.00000000000E+00  0.74505805969E-08  0.10566000000E+00  0.10566000000E+00 0.  1.
     999900   -1    0    0    0    0 -0.00000000000E+00 -0.00000000000E+00 -0.74505805969E-08  0.93827000000E+00  0.93827000000E+00 0. -1.
     999902    2    1    2    0    0 -0.15573036519E-01  0.28570164674E-02  0.12884812848E-01  0.10235167589E+01  0.10233131756E+01 0.  0.
     999903    2    3    3    0    0  0.12065441429E+00 -0.42814961326E-01 -0.19840482773E-01  0.13126410810E+00  0.21119013159E-01 0.  0.
         14    1    1    2    0    0  0.15573036519E-01 -0.28570164674E-02 -0.12884812848E-01  0.20413241086E-01  0.00000000000E+00 0.  1.
     999901    1    3    3    0    0 -0.13622745081E+00  0.45671977793E-01  0.32725295620E-01  0.89225265081E+00  0.88000000000E+00 0.  1.
        -11    1    4    4    0    0  0.56561819588E-01 -0.19417929105E-01 -0.19913395274E-01  0.63032529999E-01  0.51100000000E-03 0.  1.
         11    1    4    4    0    0  0.64092594707E-01 -0.23397032221E-01  0.72912501265E-04  0.68231578101E-01  0.51100000000E-03 0. -1.
</event>
<event>
 7    1  0.1128298E+005  0.1043930E+01  0.7957747E-01            NaN
         13   -1    0    0    0    0  0.00000000000E+00  0.00000000000E+00  0.74505805969E-08  0.10566000000E+00  0.10566000000E+00 0. -1.
     999900   -1    0    0    0    0 -0.00000000000E+00 -0.00000000000E+00 -0.74505805969E-08  0.93827000000E+00  0.93827000000E+00 0.  1.
     999903    2    1    2    0    0  0.93042881054E-02 -0.54375001761E-01  0.80356380076E-01  0.99561865669E-01  0.20302873761E-01 0.  0.
         14    1    1    2    0    0 -0.38376609800E-01  0.73256716857E-02  0.38267095893E-01  0.54688209639E-01  0.00000000000E+00 0. -1.
     999901    1    1    2    0    0  0.29072321695E-01  0.47049330075E-01 -0.11862347597E+00  0.88967992469E+00  0.88000000000E+00 0. -1.
        -11    1    3    3    0    0  0.51905895037E-02 -0.42835895862E-01  0.45949010406E-01  0.63035139978E-01  0.51100000000E-03 0. -1.
         11    1    3    3    0    0  0.41136986017E-02 -0.11539105898E-01  0.34407369670E-01  0.36526725691E-01  0.51100000000E-03 0.  1.
</event>
<event>
 8    1  0.1128298E+005  0.1043930E+01  0.7957747E-01            NaN
         13   -1    0    0    0    0  0.00000000000E+00  0.00000000000E+00  0.74505805969E-08  0.10566000000E+00  0.10566000000E+00 0. -1.
     999900   -1    0    0    0    0 -0.00000000000E+00 -0.00000000000E+00 -0.74505805969E-08  0.93827000000E+00  0.93827000000E+00 0.  1.
     999902    2    1    2    0    0  0.16000194247E-01  0.11529025914E-02 -0.16887276579E-01  0.10206380376E+01  0.10203722303E+01 0.  0.
     999903    2    3    3    0    0  0.10043164991E+00 -0.63967535815E-01 -0.56616668471E-01  0.13331184802E+00  0.19703799941E-01 0.  0.
         14    1    1    2    0    0 -0.16000194247E-01 -0.11529025914E-02  0.16887276579E-01  0.23291962361E-01  0.00000000000E+00 0. -1.
     999901    1    3    3    0    0 -0.84431455662E-01  0.65120438407E-01  0.39729391892E-01  0.88732618962E+00  0.88000000000E+00 0. -1.
        -11    1    4    4    0    0  0.73506384650E-01 -0.39378328618E-01 -0.32032685723E-01  0.89331939555E-01  0.51100000000E-03 0.  1.
         11    1    4    4    0    0  0.26925265260E-01 -0.24589207197E-01 -0.24583982748E-01  0.43979908466E-01  0.51100000000E-03 0. -1.
</event>
<event>
 8    1  0.1128298E+005  0.1043930E+01  0.7957747E-01            NaN
         13   -1    0    0    0    0  0.00000000000E+00  0.00000000000E+00  0.74505805969E-08  0.10566000000E+00  0.10566000000E+00 0.  1.
     999900   -1    0    0    0    0 -0.00000000000E+00 -0.00000000000E+00 -0.74505805969E-08  0.93827000000E+00  0.93827000000E+00 0.  1.
     999902    2    1    2    0    0  0.12670451177E-01  0.16556945292E-01  0.80951477194E-02  0.10215647549E+01  0.10213199030E+01 0.  0.
     999903    2    3    3    0    0  0.12766470657E+00 -0.20661886530E-01 -0.22126376999E-01  0.13278904601E+00  0.20449042065E-01 0.  0.
         14    1    1    2    0    0 -0.12670451177E-01 -0.16556945292E-01 -0.80951477194E-02  0.22365245070E-01  0.00000000000E+00 0. -1.
     999901    1    3    3    0    0 -0.11499425539E+00  0.37218831822E-01  0.30221524718E-01  0.88877570892E+00  0.88000000000E+00 0.  1.
        -11    1    4    4    0    0  0.39640009139E-01 -0.14911726832E-01 -0.25665255621E-02  0.42432747921E-01  0.51100000000E-03 0. -1.
         11    1    4    4    0    0  0.88024697432E-01 -0.57501596987E-02 -0.19559851437E-01  0.90356298086E-01  0.51100000000E-03 0.  1.
</event>
<event>
 8    1  0.1128298E+005  0.1043930E+01  0.7957747E-01            NaN
         13   -1    0    0    0    0  0.00000000000E+00  0.00000000000E+00  0.74505805969E-08  0.10566000000E+00  0.10566000000E+00 0.  1.
     999900   -1    0    0    0    0 -0.00000000000E+00 -0.00000000000E+00 -0.74505805969E-08  0.93827000000E+00  0.93827000000E+00 0.  1.
     999902    2    1    2    0    0  0.22693113937E-01 -0.70119749028E-02 -0.42077754471E-02  0.10198084207E+01  0.10195231064E+01 0.  0.
     999903    2    3    3    0    0 -0.67147222903E-01  0.10391257832E+00  0.28780158300E-01  0.12769646228E+00  0.13096392270E-01 0.  0.
         14    1    1    2    0    0 -0.22693113937E-01  0.70119749028E-02  0.42077754471E-02  0.24121579268E-01  0.00000000000E+00 0.  1.
     999901    1    3    3    0    0  0.89840336839E-01 -0.11092455323E+00 -0.32987933747E-01  0.89211195845E+00  0.88000000000E+00 0. -1.
        -11    1    4    4    0    0 -0.30752244362E-01  0.59128553999E-01  0.13594027618E-01  0.68021651988E-01  0.51100000000E-03 0.  1.
         11    1    4    4    0    0 -0.36394978541E-01  0.44784024326E-01  0.15186130681E-01  0.59674810296E-01  0.51100000000E-03 0. -1.
</event>
<event>
 8    1  0.1128298E+005  0.1043930E+01  0.7957747E-01            NaN
         13   -1    0    0    0    0  0.00000000000E+00  0.00000000000E+00  0.74505805969E-08  0.10566000000E+00  0.10566000000E+00 0. -1.
     999900   -1    0    0    0    0 -0.00000000000E+00 -0.00000000000E+00 -0.74505805969E-08  0.93827000000E+00  0.93827000000E+00 0. -1.
     999902    2    1    2    0    0  0.11944564123E-01  0.10927421218E-02  0.24252641850E-01  0.10168734419E+01  0.10165134232E+01 0.  0.
     999903    2    3    3    0    0 -0.90170781830E-01  0.28350152922E-01  0.84771427783E-01  0.12848555719E+00  0.19693713996E-01 0.  0.
         14    1    1    2    0    0 -0.11944564123E-01 -0.10927421218E-02 -0.24252641850E-01  0.27056558061E-01  0.00000000000E+00 0.  1.
     999901    1    3    3    0    0  0.10211534595E+00 -0.27257410800E-01 -0.60518785933E-01  0.88838788475E+00  0.88000000000E+00 0. -1.
        -11    1    4    4    0    0 -0.16288993695E-01  0.25418188782E-02  0.62933270907E-02  0.17653873391E-01  0.51100000000E-03 0. -1.
         11    1    4    4    0    0 -0.73881788134E-01  0.25808334044E-01  0.78478100692E-01  0.11083168380E+00  0.51100000000E-03 0.  1.
</event>
<event>
 8    1  0.1128298E+005  0.1043930E+01  0.7957747E-01            NaN
         13   -1    0    0    0    0  0.00000000000E+00  0.00000000000E+00  0.74505805969E-08  0.10566000000E+00  0.10566000000E+00 0.  1.
     999900   -1    0    0    0    0 -0.00000000000E+00 -0.00000000000E+00 -0.74505805969E-08  0.93827000000E+00  0.93827000000E+00 0.  1.
     999902    2    1    2    0    0 -0.20599203267E-01 -0.10540160873E-01 -0.11751775773E-01  0.10179776128E+01  0.10176467431E+01 0.  0.
     999903    2    3    3    0    0  0.18518931077E-01  0.46986019611E-01  0.11426371885E+00  0.12628293707E+00  0.18453885860E-01 0.  0.
         14    1    1    2    0    0  0.20599203267E-01  0.10540160873E-01  0.11751775773E-01  0.25952387179E-01  0.00000000000E+00 0.  1.
     999901    1    3    3    0    0 -0.39118134344E-01 -0.57526180484E-01 -0.12601549462E+00  0.89169467575E+00  0.88000000000E+00 0.  1.
        -11    1    4    4    0    0  0.11702328220E-01  0.38548641043E-01  0.70577693111E-01  0.81267546400E-01  0.51100000000E-03 0.  1.
         11    1    4    4    0    0  0.68166028572E-02  0.84373785682E-02  0.43686025737E-01  0.45015390671E-01  0.51100000000E-03 0. -1.
</event>
<event>
 8    1  0.1128298E+005  0.1043930E+01  0.7957747E-01            NaN
         13   -1    0    0    0    0  0.00000000000E+00  0.00000000000E+00  0.74505805969E-08  0.10566000000E+00  0.10566000000E+00 0.  1.
     999900   -1    0    0    0    0 -0.00000000000E+00 -0.00000000000E+00 -0.74505805969E-08  0.93827000000E+00  0.93827000000E+00 0. -1.
     999902    2    1    2    0    0 -0.38566099092E-02  0.24291332502E-01  0.12473155528E-02  0.10193028185E+01  0.10190052687E+01 0.  0.
     999903    2    3    3    0    0  0.64046904018E-02  0.12320130857E+00 -0.45133567379E-01  0.13248848391E+00  0.17221410307E-01 0.  0.
         14    1    1    2    0    0  0.38566099092E-02 -0.24291332502E-01 -0.12473155528E-02  0.24627181544E-01  0.00000000000E+00 0.  1.
     999901    1    3    3    0    0 -0.10261300311E-01 -0.98909976068E-01  0.46380882932E-01  0.88681433454E+00  0.88000000000E+00 0. -1.
        -11    1    4    4    0    0  0.43570838213E-02  0.69503550785E-02 -0.18618424965E-02  0.84272886283E-02  0.51100000000E-03 0.  1.
         11    1    4    4    0    0  0.20476065805E-02  0.11625095349E+00 -0.43271724882E-01  0.12406119528E+00  0.51100000000E-03 0. -1.
</event>
<event>
 8    1  0.1128298E+005  0.1043930E+01  0.7957747E-01            NaN
         13   -1    0    0    0    0  0.00000000000E+00  0.00000000000E+00  0.74505805969E-08  0.10566000000E+00  0.10566000000E+00 0.  1.
     999900   -1    0    0    0    0 -0.00000000000E+00 -0.00000000000E+00 -0.74505805969E-08  0.93827000000E+00  0.93827000000E+00 0. -1.
     999902    2    1    2    0    0 -0.32035709840E-02  0.23134687416E-01  0.14075547499E-02  0.10205321830E+01  0.10202639260E+01 0.  0.
     999903    2    3    3    0    0  0.38979190667E-01  0.10711454444E+00  0.65932675963E-01  0.13317910052E+00  0.19916127108E-01 0.  0.
         14    1    1    2    0    0  0.32035709840E-02 -0.23134687416E-01 -0.14075547499E-02  0.23397816976E-01  0.00000000000E+00 0.  1.
     999901    1    3    3    0    0 -0.42182761651E-01 -0.83979857025E-01 -0.64525121214E-01  0.88735308251E+00  0.88000000000E+00 0. -1.
        -11    1    4    4    0    0  0.34385003821E-01  0.82145643417E-01  0.42698990204E-01  0.98760822726E-01  0.51100000000E-03 0. -1.
         11    1    4    4    0    0  0.45941868465E-02  0.24968901024E-01  0.23233685759E-01  0.34418277791E-01  0.51100000000E-03 0.  1.
</event>
<event>
 8    1  0.1128298E+005  0.1043930E+01  0.7957747E-01            NaN
         13   -1    0    0    0    0  0.00000000000E+00  0.00000000000E+00  0.74505805969E-08  0.10566000000E+00  0.10566000000E+00 0.  1.
     999900   -1    0    0    0    0 -0.00000000000E+00 -0.00000000000E+00 -0.74505805969E-08  0.93827000000E+00  0.93827000000E+00 0. -1.
     999902    2    1    2    0    0 -0.64455133829E-03 -0.82514916762E-02  0.23690043429E-01  0.10188357632E+01  0.10185266770E+01 0.  0.
     999903    2    3    3    0    0  0.99447211790E-01  0.17998943815E-01  0.80688147034E-01  0.13094149575E+00  0.20527745285E-01 0.  0.
         14    1    1    2    0    0  0.64455133829E-03  0.82514916762E-02 -0.23690043429E-01  0.25094236768E-01  0.00000000000E+00 0. -1.
     999901    1    3    3    0    0 -0.10009176313E+00 -0.26250435491E-01 -0.56998103605E-01  0.88789426748E+00  0.88000000000E+00 0. -1.
        -11    1    4    4    0    0  0.45126792720E-01 -0.20704096070E-02  0.33602691304E-01  0.56303783186E-01  0.51100000000E-03 0. -1.
         11    1    4    4    0    0  0.54320419070E-01  0.20069353422E-01  0.47085455730E-01  0.74637712565E-01  0.51100000000E-03 0.  1.
</event>
<event>
 8    1  0.1128298E+005  0.1043930E+01  0.7957747E-01            NaN
         13   -1    0    0    0    0  0.00000000000E+00  0.00000000000E+00  0.74505805969E-08  0.10566000000E+00  0.10566000000E+00 0. -1.
     999900   -1    0    0    0    0 -0.00000000000E+00 -0.00000000000E+00 -0.74505805969E-08  0.93827000000E+00  0.93827000000E+00 0. -1.
     999902    2    1    2    0    0  0.76629917277E-02 -0.51799164543E-02  0.22035991510E-01  0.10200315084E+01  0.10197515091E+01 0.  0.
     999903    2    3    3    0    0  0.10788887261E+00  0.60304146942E-01  0.40908306763E-01  0.13172438023E+00  0.20030571966E-01 0.  0.
         14    1    1    2    0    0 -0.76629917277E-02  0.51799164543E-02 -0.22035991510E-01  0.23898491553E-01  0.00000000000E+00 0.  1.
     999901    1    3    3    0    0 -0.10022588088E+00 -0.65484063396E-01 -0.18872315253E-01  0.88830712822E+00  0.88000000000E+00 0.  1.
        -11    1    4    4    0    0  0.61280234065E-01  0.37937596050E-01  0.13929907353E-01  0.73408662438E-01  0.51100000000E-03 0. -1.
         11    1    4    4    0    0  0.46608638545E-01  0.22366550892E-01  0.26978399411E-01  0.58315717792E-01  0.51100000000E-03 0.  1.
</event>
<event>
 8    1  0.1128298E+005  0.1043930E+01  0.7957747E-01            NaN
         13   -1    0    0    0    0  0.00000000000E+00  0.00000000000E+00  0.74505805969E-08  0.10566000000E+00  0.10566000000E+00 0. -1.
     999900   -1    0    0    0    0 -0.00000000000E+00 -0.00000000000E+00 -0.74505805969E-08  0.93827000000E+00  0.93827000000E+00 0.  1.
     999902    2    1    2    0    0  0.20703815501E-01  0.34281811798E-02 -0.43075858785E-03  0.10229398605E+01  0.10227244850E+01 0.  0.
     999903    2    3    3    0    0  0.11601423240E+00  0.37244318233E-01 -0.55504186094E-01  0.13543735961E+00  0.20399077047E-01 0.  0.
         14    1    1    2    0    0 -0.20703815501E-01 -0.34281811798E-02  0.43075858785E-03  0.20990139482E-01  0.00000000000E+00 0. -1.
     999901    1    3    3    0    0 -0.95310416901E-01 -0.33816137053E-01  0.55073427506E-01  0.88750250090E+00  0.88000000000E+00 0. -1.
        -11    1    4    4    0    0  0.55910755877E-01  0.15215448732E-01 -0.37189095275E-01  0.68853557869E-01  0.51100000000E-03 0. -1.
         11    1    4    4    0    0  0.60103476526E-01  0.22028869501E-01 -0.18315090819E-01  0.66583801744E-01  0.51100000000E-03 0.  1.
</event>
<event>
 8    1  0.1128298E+005  0.1043930E+01  0.7957747E-01            NaN
         13   -1    0    0    0    0  0.00000000000E+00  0.00000000000E+00  0.74505805969E-08  0.10566000000E+00  0.10566000000E+00 0. -1.
     999900   -1    0    0    0    0 -0.00000000000E+00 -0.00000000000E+00 -0.74505805969E-08  0.93827000000E+00  0.93827000000E+00 0. -1.
     999902    2    1    2    0    0 -0.17975423184E-01 -0.10927159493E-01  0.14421457359E-01  0.10184251556E+01  0.10181057413E+01 0.  0.
     999903    2    3    3    0    0 -0.23004173858E-01  0.93709185295E-02 -0.12339872398E+00  0.12745282011E+00  0.19999253594E-01 0.  0.
         14    1    1    2    0    0  0.17975423184E-01  0.10927159493E-01 -0.14421457359E-01  0.25504844355E-01  0.00000000000E+00 0.  1.
     999901    1    3    3    0    0  0.50287506749E-02 -0.20298078022E-01  0.13782018134E+00  0.89097233554E+00  0.88000000000E+00 0.  1.
        -11    1    4    4    0    0 -0.25435893193E-01  0.87058195052E-02 -0.89383930448E-01  0.93340902605E-01  0.51100000000E-03 0. -1.
         11    1    4    4    0    0  0.24317193342E-02  0.66509902439E-03 -0.34014793535E-01  0.34111917505E-01  0.51100000000E-03 0.  1.
</event>
<event>
 8    1  0.1128298E+005  0.1043930E+01  0.7957747E-01            NaN
         13   -1    0    0    0    0  0.00000000000E+00  0.00000000000E+00  0.74505805969E-08  0.10566000000E+00  0.10566000000E+00 0.  1.
     999900   -1    0    0    0    0 -0.00000000000E+00 -0.00000000000E+00 -0.74505805969E-08  0.93827000000E+00  0.93827000000E+00 0.  1.
     999902    2    1    2    0    0 -0.72495883351E-02  0.22468731113E-01  0.15389801420E-01  0.10157476226E+01  0.10153565809E+01 0.  0.
     999903    2    3    3    0    0 -0.88350196040E-01 -0.59115031659E-01  0.66250386709E-01  0.12680441965E+00  0.19745961478E-01 0.  0.
         14    1    1    2    0    0  0.72495883351E-02 -0.22468731113E-01 -0.15389801420E-01  0.28182377412E-01  0.00000000000E+00 0. -1.
     999901    1    3    3    0    0  0.81100607705E-01  0.81583762773E-01 -0.50860585289E-01  0.88894320294E+00  0.88000000000E+00 0.  1.
        -11    1    4    4    0    0 -0.40775819006E-01 -0.28238932652E-01  0.19480801751E-01  0.53290407118E-01  0.51100000000E-03 0.  1.
         11    1    4    4    0    0 -0.47574377034E-01 -0.30876099007E-01  0.46769584957E-01  0.73514012529E-01  0.51100000000E-03 0. -1.
</event>
<event>
 8    1  0.1128298E+005  0.1043930E+01  0.7957747E-01            NaN
         13   -1    0    0    0    0  0.00000000000E+00  0.00000000000E+00  0.74505805969E-08  0.10566000000E+00  0.10566000000E+00 0. -1.
     999900   -1    0    0    0    0 -0.00000000000E+00 -0.00000000000E+00 -0.74505805969E-08  0.93827000000E+00  0.93827000000E+00 0.  1.
     999902    2    1    2    0    0  0.19985538187E-01 -0.86370907051E-02 -0.99563664090E-02  0.10199894423E+01  0.10197084446E+01 0.  0.
     999903    2    3    3    0    0  0.59627685765E-01 -0.29783843264E-01 -0.11293070691E+00  0.13284661284E+00  0.21268280362E-01 0.  0.
         14    1    1    2    0    0 -0.19985538187E-01  0.86370907051E-02  0.99563664090E-02  0.23940557733E-01  0.00000000000E+00 0.  1.
     999901    1    3    3    0    0 -0.39642147577E-01  0.21146752559E-01  0.10297434050E+00  0.88714282943E+00  0.88000000000E+00 0. -1.
        -11    1    4    4    0    0  0.59347753903E-01 -0.26659685619E-01 -0.98347250208E-01  0.11792089499E+00  0.51100000000E-03 0.  1.
         11    1    4    4    0    0  0.27993186102E-03 -0.31241576458E-02 -0.14583456703E-01  0.14925717847E-01  0.51100000000E-03 0. -1.
</event>
<event>
 8    1  0.1128298E+005  0.1043930E+01  0.7957747E-01            NaN
         13   -1    0    0    0    0  0.00000000000E+00  0.00000000000E+00  0.74505805969E-08  0.10566000000E+00  0.10566000000E+00 0.  1.
     999900   -1    0    0    0    0 -0.00000000000E+00 -0.00000000000E+00 -0.74505805969E-08  0.93827000000E+00  0.93827000000E+00 0.  1.
     999902    2    1    2    0    0 -0.25457301268E-01  0.17277801740E-01  0.15215028170E-03  0.10131628134E+01  0.10126955449E+01 0.  0.
     999903    2    3    3    0    0  0.57917906141E-01 -0.78766298003E-01  0.69150781943E-01  0.12134629334E+00  0.19608128690E-01 0.  0.
         14    1    1    2    0    0  0.25457301268E-01 -0.17277801740E-01 -0.15215028170E-03  0.30767186588E-01  0.00000000000E+00 0. -1.
     999901    1    3    3    0    0 -0.83375207408E-01  0.96044099743E-01 -0.68998631662E-01  0.89181652007E+00  0.88000000000E+00 0.  1.
        -11    1    4    4    0    0  0.16552990840E-01 -0.11231901790E-01  0.92380365603E-02  0.22039953813E-01  0.51100000000E-03 0. -1.
         11    1    4    4    0    0  0.41364915301E-01 -0.67534396213E-01  0.59912745383E-01  0.99306339526E-01  0.51100000000E-03 0.  1.
</event>
<event>
 8    1  0.1128298E+005  0.1043930E+01  0.7957747E-01            NaN
         13   -1    0    0    0    0  0.00000000000E+00  0.00000000000E+00  0.74505805969E-08  0.10566000000E+00  0.10566000000E+00 0. -1.
     999900   -1    0    0    0    0 -0.00000000000E+00 -0.00000000000E+00 -0.74505805969E-08  0.93827000000E+00  0.93827000000E+00 0.  1.
     999902    2    1    2    0    0 -0.82612887648E-03  0.17313211278E-01 -0.13550287708E-01  0.10219290893E+01  0.10216922352E+01 0.  0.
     999903    2    3    3    0    0  0.10137290896E+00 -0.67199926127E-01  0.40373109308E-01  0.13036033343E+00  0.23906732017E-01 0.  0.
         14    1    1    2    0    0  0.82612887648E-03 -0.17313211278E-01  0.13550287708E-01  0.22000910678E-01  0.00000000000E+00 0. -1.
     999901    1    3    3    0    0 -0.10219903784E+00  0.84513137405E-01 -0.53923397016E-01  0.89156875589E+00  0.88000000000E+00 0. -1.
        -11    1    4    4    0    0  0.60337777898E-01 -0.32799090888E-01  0.11866504593E-01  0.69695787943E-01  0.51100000000E-03 0. -1.
         11    1    4    4    0    0  0.41035131061E-01 -0.34400835240E-01  0.28506604714E-01  0.60664545492E-01  0.51100000000E-03 0.  1.
</event>
<event>
 8    1  0.1128298E+005  0.1043930E+01  0.7957747E-01            NaN
         13   -1    0    0    0    0  0.00000000000E+00  0.00000000000E+00  0.74505805969E-08  0.10566000000E+00  0.10566000000E+00 0.  1.
     999900   -1    0    0    0    0 -0.00000000000E+00 -0.00000000000E+00 -0.74505805969E-08  0.93827000000E+00  0.93827000000E+00 0. -1.
     999902    2    1    2    0    0 -0.99874450730E-02 -0.16708663249E-02 -0.22012876098E-01  0.10196996973E+01  0.10194117741E+01 0.  0.
     999903    2    3    3    0    0  0.99775320200E-01  0.78055059771E-01  0.10613772253E-01  0.12870666362E+00  0.20125760173E-01 0.  0.
         14    1    1    2    0    0  0.99874450730E-02  0.16708663249E-02  0.22012876098E-01  0.24230302670E-01  0.00000000000E+00 0.  1.
     999901    1    3    3    0    0 -0.10976276527E+00 -0.79725926096E-01 -0.32626648351E-01  0.89099303371E+00  0.88000000000E+00 0.  1.
        -11    1    4    4    0    0  0.43012919338E-01  0.41752433886E-01  0.12769189560E-01  0.61291845203E-01  0.51100000000E-03 0. -1.
         11    1    4    4    0    0  0.56762400862E-01  0.36302625886E-01 -0.21554173073E-02  0.67414818420E-01  0.51100000000E-03 0.  1.
</event>
<event>
 8    1  0.1128298E+005  0.1043930E+01  0.7957747E-01            NaN
         13   -1    0    0    0    0  0.00000000000E+00  0.00000000000E+00  0.74505805969E-08  0.10566000000E+00  0.10566000000E+00 0. -1.
     999900   -1    0    0    0    0 -0.00000000000E+00 -0.00000000000E+00 -0.74505805969E-08  0.93827000000E+00  0.93827000000E+00 0.  1.
     999902    2    1    2    0    0 -0.17627468646E-01 -0.80913764031E-02 -0.22405957001E-01  0.10142951399E+01  0.10138621237E+01 0.  0.
     999903    2    3    3    0    0 -0.11210892489E+00  0.19263211681E-01 -0.55641502538E-01  0.12819152264E+00  0.19940092968E-01 0.  0.
         14    1    1    2    0    0  0.17627468646E-01  0.80913764031E-02  0.22405957001E-01  0.29634860082E-01  0.00000000000E+00 0. -1.
     999901    1    3    3    0    0  0.94481456247E-01 -0.27354588084E-01  0.33235545536E-01  0.88610361728E+00  0.88000000000E+00 0. -1.
        -11    1    4    4    0    0 -0.60741276515E-01  0.77356338514E-03 -0.32469474978E-01  0.68881267405E-01  0.51100000000E-03 0.  1.
         11    1    4    4    0    0 -0.51367648378E-01  0.18489648295E-01 -0.23172027560E-01  0.59310255236E-01  0.51100000000E-03 0. -1.
</event>
<event>
 8    1  0.1128298E+005  0.1043930E+01  0.7957747E-01            NaN
         13   -1    0    0    0    0  0.00000000000E+00  0.00000000000E+00  0.74505805969E-08  0.10566000000E+00  0.10566000000E+00 0. -1.
     999900   -1    0    0    0    0 -0.00000000000E+00 -0.00000000000E+00 -0.74505805969E-08  0.93827000000E+00  0.93827000000E+00 0.  1.
     999902    2    1    2    0    0 -0.21288991624E-01  0.33079591379E-02  0.99245438463E-02  0.10202095378E+01  0.10199337433E+01 0.  0.
     999903    2    3    3    0    0  0.10109821173E+00 -0.25009663154E-01 -0.71709417304E-01  0.12754800119E+00  0.16730822186E-01 0.  0.
         14    1    1    2    0    0  0.21288991624E-01 -0.33079591379E-02 -0.99245438463E-02  0.23720462234E-01  0.00000000000E+00 0.  1.
     999901    1    3    3    0    0 -0.12238720335E+00  0.28317622292E-01  0.81633961151E-01  0.89266153658E+00  0.88000000000E+00 0. -1.
        -11    1    4    4    0    0  0.45044597443E-01 -0.11043453740E-01 -0.21995834300E-01  0.51332752476E-01  0.51100000000E-03 0. -1.
         11    1    4    4    0    0  0.56053614284E-01 -0.13966209414E-01 -0.49713583005E-01  0.76215248710E-01  0.51100000000E-03 0.  1.
</event>
<event>
 8    1  0.1128298E+005  0.1043930E+01  0.7957747E-01            NaN
         13   -1    0    0    0    0  0.00000000000E+00  0.00000000000E+00  0.74505805969E-08  0.10566000000E+00  0.10566000000E+00 0. -1.
     999900   -1    0    0    0    0 -0.00000000000E+00 -0.00000000000E+00 -0.74505805969E-08  0.93827000000E+00  0.93827000000E+00 0.  1.
     999902    2    1    2    0    0 -0.18601007962E-01 -0.23236322289E-02 -0.14394373906E-01  0.10202953905E+01  0.10200216121E+01 0.  0.
     999903    2    3    3    0    0  0.39387768119E-01  0.70407332408E-01 -0.10139172974E+00  0.13112666005E+00  0.20132793676E-01 0.  0.
         14    1    1    2    0    0  0.18601007962E-01  0.23236322289E-02  0.14394373906E-01  0.23634609455E-01  0.00000000000E+00 0.  1.
     999901    1    3    3    0    0 -0.57988776081E-01 -0.72730964637E-01  0.86997355836E-01  0.88916873050E+00  0.88000000000E+00 0. -1.
        -11    1    4    4    0    0  0.90315446384E-02  0.28219364738E-01 -0.25230184685E-01  0.38919464090E-01  0.51100000000E-03 0.  1.
         11    1    4    4    0    0  0.30356223481E-01  0.42187967670E-01 -0.76161545058E-01  0.92207195959E-01  0.51100000000E-03 0. -1.
</event>
<event>
 8    1  0.1128298E+005  0.1043930E+01  0.7957747E-01            NaN
         13   -1    0    0    0    0  0.00000000000E+00  0.00000000000E+00  0.74505805969E-08  0.10566000000E+00  0.10566000000E+00 0. -1.
     999900   -1    0    0    0    0 -0.00000000000E+00 -0.00000000000E+00 -0.74505805969E-08  0.93827000000E+00  0.93827000000E+00 0. -1.
     999902    2    1    2    0    0  0.53985928190E-02 -0.16496656011E-01  0.14901100528E-01  0.10210536528E+01  0.10207973524E+01 0.  0.
     999903    2    3    3    0    0  0.77351495060E-01  0.97159915258E-01 -0.31091056022E-01  0.12964447920E+00  0.20438549375E-01 0.  0.
         14    1    1    2    0    0 -0.53985928190E-02  0.16496656011E-01 -0.14901100528E-01  0.22876347193E-01  0.00000000000E+00 0.  1.
     999901    1    3    3    0    0 -0.71952902241E-01 -0.11365657127E+00  0.45992156550E-01  0.89140917361E+00  0.88000000000E+00 0.  1.
        -11    1    4    4    0    0  0.49206216384E-01  0.76417820241E-01 -0.22012684692E-01  0.93518738173E-01  0.51100000000E-03 0.  1.
         11    1    4    4    0    0  0.28145278676E-01  0.20742095017E-01 -0.90783713303E-02  0.36125741023E-01  0.51100000000E-03 0. -1.
</event>
<event>
 8    1  0.1128298E+005  0.1043930E+01  0.7957747E-01            NaN
         13   -1    0    0    0    0  0.00000000000E+00  0.00000000000E+00  0.74505805969E-08  0.10566000000E+00  0.10566000000E+00 0. -1.
     999900   -1    0    0    0    0 -0.00000000000E+00 -0.00000000000E+00 -0.74505805969E-08  0.93827000000E+00  0.93827000000E+00 0.  1.
     999902    2    1    2    0    0  0.25670270589E-01 -0.29781960628E-02 -0.57490779420E-02  0.10174557797E+01  0.10171112915E+01 0.  0.
     999903    2    3    3    0    0 -0.69978810171E-01  0.32380228274E-01 -0.98492679747E-01  0.12672555089E+00  0.20323489572E-01 0.  0.
         14    1    1    2    0    0 -0.25670270589E-01  0.29781960628E-02  0.57490779420E-02  0.26474220311E-01  0.00000000000E+00 0.  1.
     999901    1    3    3    0    0  0.95649080760E-01 -0.35358424337E-01  0.92743601805E-01  0.89073022880E+00  0.88000000000E+00 0.  1.
        -11    1    4    4    0    0 -0.31578651593E-01  0.68849588076E-02 -0.52191022318E-01  0.61390372419E-01  0.51100000000E-03 0.  1.
         11    1    4    4    0    0 -0.38400158578E-01  0.25495269467E-01 -0.46301657429E-01  0.65335178470E-01  0.51100000000E-03 0. -1.
</event>
<event>
 8    1  0.1128298E+005  0.1043930E+01  0.7957747E-01            NaN
         13   -1    0    0    0    0  0.00000000000E+00  0.00000000000E+00  0.74505805969E-08  0.10566000000E+00  0.10566000000E+00 0. -1.
     999900   -1    0    0    0    0 -0.00000000000E+00 -0.00000000000E+00 -0.74505805969E-08  0.93827000000E+00  0.93827000000E+00 0. -1.
     999902    2    1    2    0    0  0.77421145160E-02  0.18264370247E-01 -0.13247246094E-01  0.10200759210E+01  0.10197969736E+01 0.  0.
     999903    2    3    3    0    0  0.63627582153E-01  0.80921598857E-02 -0.11416464118E+00  0.13248875342E+00  0.20143292318E-01 0.  0.
         14    1    1    2    0    0 -0.77421145160E-02 -0.18264370247E-01  0.13247246094E-01  0.23854079039E-01  0.00000000000E+00 0. -1.
     999901    1    3    3    0    0 -0.55885467637E-01  0.10172210361E-01  0.10091739508E+00  0.88758716754E+00  0.88000000000E+00 0.  1.
        -11    1    4    4    0    0  0.58174945214E-01  0.96654630422E-03 -0.96969724773E-01  0.11308690068E+00  0.51100000000E-03 0.  1.
         11    1    4    4    0    0  0.54526369388E-02  0.71256135815E-02 -0.17194916402E-01  0.19401852736E-01  0.51100000000E-03 0. -1.
</event>
<event>
 8    1  0.1128298E+005  0.1043930E+01  0.7957747E-01            NaN
         13   -1    0    0    0    0  0.00000000000E+00  0.00000000000E+00  0.74505805969E-08  0.10566000000E+00  0.10566000000E+00 0. -1.
     999900   -1    0    0    0    0 -0.00000000000E+00 -0.00000000000E+00 -0.74505805969E-08  0.93827000000E+00  0.93827000000E+00 0.  1.
     999902    2    1    2    0    0  0.77227999316E-02  0.15665036767E-01  0.16232117487E-01  0.10200864127E+01  0.10198077136E+01 0.  0.
     999903    2    3    3    0    0 -0.47724478940E-01 -0.13263808153E-01 -0.11621260120E+00  0.12798054328E+00  0.20496250454E-01 0.  0.
         14    1    1    2    0    0 -0.77227999316E-02 -0.15665036767E-01 -0.16232117487E-01  0.23843587268E-01  0.00000000000E+00 0.  1.
     999901    1    3    3    0    0  0.55447278871E-01  0.28928844920E-01  0.13244471869E+00  0.89210586945E+00  0.88000000000E+00 0. -1.
        -11    1    4    4    0    0 -0.11908158555E-01 -0.89891496636E-02 -0.18196828366E-01  0.23537092757E-01  0.51100000000E-03 0. -1.
         11    1    4    4    0    0 -0.35816320385E-01 -0.42746584893E-02 -0.98015772838E-01  0.10444345052E+00  0.51100000000E-03 0.  1.
</event>
<event>
 8    1  0.1128298E+005  0.1043930E+01  0.7957747E-01            NaN
         13   -1    0    0    0    0  0.00000000000E+00  0.00000000000E+00  0.74505805969E-08  0.10566000000E+00  0.10566000000E+00 0. -1.
     999900   -1    0    0    0    0 -0.00000000000E+00 -0.00000000000E+00 -0.74505805969E-08  0.93827000000E+00  0.93827000000E+00 0. -1.
     999902    2    1    2    0    0 -0.15805199421E-01  0.64505161234E-02 -0.15679164410E-01  0.10207513529E+01  0.10204881551E+01 0.  0.
     999903    2    3    3    0    0 -0.24310967741E-01  0.11898714921E+00  0.46205901958E-01  0.13138832050E+00  0.19466395623E-01 0.  0.
         14    1    1    2    0    0  0.15805199421E-01 -0.64505161234E-02  0.15679164410E-01  0.23178647148E-01  0.00000000000E+00 0. -1.
     999901    1    3    3    0    0  0.85057683202E-02 -0.11253663308E+00 -0.61885066368E-01  0.88936303236E+00  0.88000000000E+00 0.  1.
        -11    1    4    4    0    0 -0.95548880290E-02  0.76720799334E-01  0.36860019631E-01  0.85652198477E-01  0.51100000000E-03 0.  1.
         11    1    4    4    0    0 -0.14756079712E-01  0.42266349872E-01  0.93458823267E-02  0.45736122020E-01  0.51100000000E-03 0. -1.
</event>
<event>
 8    1  0.1128298E+005  0.1043930E+01  0.7957747E-01            NaN
         13   -1    0    0    0    0  0.00000000000E+00  0.00000000000E+00  0.74505805969E-08  0.10566000000E+00  0.10566000000E+00 0. -1.
     999900   -1    0    0    0    0 -0.00000000000E+00 -0.00000000000E+00 -0.74505805969E-08  0.93827000000E+00  0.93827000000E+00 0. -1.
     999902    2    1    2    0    0  0.95023240082E-02  0.20169044094E-01  0.62317314629E-02  0.10207800761E+01  0.10205175377E+01 0.  0.
     999903    2    3    3    0    0 -0.93797851864E-01  0.90381964869E-01 -0.35503071959E-02  0.13190636802E+00  0.20487768398E-01 0.  0.
         14    1    1    2    0    0 -0.95023240082E-02 -0.20169044094E-01 -0.62317314629E-02  0.23149923936E-01  0.00000000000E+00 0.  1.
     999901    1    3    3    0    0  0.10330017587E+00 -0.70212920775E-01  0.97820386588E-02  0.88887370805E+00  0.88000000000E+00 0.  1.
        -11    1    4    4    0    0 -0.82259125570E-01  0.69329150974E-01  0.34125345313E-03  0.10758007478E+00  0.51100000000E-03 0.  1.
         11    1    4    4    0    0 -0.11538726294E-01  0.21052813895E-01 -0.38915606490E-02  0.24326293237E-01  0.51100000000E-03 0. -1.
</event>
<event>
 8    1  0.1128298E+005  0.1043930E+01  0.7957747E-01            NaN
         13   -1    0    0    0    0  0.00000000000E+00  0.00000000000E+00  0.74505805969E-08  0.10566000000E+00  0.10566000000E+00 0. -1.
     999900   -1    0    0    0    0 -0.00000000000E+00 -0.00000000000E+00 -0.74505805969E-08  0.93827000000E+00  0.93827000000E+00 0. -1.
     999902    2    1    2    0    0  0.44810684513E-02  0.16481821168E-01  0.17877727026E-01  0.10192046380E+01  0.10189046818E+01 0.  0.
     999903    2    3    3    0    0 -0.76031882847E-01  0.50096479012E-01 -0.88182409392E-01  0.12855261104E+00  0.21427367107E-01 0.  0.
         14    1    1    2    0    0 -0.44810684513E-02 -0.16481821168E-01 -0.17877727026E-01  0.24725362021E-01  0.00000000000E+00 0.  1.
     999901    1    3    3    0    0  0.80512951298E-01 -0.33614657844E-01  0.10606013642E+00  0.89065202694E+00  0.88000000000E+00 0.  1.
        -11    1    4    4    0    0 -0.11350828449E-01  0.18047550810E-01 -0.21384989550E-01  0.30201561148E-01  0.51100000000E-03 0. -1.
         11    1    4    4    0    0 -0.64681054397E-01  0.32048928202E-01 -0.66797419841E-01  0.98351049894E-01  0.51100000000E-03 0.  1.
</event>
<event>
 7    1  0.1128298E+005  0.1043930E+01  0.7957747E-01            NaN
         13   -1    0    0    0    0  0.00000000000E+00  0.00000000000E+00  0.74505805969E-08  0.10566000000E+00  0.10566000000E+00 0.  1.
     999900   -1    0    0    0    0 -0.00000000000E+00 -0.00000000000E+00 -0.74505805969E-08  0.93827000000E+00  0.93827000000E+00 0.  1.
     999903    2    1    2    0    0 -0.11030574895E+00  0.23055688970E-01 -0.48962312576E-02  0.11368745361E+00  0.14210594016E-01 0.  0.
         14    1    1    2    0    0 -0.14986965389E-02 -0.14121039600E-01  0.39983162350E-01  0.42429979050E-01  0.00000000000E+00 0.  1.
     999901    1    1    2    0    0  0.11180444549E+00 -0.89346493698E-02 -0.35086931092E-01  0.88781256734E+00  0.88000000000E+00 0.  1.
        -11    1    3    3    0    0 -0.60121602891E-01  0.19717384516E-01 -0.34758644923E-02  0.63369749418E-01  0.51100000000E-03 0. -1.
         11    1    3    3    0    0 -0.50184146062E-01  0.33383044537E-02 -0.14203667653E-02  0.50317704194E-01  0.51100000000E-03 0.  1.
</event>
<event>
 8    1  0.1128298E+005  0.1043930E+01  0.7957747E-01            NaN
         13   -1    0    0    0    0  0.00000000000E+00  0.00000000000E+00  0.74505805969E-08  0.10566000000E+00  0.10566000000E+00 0.  1.
     999900   -1    0    0    0    0 -0.00000000000E+00 -0.00000000000E+00 -0.74505805969E-08  0.93827000000E+00  0.93827000000E+00 0. -1.
     999902    2    1    2    0    0 -0.22574128179E-01 -0.42342036351E-02 -0.62625919537E-02  0.10201237025E+01  0.10198458847E+01 0.  0.
     999903    2    3    3    0    0 -0.67466004273E-01 -0.96403609730E-01  0.56207849059E-01  0.13197223119E+00  0.20298517391E-01 0.  0.
         14    1    1    2    0    0  0.22574128179E-01  0.42342036351E-02  0.62625919537E-02  0.23806297516E-01  0.00000000000E+00 0. -1.
     999901    1    3    3    0    0  0.44891876095E-01  0.92169406094E-01 -0.62470441013E-01  0.88815147129E+00  0.88000000000E+00 0.  1.
        -11    1    4    4    0    0 -0.25505124576E-01 -0.43448007691E-01  0.13950073772E-01  0.52279120413E-01  0.51100000000E-03 0.  1.
         11    1    4    4    0    0 -0.41960879697E-01 -0.52955602039E-01  0.42257775287E-01  0.79693110778E-01  0.51100000000E-03 0. -1.
</event>
<event>
 8    1  0.1128298E+005  0.1043930E+01  0.7957747E-01            NaN
         13   -1    0    0    0    0  0.00000000000E+00  0.00000000000E+00  0.74505805969E-08  0.10566000000E+00  0.10566000000E+00 0. -1.
     999900   -1    0    0    0    0 -0.00000000000E+00 -0.00000000000E+00 -0.74505805969E-08  0.93827000000E+00  0.93827000000E+00 0. -1.
     999902    2    1    2    0    0 -0.31066247863E-02  0.10287831216E-01  0.22387706681E-01  0.10190965548E+01  0.10187939380E+01 0.  0.
     999903    2    3    3    0    0  0.56955543174E-01  0.53417719452E-01  0.10476998120E+00  0.13216110597E+00  0.19809652249E-01 0.  0.
         14    1    1    2    0    0  0.31066247863E-02 -0.10287831216E-01 -0.22387706681E-01  0.24833445173E-01  0.00000000000E+00 0.  1.
     999901    1    3    3    0    0 -0.60062167961E-01 -0.43129888235E-01 -0.82382274516E-01  0.88693544885E+00  0.88000000000E+00 0.  1.
        -11    1    4    4    0    0  0.22408187767E-01  0.16587028555E-01  0.52713622242E-01  0.59634247595E-01  0.51100000000E-03 0. -1.
         11    1    4    4    0    0  0.34547355407E-01  0.36830690897E-01  0.52056358956E-01  0.72526858379E-01  0.51100000000E-03 0.  1.
</event>
<event>
 8    1  0.1128298E+005  0.1043930E+01  0.7957747E-01            NaN
         13   -1    0    0    0    0  0.00000000000E+00  0.00000000000E+00  0.74505805969E-08  0.10566000000E+00  0.10566000000E+00 0. -1.
     999900   -1    0    0    0    0 -0.00000000000E+00 -0.00000000000E+00 -0.74505805969E-08  0.93827000000E+00  0.93827000000E+00 0.  1.
     999902    2    1    2    0    0  0.84506966095E-02 -0.21863040886E-01  0.69097063129E-02  0.10194933294E+01  0.10192004208E+01 0.  0.
     999903    2    3    3    0    0 -0.29975717291E-01 -0.93035581301E-01 -0.85115907398E-01  0.13100538158E+00  0.19066444237E-01 0.  0.
         14    1    1    2    0    0 -0.84506966095E-02  0.21863040886E-01 -0.69097063129E-02  0.24436670626E-01  0.00000000000E+00 0. -1.
     999901    1    3    3    0    0  0.38426413901E-01  0.71172540415E-01  0.92025613711E-01  0.88848794779E+00  0.88000000000E+00 0. -1.
        -11    1    4    4    0    0  0.20884287148E-02 -0.14595834950E-01 -0.14684951993E-01  0.20816072359E-01  0.51100000000E-03 0. -1.
         11    1    4    4    0    0 -0.32064146006E-01 -0.78439746350E-01 -0.70430955405E-01  0.11018930922E+00  0.51100000000E-03 0.  1.
</event>
<event>
 8    1  0.1128298E+005  0.1043930E+01  0.7957747E-01            NaN
         13   -1    0    0    0    0  0.00000000000E+00  0.00000000000E+00  0.74505805969E-08  0.10566000000E+00  0.10566000000E+00 0. -1.
     999900   -1    0    0    0    0 -0.00000000000E+00 -0.00000000000E+00 -0.74505805969E-08  0.93827000000E+00  0.93827000000E+00 0. -1.
     999902    2    1    2    0    0 -0.11146606871E-01  0.16190561102E-01 -0.12829660898E-01  0.10204570089E+01  0.10201870052E+01 0.  0.
     999903    2    3    3    0    0  0.70468961006E-01 -0.10079243777E+00 -0.32483221616E-01  0.12875504892E+00  0.19942741987E-01 0.  0.
         14    1    1    2    0    0  0.11146606871E-01 -0.16190561102E-01  0.12829660898E-01  0.23472991124E-01  0.00000000000E+00 0. -1.
     999901    1    3    3    0    0 -0.81615567877E-01  0.11698299887E+00  0.19653560718E-01  0.89170195996E+00  0.88000000000E+00 0. -1.
        -11    1    4    4    0    0  0.25055121325E-01 -0.26861330237E-01 -0.20051256176E-02  0.36790920299E-01  0.51100000000E-03 0. -1.
         11    1    4    4    0    0  0.45413839682E-01 -0.73931107534E-01 -0.30478095999E-01  0.91964128619E-01  0.51100000000E-03 0.  1.
</event>
<event>
 8    1  0.1128298E+005  0.1043930E+01  0.7957747E-01            NaN
         13   -1    0    0    0    0  0.00000000000E+00  0.00000000000E+00  0.74505805969E-08  0.10566000000E+00  0.10566000000E+00 0.  1.
     999900   -1    0    0    0    0 -0.00000000000E+00 -0.00000000000E+00 -0.74505805969E-08  0.93827000000E+00  0.93827000000E+00 0.  1.
     999902    2    1    2    0    0  0.28769585921E-02  0.19004208912E-02  0.20722692072E-01  0.10229224191E+01  0.10227066818E+01 0.  0.
     999903    2    3    3    0    0 -0.48143595872E-01  0.10940591388E+00  0.57526287480E-01  0.13415077649E+00  0.19992430228E-01 0.  0.
         14    1    1    2    0    0 -0.28769585921E-02 -0.19004208912E-02 -0.20722692072E-01  0.21007580942E-01  0.00000000000E+00 0. -1.
     999901    1    3    3    0    0  0.51020554464E-01 -0.10750549299E+00 -0.36803595408E-01  0.88877164257E+00  0.88000000000E+00 0. -1.
        -11    1    4    4    0    0 -0.20369880130E-01  0.40625664908E-01  0.32465771393E-01  0.55853953296E-01  0.51100000000E-03 0.  1.
         11    1    4    4    0    0 -0.27773715742E-01  0.68780248970E-01  0.25060516087E-01  0.78296823193E-01  0.51100000000E-03 0. -1.
</event>
<event>
 8    1  0.1128298E+005  0.1043930E+01  0.7957747E-01            NaN
         13   -1    0    0    0    0  0.00000000000E+00  0.00000000000E+00  0.74505805969E-08  0.10566000000E+00  0.10566000000E+00 0. -1.
     999900   -1    0    0    0    0 -0.00000000000E+00 -0.00000000000E+00 -0.74505805969E-08  0.93827000000E+00  0.93827000000E+00 0. -1.
     999902    2    1    2    0    0 -0.13358972017E-02  0.19233964589E-01  0.11741844075E-01  0.10213556580E+01  0.10211061547E+01 0.  0.
     999903    2    3    3    0    0 -0.10785625338E+00  0.69162698816E-01 -0.29404784243E-01  0.13257418327E+00  0.17170394051E-01 0.  0.
         14    1    1    2    0    0  0.13358972017E-02 -0.19233964589E-01 -0.11741844075E-01  0.22574342015E-01  0.00000000000E+00 0.  1.
     999901    1    3    3    0    0  0.10652035618E+00 -0.49928734227E-01  0.41146628317E-01  0.88878147472E+00  0.88000000000E+00 0.  1.
        -11    1    4    4    0    0 -0.71648767602E-01  0.39951401155E-01 -0.12041764714E-01  0.82915170938E-01  0.51100000000E-03 0. -1.
         11    1    4    4    0    0 -0.36207485777E-01  0.29211297661E-01 -0.17363019529E-01  0.49659012329E-01  0.51100000000E-03 0.  1.
</event>
<event>
 8    1  0.1128298E+005  0.1043930E+01  0.7957747E-01            NaN
         13   -1    0    0    0    0  0.00000000000E+00  0.00000000000E+00  0.74505805969E-08  0.10566000000E+00  0.10566000000E+00 0. -1.
     999900   -1    0    0    0    0 -0.00000000000E+00 -0.00000000000E+00 -0.74505805969E-08  0.93827000000E+00  0.93827000000E+00 0.  1.
     999902    2    1    2    0    0 -0.18190180689E-01 -0.12939136349E-02  0.15183845499E-01  0.10202001443E+01  0.10199241288E+01 0.  0.
     999903    2    3    3    0    0 -0.55373947621E-01  0.49186669046E-01 -0.10518952965E+00  0.12979536492E+00  0.17216187711E-01 0.  0.
         14    1    1    2    0    0  0.18190180689E-01  0.12939136349E-02 -0.15183845499E-01  0.23729855671E-01  0.00000000000E+00 0.  1.
     999901    1    3    3    0    0  0.37183766932E-01 -0.50480582681E-01  0.12037337515E+00  0.89040477941E+00  0.88000000000E+00 0. -1.
        -11    1    4    4    0    0 -0.41114045326E-01  0.31687159750E-01 -0.60443732802E-01  0.79675258218E-01  0.51100000000E-03 0.  1.
         11    1    4    4    0    0 -0.14259902295E-01  0.17499509297E-01 -0.44745796849E-01  0.50120106701E-01  0.51100000000E-03 0. -1.
</event>
<event>
 8    1  0.1128298E+005  0.1043930E+01  0.7957747E-01            NaN
         13   -1    0    0    0    0  0.00000000000E+00  0.00000000000E+00  0.74505805969E-08  0.10566000000E+00  0.10566000000E+00 0.  1.
     999900   -1    0    0    0    0 -0.00000000000E+00 -0.00000000000E+00 -0.74505805969E-08  0.93827000000E+00  0.93827000000E+00 0.  1.
     999902    2    1    2    0    0  0.14675425279E-01 -0.14377357017E-01  0.13338346192E-01  0.10194353479E+01  0.10191410308E+01 0.  0.
     999903    2    3    3    0    0  0.57286416772E-01 -0.88120676389E-01  0.78704124560E-01  0.13291041384E+00  0.20587659656E-01 0.  0.
         14    1    1    2    0    0 -0.14675425279E-01  0.14377357017E-01 -0.13338346192E-01  0.24494652090E-01  0.00000000000E+00 0. -1.
     999901    1    3    3    0    0 -0.42610991494E-01  0.73743319372E-01 -0.65365778368E-01  0.88652493407E+00  0.88000000000E+00 0.  1.
        -11    1    4    4    0    0 -0.88374427629E-03 -0.31840219138E-02  0.60312281305E-02  0.68960737565E-02  0.51100000000E-03 0.  1.
         11    1    4    4    0    0  0.58170161049E-01 -0.84936654475E-01  0.72672896429E-01  0.12601434008E+00  0.51100000000E-03 0. -1.
</event>
<event>
 8    1  0.1128298E+005  0.1043930E+01  0.7957747E-01            NaN
         13   -1    0    0    0    0  0.00000000000E+00  0.00000000000E+00  0.74505805969E-08  0.10566000000E+00  0.10566000000E+00 0.  1.
     999900   -1    0    0    0    0 -0.00000000000E+00 -0.00000000000E+00 -0.74505805969E-08  0.93827000000E+00  0.93827000000E+00 0. -1.
     999902    2    1    2    0    0 -0.91439853248E-02 -0.21058379711E-01 -0.50003112812E-02  0.10204338102E+01  0.10201632663E+01 0.  0.
     999903    2    3    3    0    0  0.28497654653E-01 -0.12625418697E+00 -0.23820733762E-01  0.13316989271E+00  0.20360670856E-01 0.  0.
         14    1    1    2    0    0  0.91439853248E-02  0.21058379711E-01  0.50003112812E-02  0.23496189831E-01  0.00000000000E+00 0. -1.
     999901    1    3    3    0    0 -0.37641639978E-01  0.10519580726E+00  0.18820422481E-01  0.88726391746E+00  0.88000000000E+00 0.  1.
        -11    1    4    4    0    0  0.17830002135E-01 -0.91602789574E-01 -0.81820181695E-02  0.93681303238E-01  0.51100000000E-03 0.  1.
         11    1    4    4    0    0  0.10667652518E-01 -0.34651397399E-01 -0.15638715592E-01  0.39488589470E-01  0.51100000000E-03 0. -1.
</event>
<event>
 8    1  0.1128298E+005  0.1043930E+01  0.7957747E-01            NaN
         13   -1    0    0    0    0  0.00000000000E+00  0.00000000000E+00  0.74505805969E-08  0.10566000000E+00  0.10566000000E+00 0.  1.
     999900   -1    0    0    0    0 -0.00000000000E+00 -0.00000000000E+00 -0.74505805969E-08  0.93827000000E+00  0.93827000000E+00 0.  1.
     999902    2    1    2    0    0  0.18108691254E-01  0.13355233531E-01  0.90756243729E-02  0.10196678089E+01  0.10193791181E+01 0.  0.
     999903    2    3    3    0    0 -0.11207996598E+00  0.57737021300E-01 -0.14861999568E-01  0.12866172616E+00  0.20915982953E-01 0.  0.
         14    1    1    2    0    0 -0.18108691254E-01 -0.13355233531E-01 -0.90756243729E-02  0.24262191149E-01  0.00000000000E+00 0. -1.
     999901    1    3    3    0    0  0.13018865724E+00 -0.44381787769E-01  0.23937623940E-01  0.89100608269E+00  0.88000000000E+00 0.  1.
        -11    1    4    4    0    0 -0.16724964011E-01  0.15261070438E-01 -0.81077023937E-02  0.24054534940E-01  0.51100000000E-03 0.  1.
         11    1    4    4    0    0 -0.95355001973E-01  0.42475950862E-01 -0.67542971738E-02  0.10460719122E+00  0.51100000000E-03 0. -1.
</event>
<event>
 8    1  0.1128298E+005  0.1043930E+01  0.7957747E-01            NaN
         13   -1    0    0    0    0  0.00000000000E+00  0.00000000000E+00  0.74505805969E-08  0.10566000000E+00  0.10566000000E+00 0.  1.
     999900   -1    0    0    0    0 -0.00000000000E+00 -0.00000000000E+00 -0.74505805969E-08  0.93827000000E+00  0.93827000000E+00 0. -1.
     999902    2    1    2    0    0  0.87799531889E-02  0.22393075586E-01  0.17450900715E-02  0.10198139731E+01  0.10195287917E+01 0.  0.
     999903    2    3    3    0    0  0.62001391917E-01 -0.10394480562E+00 -0.37536621156E-01  0.12833383617E+00  0.20294835902E-01 0.  0.
         14    1    1    2    0    0 -0.87799531889E-02 -0.22393075586E-01 -0.17450900715E-02  0.24116026861E-01  0.00000000000E+00 0. -1.
     999901    1    3    3    0    0 -0.53221438728E-01  0.12633788120E+00  0.39281711228E-01  0.89148013697E+00  0.88000000000E+00 0.  1.
        -11    1    4    4    0    0  0.57465793075E-01 -0.95479020078E-01 -0.40007608369E-01  0.11840367603E+00  0.51100000000E-03 0.  1.
         11    1    4    4    0    0  0.45355988424E-02 -0.84657855411E-02  0.24709872128E-02  0.99301601444E-02  0.51100000000E-03 0. -1.
</event>
<event>
 8    1  0.1128298E+005  0.1043930E+01  0.7957747E-01            NaN
         13   -1    0    0    0    0  0.00000000000E+00  0.00000000000E+00  0.74505805969E-08  0.10566000000E+00  0.10566000000E+00 0.  1.
     999900   -1    0    0    0    0 -0.00000000000E+00 -0.00000000000E+00 -0.74505805969E-08  0.93827000000E+00  0.93827000000E+00 0.  1.
     999902    2    1    2    0    0  0.52123780200E-02 -0.27399957830E-01 -0.79854883114E-02  0.10149180267E+01  0.10145032805E+01 0.  0.
     999903    2    3    3    0    0  0.42778193240E-01  0.70866834909E-01  0.89300461138E-01  0.12332837385E+00  0.19576346200E-01 0.  0.
         14    1    1    2    0    0 -0.52123780200E-02  0.27399957830E-01  0.79854883114E-02  0.29011973344E-01  0.00000000000E+00 0.  1.
     999901    1    3    3    0    0 -0.37565815220E-01 -0.98266792739E-01 -0.97285949450E-01  0.89158965280E+00  0.88000000000E+00 0.  1.
        -11    1    4    4    0    0  0.55539875426E-02  0.20737689200E-02  0.11803446014E-01  0.13218538269E-01  0.51100000000E-03 0. -1.
         11    1    4    4    0    0  0.37224205697E-01  0.68793065988E-01  0.77497015124E-01  0.11010983558E+00  0.51100000000E-03 0.  1.
</event>
<event>
 8    1  0.1128298E+005  0.1043930E+01  0.7957747E-01            NaN
         13   -1    0    0    0    0  0.00000000000E+00  0.00000000000E+00  0.74505805969E-08  0.10566000000E+00  0.10566000000E+00 0. -1.
     999900   -1    0    0    0    0 -0.00000000000E+00 -0.00000000000E+00 -0.74505805969E-08  0.93827000000E+00  0.93827000000E+00 0. -1.
     999902    2    1    2    0    0  0.88004295271E-02 -0.11214357133E-01 -0.19070855184E-01  0.10201201935E+01  0.10198422929E+01 0.  0.
     999903    2    3    3    0    0 -0.64283394414E-03 -0.10050152197E+00  0.79424749662E-01  0.13008493739E+00  0.22645770541E-01 0.  0.
         14    1    1    2    0    0 -0.88004295271E-02  0.11214357133E-01  0.19070855184E-01  0.23809806451E-01  0.00000000000E+00 0. -1.
     999901    1    3    3    0    0  0.94432634713E-02  0.89287164837E-01 -0.98495604846E-01  0.89003525616E+00  0.88000000000E+00 0. -1.
        -11    1    4    4    0    0  0.65397625150E-02 -0.48301063878E-01  0.26859396951E-01  0.55654735567E-01  0.51100000000E-03 0. -1.
         11    1    4    4    0    0 -0.71825964592E-02 -0.52200458093E-01  0.52565352711E-01  0.74430201825E-01  0.51100000000E-03 0.  1.
</event>
<event>
 8    1  0.1128298E+005  0.1043930E+01  0.7957747E-01            NaN
         13   -1    0    0    0    0  0.00000000000E+00  0.00000000000E+00  0.74505805969E-08  0.10566000000E+00  0.10566000000E+00 0.  1.
     999900   -1    0    0    0    0 -0.00000000000E+00 -0.00000000000E+00 -0.74505805969E-08  0.93827000000E+00  0.93827000000E+00 0.  1.
     999902    2    1    2    0    0  0.48695896346E-02 -0.22396982819E-01 -0.80901943250E-03  0.10209954790E+01  0.10207378585E+01 0.  0.
     999903    2    3    3    0    0 -0.12143786330E+00  0.38632223035E-01 -0.12549411592E-01  0.12980752267E+00  0.21281492254E-01 0.  0.
         14    1    1    2    0    0 -0.48695896346E-02  0.22396982819E-01  0.80901943250E-03  0.22934521034E-01  0.00000000000E+00 0. -1.
     999901    1    3    3    0    0  0.12630745293E+00 -0.61029205854E-01  0.11740392159E-01  0.89118795629E+00  0.88000000000E+00 0.  1.
        -11    1    4    4    0    0 -0.25309158956E-01  0.97494569700E-02  0.58737548778E-02  0.27755495954E-01  0.51100000000E-03 0. -1.
         11    1    4    4    0    0 -0.96128704341E-01  0.28882766065E-01 -0.18423166469E-01  0.10205202672E+00  0.51100000000E-03 0.  1.
</event>
<event>
 8    1  0.1128298E+005  0.1043930E+01  0.7957747E-01            NaN
         13   -1    0    0    0    0  0.00000000000E+00  0.00000000000E+00  0.74505805969E-08  0.10566000000E+00  0.10566000000E+00 0.  1.
     999900   -1    0    0    0    0 -0.00000000000E+00 -0.00000000000E+00 -0.74505805969E-08  0.93827000000E+00  0.93827000000E+00 0.  1.
     999902    2    1    2    0    0  0.24132846709E-01 -0.10473316899E-01 -0.37409270884E-03  0.10176198384E+01  0.10172796621E+01 0.  0.
     999903    2    3    3    0    0 -0.10991670650E+00  0.55979066224E-01  0.18494330612E-02  0.12498881386E+00  0.20085939481E-01 0.  0.
         14    1    1    2    0    0 -0.24132846709E-01  0.10473316899E-01  0.37409270884E-03  0.26310161582E-01  0.00000000000E+00 0. -1.
     999901    1    3    3    0    0  0.13404955321E+00 -0.66452383123E-01 -0.22235257701E-02  0.89263102456E+00  0.88000000000E+00 0. -1.
        -11    1    4    4    0    0 -0.73494449322E-01  0.42443879433E-01 -0.69171403899E-02  0.85152950240E-01  0.51100000000E-03 0. -1.
         11    1    4    4    0    0 -0.36422257175E-01  0.13535186791E-01  0.87665734511E-02  0.39835863619E-01  0.51100000000E-03 0.  1.
</event>
<event>
 8    1  0.1128298E+005  0.1043930E+01  0.7957747E-01            NaN
         13   -1    0    0    0    0  0.00000000000E+00  0.00000000000E+00  0.74505805969E-08  0.10566000000E+00  0.10566000000E+00 0.  1.
     999900   -1    0    0    0    0 -0.00000000000E+00 -0.00000000000E+00 -0.74505805969E-08  0.93827000000E+00  0.93827000000E+00 0.  1.
     999902    2    1    2    0    0  0.68363295896E-02  0.23247079854E-01 -0.10145359326E-02  0.10196773423E+01  0.10193888811E+01 0.  0.
     999903    2    3    3    0    0  0.16597598577E-01 -0.10780589134E+00  0.62777946822E-01  0.12763494166E+00  0.21260697003E-01 0.  0.
         14    1    1    2    0    0 -0.68363295896E-02 -0.23247079854E-01  0.10145359326E-02  0.24252657734E-01  0.00000000000E+00 0.  1.
     999901    1    3    3    0    0 -0.97612689870E-02  0.13105297120E+00 -0.63792482754E-01  0.89204240061E+00  0.88000000000E+00 0.  1.
        -11    1    4    4    0    0  0.15595318119E-01 -0.78223617056E-01  0.35236813047E-01  0.87201160126E-01  0.51100000000E-03 0. -1.
         11    1    4    4    0    0  0.10022804579E-02 -0.29582274289E-01  0.27541133774E-01  0.40433781530E-01  0.51100000000E-03 0.  1.
</event>
<event>
 8    1  0.1128298E+005  0.1043930E+01  0.7957747E-01            NaN
         13   -1    0    0    0    0  0.00000000000E+00  0.00000000000E+00  0.74505805969E-08  0.10566000000E+00  0.10566000000E+00 0. -1.
     999900   -1    0    0    0    0 -0.00000000000E+00 -0.00000000000E+00 -0.74505805969E-08  0.93827000000E+00  0.93827000000E+00 0. -1.
     999902    2    1    2    0    0  0.48357753148E-02  0.21750394629E-01  0.75125932078E-02  0.10204161010E+01  0.10201451444E+01 0.  0.
     999903    2    3    3    0    0  0.86158227881E-01 -0.71571285107E-01 -0.61276602169E-01  0.12909448082E+00  0.19101673271E-01 0.  0.
         14    1    1    2    0    0 -0.48357753148E-02 -0.21750394629E-01 -0.75125932078E-02  0.23513898998E-01  0.00000000000E+00 0.  1.
     999901    1    3    3    0    0 -0.81322452566E-01  0.93321679736E-01  0.68789195376E-01  0.89132162018E+00  0.88000000000E+00 0.  1.
        -11    1    4    4    0    0  0.63994598069E-01 -0.41710513665E-01 -0.39508161798E-01  0.86001345930E-01  0.51100000000E-03 0.  1.
         11    1    4    4    0    0  0.22163629812E-01 -0.29860771442E-01 -0.21768440371E-01  0.43093134891E-01  0.51100000000E-03 0. -1.
</event>
<event>
 8    1  0.1128298E+005  0.1043930E+01  0.7957747E-01            NaN
         13   -1    0    0    0    0  0.00000000000E+00  0.00000000000E+00  0.74505805969E-08  0.10566000000E+00  0.10566000000E+00 0.  1.
     999900   -1    0    0    0    0 -0.00000000000E+00 -0.00000000000E+00 -0.74505805969E-08  0.93827000000E+00  0.93827000000E+00 0. -1.
     999902    2    1    2    0    0 -0.11560064499E-01  0.75872376683E-02  0.20583325425E-01  0.10191333359E+01  0.10188316258E+01 0.  0.
     999903    2    3    3    0    0  0.47422328478E-01 -0.17474447422E-01 -0.11447905601E+00  0.12652543896E+00  0.18681511957E-01 0.  0.
         14    1    1    2    0    0  0.11560064499E-01 -0.75872376683E-02 -0.20583325425E-01  0.24796664134E-01  0.00000000000E+00 0. -1.
     999901    1    3    3    0    0 -0.58982392977E-01  0.25061685091E-01  0.13506238143E+00  0.89260789691E+00  0.88000000000E+00 0.  1.
        -11    1    4    4    0    0  0.29306927136E-01 -0.14535426614E-01 -0.91114913795E-01  0.96810966538E-01  0.51100000000E-03 0.  1.
         11    1    4    4    0    0  0.18115401343E-01 -0.29390208079E-02 -0.23364142211E-01  0.29714472423E-01  0.51100000000E-03 0. -1.
</event>
<event>
 8    1  0.1128298E+005  0.1043930E+01  0.7957747E-01            NaN
         13   -1    0    0    0    0  0.00000000000E+00  0.00000000000E+00  0.74505805969E-08  0.10566000000E+00  0.10566000000E+00 0. -1.
     999900   -1    0    0    0    0 -0.00000000000E+00 -0.00000000000E+00 -0.74505805969E-08  0.93827000000E+00  0.93827000000E+00 0.  1.
     999902    2    1    2    0    0  0.59423274327E-02  0.22746760246E-01 -0.16949652060E-02  0.10203588468E+01  0.10200865537E+01 0.  0.
     999903    2    3    3    0    0 -0.65095550031E-01  0.91097751269E-01 -0.68144992127E-01  0.13236456522E+00  0.18450128826E-01 0.  0.
         14    1    1    2    0    0 -0.59423274327E-02 -0.22746760246E-01  0.16949652060E-02  0.23571153219E-01  0.00000000000E+00 0.  1.
     999901    1    3    3    0    0  0.71037877464E-01 -0.68350991022E-01  0.66450026921E-01  0.88799428156E+00  0.88000000000E+00 0.  1.
        -11    1    4    4    0    0 -0.44292943191E-01  0.51214401521E-01 -0.33275556001E-01  0.75447355738E-01  0.51100000000E-03 0. -1.
         11    1    4    4    0    0 -0.20802606841E-01  0.39883349748E-01 -0.34869436126E-01  0.56917209482E-01  0.51100000000E-03 0.  1.
</event>
<event>
 8    1  0.1128298E+005  0.1043930E+01  0.7957747E-01            NaN
         13   -1    0    0    0    0  0.00000000000E+00  0.00000000000E+00  0.74505805969E-08  0.10566000000E+00  0.10566000000E+00 0. -1.
     999900   -1    0    0    0    0 -0.00000000000E+00 -0.00000000000E+00 -0.74505805969E-08  0.93827000000E+00  0.93827000000E+00 0.  1.
     999902    2    1    2    0    0  0.42773899256E-03 -0.17616127375E-01 -0.12166426930E-01  0.10225166199E+01  0.10222923775E+01 0.  0.
     999903    2    3    3    0    0 -0.11660973267E+00  0.20529233947E-01 -0.56771446845E-01  0.13282990750E+00  0.20037663323E-01 0.  0.
         14    1    1    2    0    0 -0.42773899256E-03  0.17616127375E-01  0.12166426930E-01  0.21413380130E-01  0.00000000000E+00 0. -1.
     999901    1    3    3    0    0  0.11703747166E+00 -0.38145361323E-01  0.44605019915E-01  0.88968671237E+00  0.88000000000E+00 0. -1.
        -11    1    4    4    0    0 -0.45938904674E-01  0.54792538710E-02 -0.11898481188E-01  0.47772797293E-01  0.51100000000E-03 0. -1.
         11    1    4    4    0    0 -0.70670827992E-01  0.15049980076E-01 -0.44872965657E-01  0.85057110209E-01  0.51100000000E-03 0.  1.
</event>
<event>
 8    1  0.1128298E+005  0.1043930E+01  0.7957747E-01            NaN
         13   -1    0    0    0    0  0.00000000000E+00  0.00000000000E+00  0.74505805969E-08  0.10566000000E+00  0.10566000000E+00 0. -1.
     999900   -1    0    0    0    0 -0.00000000000E+00 -0.00000000000E+00 -0.74505805969E-08  0.93827000000E+00  0.93827000000E+00 0. -1.
     999902    2    1    2    0    0  0.15304244524E-01 -0.14648044996E-01 -0.10835130962E-01  0.10201353538E+01  0.10198578112E+01 0.  0.
     999903    2    3    3    0    0  0.63839152029E-01  0.10618461409E+00  0.31935388221E-01  0.12952573900E+00  0.20160318477E-01 0.  0.
         14    1    1    2    0    0 -0.15304244524E-01  0.14648044996E-01  0.10835130962E-01  0.23794646155E-01  0.00000000000E+00 0. -1.
     999901    1    3    3    0    0 -0.48534907505E-01 -0.12083265909E+00 -0.42770519183E-01  0.89060961485E+00  0.88000000000E+00 0.  1.
        -11    1    4    4    0    0  0.23406420337E-02  0.16478427950E-01  0.24047187866E-02  0.16824416372E-01  0.51100000000E-03 0.  1.
         11    1    4    4    0    0  0.61498509995E-01  0.89706186139E-01  0.29530669434E-01  0.11270132263E+00  0.51100000000E-03 0. -1.
</event>
<event>
 8    1  0.1128298E+005  0.1043930E+01  0.7957747E-01            NaN
         13   -1    0    0    0    0  0.00000000000E+00  0.00000000000E+00  0.74505805969E-08  0.10566000000E+00  0.10566000000E+00 0.  1.
     999900   -1    0    0    0    0 -0.00000000000E+00 -0.00000000000E+00 -0.74505805969E-08  0.93827000000E+00  0.93827000000E+00 0.  1.
     999902    2    1    2    0    0 -0.83055020828E-02  0.22498741766E-01  0.45706935196E-02  0.10195155374E+01  0.10192231674E+01 0.  0.
     999903    2    3    3    0    0 -0.16668045684E-01  0.97189885239E-01 -0.85006686903E-01  0.13178088889E+00  0.20405105188E-01 0.  0.
         14    1    1    2    0    0  0.83055020828E-02 -0.22498741766E-01 -0.45706935196E-02  0.24414462623E-01  0.00000000000E+00 0. -1.
     999901    1    3    3    0    0  0.83625436011E-02 -0.74691143473E-01  0.89577380422E-01  0.88773464849E+00  0.88000000000E+00 0. -1.
        -11    1    4    4    0    0 -0.12280619679E-01  0.61967647422E-01 -0.41309530716E-01  0.75482060092E-01  0.51100000000E-03 0. -1.
         11    1    4    4    0    0 -0.43874260050E-02  0.35222237817E-01 -0.43697156187E-01  0.56298828794E-01  0.51100000000E-03 0.  1.
</event>
<event>
 8    1  0.1128298E+005  0.1043930E+01  0.7957747E-01            NaN
         13   -1    0    0    0    0  0.00000000000E+00  0.00000000000E+00  0.74505805969E-08  0.10566000000E+00  0.10566000000E+00 0.  1.
     999900   -1    0    0    0    0 -0.00000000000E+00 -0.00000000000E+00 -0.74505805969E-08  0.93827000000E+00  0.93827000000E+00 0.  1.
     999902    2    1    2    0    0 -0.19492551421E-01 -0.12721141915E-01  0.38239144659E-02  0.10203416695E+01  0.10200689747E+01 0.  0.
     999903    2    3    3    0    0 -0.10349669973E-01  0.63407917410E-01 -0.11157208051E+00  0.12950191873E+00  0.13954861028E-01 0.  0.
         14    1    1    2    0    0  0.19492551421E-01  0.12721141915E-01 -0.38239144659E-02  0.23588330470E-01  0.00000000000E+00 0. -1.
     999901    1    3    3    0    0 -0.91428814474E-02 -0.76129059324E-01  0.11539599497E+00  0.89083975080E+00  0.88000000000E+00 0. -1.
        -11    1    4    4    0    0 -0.11403314365E-01  0.48732747315E-01 -0.75968187936E-01  0.90974408152E-01  0.51100000000E-03 0. -1.
         11    1    4    4    0    0  0.10536443919E-02  0.14675170095E-01 -0.35603892572E-01  0.38527510575E-01  0.51100000000E-03 0.  1.
</event>
<event>
 8    1  0.1128298E+005  0.1043930E+01  0.7957747E-01            NaN
         13   -1    0    0    0    0  0.00000000000E+00  0.00000000000E+00  0.74505805969E-08  0.10566000000E+00  0.10566000000E+00 0.  1.
     999900   -1    0    0    0    0 -0.00000000000E+00 -0.00000000000E+00 -0.74505805969E-08  0.93827000000E+00  0.93827000000E+00 0. -1.
     999902    2    1    2    0    0  0.11657681094E-01  0.20536813642E-01  0.15990263236E-01  0.10154106949E+01  0.10150101126E+01 0.  0.
     999903    2    3    3    0    0 -0.11733075974E+00 -0.21170218092E-01  0.30674264109E-01  0.12490908671E+00  0.21134903607E-01 0.  0.
         14    1    1    2    0    0 -0.11657681094E-01 -0.20536813642E-01 -0.15990263236E-01  0.28519305066E-01  0.00000000000E+00 0. -1.
     999901    1    3    3    0    0  0.12898844083E+00  0.41707031734E-01 -0.14684000873E-01  0.89050160822E+00  0.88000000000E+00 0.  1.
        -11    1    4    4    0    0 -0.27936970537E-01  0.30708294006E-02  0.11208284349E-01  0.30262040167E-01  0.51100000000E-03 0.  1.
         11    1    4    4    0    0 -0.89393789199E-01 -0.24241047493E-01  0.19465979760E-01  0.94647046546E-01  0.51100000000E-03 0. -1.
</event>
<event>
 8    1  0.1128298E+005  0.1043930E+01  0.7957747E-01            NaN
         13   -1    0    0    0    0  0.00000000000E+00  0.00000000000E+00  0.74505805969E-08  0.10566000000E+00  0.10566000000E+00 0.  1.
     999900   -1    0    0    0    0 -0.00000000000E+00 -0.00000000000E+00 -0.74505805969E-08  0.93827000000E+00  0.93827000000E+00 0.  1.
     999902    2    1    2    0    0  0.16070237766E-01 -0.17034620981E-01  0.83307313727E-02  0.10190737746E+01  0.10187705955E+01 0.  0.
     999903    2    3    3    0    0 -0.99696735410E-01  0.10906909027E-01 -0.75504758621E-01  0.12710342168E+00  0.19897525298E-01 0.  0.
         14    1    1    2    0    0 -0.16070237766E-01  0.17034620981E-01 -0.83307313727E-02  0.24856225358E-01  0.00000000000E+00 0.  1.
     999901    1    3    3    0    0  0.11576697318E+00 -0.27941530008E-01  0.83835489993E-01  0.89197035296E+00  0.88000000000E+00 0. -1.
        -11    1    4    4    0    0 -0.24877964071E-01  0.15250148485E-02 -0.88304971920E-02  0.26447638236E-01  0.51100000000E-03 0.  1.
         11    1    4    4    0    0 -0.74818771339E-01  0.93818941782E-02 -0.66674261429E-01  0.10065578345E+00  0.51100000000E-03 0. -1.
</event>
<event>
 8    1  0.1128298E+005  0.1043930E+01  0.7957747E-01            NaN
         13   -1    0    0    0    0  0.00000000000E+00  0.00000000000E+00  0.74505805969E-08  0.10566000000E+00  0.10566000000E+00 0. -1.
     999900   -1    0    0    0    0 -0.00000000000E+00 -0.00000000000E+00 -0.74505805969E-08  0.93827000000E+00  0.93827000000E+00 0.  1.
     999902    2    1    2    0    0 -0.87254305856E-02 -0.38741787263E-02 -0.20925485120E-01  0.10209296016E+01  0.10206704821E+01 0.  0.
     999903    2    3    3    0    0 -0.68065543971E-01  0.79934233367E-01  0.72960196127E-01  0.12999771859E+00  0.23533310006E-01 0.  0.
         14    1    1    2    0    0  0.87254305856E-02  0.38741787263E-02  0.20925485120E-01  0.23000398414E-01  0.00000000000E+00 0. -1.
     999901    1    3    3    0    0  0.59340113385E-01 -0.83808412094E-01 -0.93885681247E-01  0.89093188300E+00  0.88000000000E+00 0.  1.
        -11    1    4    4    0    0 -0.62084301742E-01  0.60152560057E-01  0.63503941361E-01  0.10726510473E+00  0.51100000000E-03 0.  1.
         11    1    4    4    0    0 -0.59812422284E-02  0.19781673311E-01  0.94562547661E-02  0.22732613857E-01  0.51100000000E-03 0. -1.
</event>
<event>
 8    1  0.1128298E+005  0.1043930E+01  0.7957747E-01            NaN
         13   -1    0    0    0    0  0.00000000000E+00  0.00000000000E+00  0.74505805969E-08  0.10566000000E+00  0.10566000000E+00 0. -1.
     999900   -1    0    0    0    0 -0.00000000000E+00 -0.00000000000E+00 -0.74505805969E-08  0.93827000000E+00  0.93827000000E+00 0. -1.
     999902    2    1    2    0    0  0.60869443052E-02 -0.14878714269E-01  0.17785877594E-01  0.10199557540E+01  0.10196739556E+01 0.  0.
     999903    2    3    3    0    0  0.80209337691E-01 -0.98903958872E-01  0.30316026938E-01  0.13276277862E+00  0.22166708459E-01 0.  0.
         14    1    1    2    0    0 -0.60869443052E-02  0.14878714269E-01 -0.17785877594E-01  0.23974245995E-01  0.00000000000E+00 0.  1.
     999901    1    3    3    0    0 -0.74122393385E-01  0.84025244603E-01 -0.12530149345E-01  0.88719297539E+00  0.88000000000E+00 0. -1.
        -11    1    4    4    0    0  0.45569582096E-01 -0.47241205984E-01  0.25339581392E-01  0.70361025158E-01  0.51100000000E-03 0. -1.
         11    1    4    4    0    0  0.34639755595E-01 -0.51662752888E-01  0.49764455463E-02  0.62401753460E-01  0.51100000000E-03 0.  1.
</event>
<event>
 8    1  0.1128298E+005  0.1043930E+01  0.7957747E-01            NaN
         13   -1    0    0    0    0  0.00000000000E+00  0.00000000000E+00  0.74505805969E-08  0.10566000000E+00  0.10566000000E+00 0. -1.
     999900   -1    0    0    0    0 -0.00000000000E+00 -0.00000000000E+00 -0.74505805969E-08  0.93827000000E+00  0.93827000000E+00 0.  1.
     999902    2    1    2    0    0  0.12792005836E-01  0.17126308685E-01 -0.95980404424E-02  0.10204977948E+01  0.10202287395E+01 0.  0.
     999903    2    3    3    0    0 -0.84605243213E-01  0.80596099397E-01  0.54561844854E-01  0.13053648698E+00  0.20223775636E-01 0.  0.
         14    1    1    2    0    0 -0.12792005836E-01 -0.17126308685E-01  0.95980404424E-02  0.23432205249E-01  0.00000000000E+00 0.  1.
     999901    1    3    3    0    0  0.97397249049E-01 -0.63469790712E-01 -0.64159885297E-01  0.88996130778E+00  0.88000000000E+00 0.  1.
        -11    1    4    4    0    0 -0.66914824805E-01  0.72780341524E-01  0.41684973055E-01  0.10729617883E+00  0.51100000000E-03 0.  1.
         11    1    4    4    0    0 -0.17690418408E-01  0.78157578738E-02  0.12876871800E-01  0.23240308151E-01  0.51100000000E-03 0. -1.
</event>
<event>
 8    1  0.1128298E+005  0.1043930E+01  0.7957747E-01            NaN
         13   -1    0    0    0    0  0.00000000000E+00  0.00000000000E+00  0.74505805969E-08  0.10566000000E+00  0.10566000000E+00 0.  1.
     999900   -1    0    0    0    0 -0.00000000000E+00 -0.00000000000E+00 -0.74505805969E-08  0.93827000000E+00  0.93827000000E+00 0.  1.
     999902    2    1    2    0    0 -0.21371347323E-01 -0.59113077919E-02  0.66436535978E-02  0.10207822965E+01  0.10205198090E+01 0.  0.
     999903    2    3    3    0    0 -0.82424041291E-01  0.67152069480E-01 -0.75228264690E-01  0.13186795888E+00  0.20657777072E-01 0.  0.
         14    1    1    2    0    0  0.21371347323E-01  0.59113077919E-02 -0.66436535978E-02  0.23147703543E-01  0.00000000000E+00 0.  1.
     999901    1    3    3    0    0  0.61052693968E-01 -0.73063377272E-01  0.81871918288E-01  0.88891433757E+00  0.88000000000E+00 0. -1.
        -11    1    4    4    0    0 -0.60811048397E-01  0.42502796454E-01 -0.61315975260E-01  0.96251655865E-01  0.51100000000E-03 0. -1.
         11    1    4    4    0    0 -0.21612992893E-01  0.24649273026E-01 -0.13912289430E-01  0.35616303019E-01  0.51100000000E-03 0.  1.
</event>
<event>
 8    1  0.1128298E+005  0.1043930E+01  0.7957747E-01            NaN
         13   -1    0    0    0    0  0.00000000000E+00  0.00000000000E+00  0.74505805969E-08  0.10566000000E+00  0.10566000000E+00 0. -1.
     999900   -1    0    0    0    0 -0.00000000000E+00 -0.00000000000E+00 -0.74505805969E-08  0.93827000000E+00  0.93827000000E+00 0.  1.
     999902    2    1    2    0    0 -0.60847309442E-02  0.20680263165E-01 -0.80840438394E-02  0.10209072069E+01  0.10206475769E+01 0.  0.
     999903    2    3    3    0    0  0.10336164045E+00 -0.74503532820E-01 -0.49882033401E-02  0.12902826479E+00  0.19723230520E-01 0.  0.
         14    1    1    2    0    0  0.60847309442E-02 -0.20680263165E-01  0.80840438394E-02  0.23022793055E-01  0.00000000000E+00 0. -1.
     999901    1    3    3    0    0 -0.10944637140E+00  0.95183795986E-01 -0.30958404993E-02  0.89187894215E+00  0.88000000000E+00 0. -1.
        -11    1    4    4    0    0  0.25586305457E-01 -0.99336590655E-02  0.30593327179E-02  0.27621680742E-01  0.51100000000E-03 0.  1.
         11    1    4    4    0    0  0.77775334998E-01 -0.64569873755E-01 -0.80475360579E-02  0.10140658405E+00  0.51100000000E-03 0. -1.
</event>
<event>
 8    1  0.1128298E+005  0.1043930E+01  0.7957747E-01            NaN
         13   -1    0    0    0    0  0.00000000000E+00  0.00000000000E+00  0.74505805969E-08  0.10566000000E+00  0.10566000000E+00 0.  1.
     999900   -1    0    0    0    0 -0.00000000000E+00 -0.00000000000E+00 -0.74505805969E-08  0.93827000000E+00  0.93827000000E+00 0.  1.
     999902    2    1    2    0    0  0.92790156606E-02  0.50893150464E-02  0.21622234389E-01  0.10198567310E+01  0.10195725720E+01 0.  0.
     999903    2    3    3    0    0  0.23321130279E-01 -0.11059317688E+00  0.62751245407E-01  0.13122226429E+00  0.22513061889E-01 0.  0.
         14    1    1    2    0    0 -0.92790156606E-02 -0.50893150464E-02 -0.21622234389E-01  0.24073268977E-01  0.00000000000E+00 0. -1.
     999901    1    3    3    0    0 -0.14042114618E-01  0.11568249192E+00 -0.41129011017E-01  0.88863446673E+00  0.88000000000E+00 0.  1.
        -11    1    4    4    0    0  0.16351619055E-02 -0.29854965489E-01  0.69269087639E-02  0.30695861364E-01  0.51100000000E-03 0. -1.
         11    1    4    4    0    0  0.21685968373E-01 -0.80738211388E-01  0.55824336643E-01  0.10052640293E+00  0.51100000000E-03 0.  1.
</event>
<event>
 8    1  0.1128298E+005  0.1043930E+01  0.7957747E-01            NaN
         13   -1    0    0    0    0  0.00000000000E+00  0.00000000000E+00  0.74505805969E-08  0.10566000000E+00  0.10566000000E+00 0. -1.
     999900   -1    0    0    0    0 -0.00000000000E+00 -0.00000000000E+00 -0.74505805969E-08  0.93827000000E+00  0.93827000000E+00 0. -1.
     999902    2    1    2    0    0  0.90379884948E-02 -0.19585772970E-01 -0.97335567557E-02  0.10202650498E+01  0.10199905598E+01 0.  0.
     999903    2    3    3    0    0  0.94352479249E-01 -0.90396831329E-01 -0.18862850315E-01  0.13326104065E+00  0.18130647502E-01 0.  0.
         14    1    1    2    0    0 -0.90379884948E-02  0.19585772970E-01  0.97335567557E-02  0.23664950158E-01  0.00000000000E+00 0. -1.
     999901    1    3    3    0    0 -0.85314490754E-01  0.70811058358E-01  0.91292935594E-02  0.88700400919E+00  0.88000000000E+00 0.  1.
        -11    1    4    4    0    0  0.45333673821E-02 -0.37263623398E-02  0.28908912186E-02  0.65616742640E-02  0.51100000000E-03 0.  1.
         11    1    4    4    0    0  0.89819111867E-01 -0.86670468989E-01 -0.21753741534E-01  0.12669936639E+00  0.51100000000E-03 0. -1.
</event>
<event>
 8    1  0.1128298E+005  0.1043930E+01  0.7957747E-01            NaN
         13   -1    0    0    0    0  0.00000000000E+00  0.00000000000E+00  0.74505805969E-08  0.10566000000E+00  0.10566000000E+00 0.  1.
     999900   -1    0    0    0    0 -0.00000000000E+00 -0.00000000000E+00 -0.74505805969E-08  0.93827000000E+00  0.93827000000E+00 0. -1.
     999902    2    1    2    0    0 -0.22244317738E-01 -0.43899760477E-02  0.66885258877E-02  0.10202906696E+01  0.10200167806E+01 0.  0.
     999903    2    3    3    0    0  0.52684712791E-02 -0.82262343109E-01  0.10035156098E+00  0.13147470261E+00  0.20501506066E-01 0.  0.
         14    1    1    2    0    0  0.22244317738E-01  0.43899760477E-02 -0.66885258877E-02  0.23639330360E-01  0.00000000000E+00 0. -1.
     999901    1    3    3    0    0 -0.27512789017E-01  0.77872367061E-01 -0.93663035092E-01  0.88881596703E+00  0.88000000000E+00 0.  1.
        -11    1    4    4    0    0 -0.62052037585E-02 -0.14137330435E-01  0.23633978200E-01  0.28234636744E-01  0.51100000000E-03 0. -1.
         11    1    4    4    0    0  0.11473675038E-01 -0.68125012674E-01  0.76717582780E-01  0.10324006586E+00  0.51100000000E-03 0.  1.
</event>
<event>
 8    1  0.1128298E+005  0.1043930E+01  0.7957747E-01            NaN
         13   -1    0    0    0    0  0.00000000000E+00  0.00000000000E+00  0.74505805969E-08  0.10566000000E+00  0.10566000000E+00 0.  1.
     999900   -1    0    0    0    0 -0.00000000000E+00 -0.00000000000E+00 -0.74505805969E-08  0.93827000000E+00  0.93827000000E+00 0.  1.
     999902    2    1    2    0    0 -0.91073918494E-02  0.11469068257E-01  0.17718820116E-01  0.10209421619E+01  0.10206833286E+01 0.  0.
     999903    2    3    3    0    0 -0.12560925673E+00  0.51453956586E-02  0.36899192792E-01  0.13303419369E+00  0.23073486755E-01 0.  0.
         14    1    1    2    0    0  0.91073918494E-02 -0.11469068257E-01 -0.17718820116E-01  0.22987838073E-01  0.00000000000E+00 0. -1.
     999901    1    3    3    0    0  0.11650186488E+00  0.63236725989E-02 -0.19180372676E-01  0.88790796823E+00  0.88000000000E+00 0.  1.
        -11    1    4    4    0    0 -0.61893565443E-01 -0.89872303716E-02  0.18550350062E-01  0.65237721921E-01  0.51100000000E-03 0.  1.
         11    1    4    4    0    0 -0.63715691284E-01  0.14132626030E-01  0.18348842730E-01  0.67796471773E-01  0.51100000000E-03 0. -1.
</event>
<event>
 8    1  0.1128298E+005  0.1043930E+01  0.7957747E-01            NaN
         13   -1    0    0    0    0  0.00000000000E+00  0.00000000000E+00  0.74505805969E-08  0.10566000000E+00  0.10566000000E+00 0.  1.
     999900   -1    0    0    0    0 -0.00000000000E+00 -0.00000000000E+00 -0.74505805969E-08  0.93827000000E+00  0.93827000000E+00 0.  1.
     999902    2    1    2    0    0 -0.32476189325E-02  0.88592238726E-02  0.21092208571E-01  0.10208234178E+01  0.10205618728E+01 0.  0.
     999903    2    3    3    0    0  0.77469585128E-01  0.10296685975E+00 -0.16139997890E-01  0.13135292853E+00  0.19732751376E-01 0.  0.
         14    1    1    2    0    0  0.32476189325E-02 -0.88592238726E-02 -0.21092208571E-01  0.23106582152E-01  0.00000000000E+00 0. -1.
     999901    1    3    3    0    0 -0.80717204061E-01 -0.94107635873E-01  0.37232206461E-01  0.88947048931E+00  0.88000000000E+00 0. -1.
        -11    1    4    4    0    0  0.24115436566E-01  0.41006112275E-01  0.19233185788E-02  0.47613189350E-01  0.51100000000E-03 0. -1.
         11    1    4    4    0    0  0.53354148562E-01  0.61960747470E-01 -0.18063316468E-01  0.83739739184E-01  0.51100000000E-03 0.  1.
</event>
<event>
 8    1  0.1128298E+005  0.1043930E+01  0.7957747E-01            NaN
         13   -1    0    0    0    0  0.00000000000E+00  0.00000000000E+00  0.74505805969E-08  0.10566000000E+00  0.10566000000E+00 0.  1.
     999900   -1    0    0    0    0 -0.00000000000E+00 -0.00000000000E+00 -0.74505805969E-08  0.93827000000E+00  0.93827000000E+00 0. -1.
     999902    2    1    2    0    0 -0.54989399634E-02 -0.22191655698E-01  0.59276894265E-02  0.10203112484E+01  0.10200378416E+01 0.  0.
     999903    2    3    3    0    0  0.70033700163E-01 -0.27343461165E-01 -0.10441833176E+00  0.13019442172E+00  0.19874994623E-01 0.  0.
         14    1    1    2    0    0  0.54989399634E-02  0.22191655698E-01 -0.59276894265E-02  0.23618751560E-01  0.00000000000E+00 0. -1.
     999901    1    3    3    0    0 -0.75532640127E-01  0.51518054670E-02  0.11034602119E+00  0.89011682672E+00  0.88000000000E+00 0.  1.
        -11    1    4    4    0    0  0.17492434124E-01 -0.16286700706E-01 -0.28344305591E-01  0.37079679771E-01  0.51100000000E-03 0. -1.
         11    1    4    4    0    0  0.52541266039E-01 -0.11056760459E-01 -0.76074026171E-01  0.93114741946E-01  0.51100000000E-03 0.  1.
</event>
<event>
 8    1  0.1128298E+005  0.1043930E+01  0.7957747E-01            NaN
         13   -1    0    0    0    0  0.00000000000E+00  0.00000000000E+00  0.74505805969E-08  0.10566000000E+00  0.10566000000E+00 0. -1.
     999900   -1    0    0    0    0 -0.00000000000E+00 -0.00000000000E+00 -0.74505805969E-08  0.93827000000E+00  0.93827000000E+00 0.  1.
     999902    2    1    2    0    0 -0.15722805876E-01  0.98924663660E-02 -0.14832627550E-01  0.10201587073E+01  0.10198817156E+01 0.  0.
     999903    2    3    3    0    0 -0.12662088071E+00 -0.28678810884E-01 -0.15899210601E-01  0.13235959489E+00  0.20272045690E-01 0.  0.
         14    1    1    2    0    0  0.15722805876E-01 -0.98924663660E-02  0.14832627550E-01  0.23771292676E-01  0.00000000000E+00 0. -1.
     999901    1    3    3    0    0  0.11089807484E+00  0.38571277250E-01  0.10665830509E-02  0.88779911243E+00  0.88000000000E+00 0. -1.
        -11    1    4    4    0    0 -0.53124856178E-01 -0.21592331178E-01 -0.10708139940E-01  0.58338704919E-01  0.51100000000E-03 0. -1.
         11    1    4    4    0    0 -0.73496024536E-01 -0.70864797059E-02 -0.51910706610E-02  0.74020889976E-01  0.51100000000E-03 0.  1.
</event>
<event>
 8    1  0.1128298E+005  0.1043930E+01  0.7957747E-01            NaN
         13   -1    0    0    0    0  0.00000000000E+00  0.00000000000E+00  0.74505805969E-08  0.10566000000E+00  0.10566000000E+00 0.  1.
     999900   -1    0    0    0    0 -0.00000000000E+00 -0.00000000000E+00 -0.74505805969E-08  0.93827000000E+00  0.93827000000E+00 0. -1.
     999902    2    1    2    0    0  0.21738361211E-01  0.59143609436E-02  0.27960868121E-02  0.10212285878E+01  0.10209762360E+01 0.  0.
     999903    2    3    3    0    0  0.30827709059E-01 -0.10508100881E+00  0.69945576121E-01  0.13167159568E+00  0.21275794490E-01 0.  0.
         14    1    1    2    0    0 -0.21738361211E-01 -0.59143609436E-02 -0.27960868121E-02  0.22701412180E-01  0.00000000000E+00 0.  1.
     999901    1    3    3    0    0 -0.90893478482E-02  0.11099536975E+00 -0.67149489309E-01  0.88955699214E+00  0.88000000000E+00 0. -1.
        -11    1    4    4    0    0  0.28439939143E-01 -0.83863010206E-01  0.46740887151E-01  0.10013394166E+00  0.51100000000E-03 0. -1.
         11    1    4    4    0    0  0.23877699167E-02 -0.21217998605E-01  0.23204688970E-01  0.31537654022E-01  0.51100000000E-03 0.  1.
</event>
<event>
 8    1  0.1128298E+005  0.1043930E+01  0.7957747E-01            NaN
         13   -1    0    0    0    0  0.00000000000E+00  0.00000000000E+00  0.74505805969E-08  0.10566000000E+00  0.10566000000E+00 0.  1.
     999900   -1    0    0    0    0 -0.00000000000E+00 -0.00000000000E+00 -0.74505805969E-08  0.93827000000E+00  0.93827000000E+00 0. -1.
     999902    2    1    2    0    0  0.27944444167E-02  0.18105957498E-01 -0.15659904175E-01  0.10198288130E+01  0.10195439866E+01 0.  0.
     999903    2    3    3    0    0 -0.11977737086E+00 -0.43275681277E-01 -0.72139422451E-02  0.12917574375E+00  0.20369797509E-01 0.  0.
         14    1    1    2    0    0 -0.27944444167E-02 -0.18105957498E-01  0.15659904175E-01  0.24101187010E-01  0.00000000000E+00 0.  1.
     999901    1    3    3    0    0  0.12257181527E+00  0.61381638775E-01 -0.84459619300E-02  0.89065306924E+00  0.88000000000E+00 0. -1.
        -11    1    4    4    0    0 -0.77196530944E-01 -0.17977518231E-01 -0.11306034888E-02  0.79271905092E-01  0.51100000000E-03 0. -1.
         11    1    4    4    0    0 -0.42580839913E-01 -0.25298163046E-01 -0.60833387563E-02  0.49903838656E-01  0.51100000000E-03 0.  1.
</event>
<event>
 8    1  0.1128298E+005  0.1043930E+01  0.7957747E-01            NaN
         13   -1    0    0    0    0  0.00000000000E+00  0.00000000000E+00  0.74505805969E-08  0.10566000000E+00  0.10566000000E+00 0.  1.
     999900   -1    0    0    0    0 -0.00000000000E+00 -0.00000000000E+00 -0.74505805969E-08  0.93827000000E+00  0.93827000000E+00 0. -1.
     999902    2    1    2    0    0  0.78807422835E-02  0.20476207769E-01  0.97434191276E-02  0.10199234301E+01  0.10196408622E+01 0.  0.
     999903    2    3    3    0    0  0.69238331776E-01  0.10933329429E+00 -0.18405512728E-01  0.13287625095E+00  0.23866699417E-01 0.  0.
         14    1    1    2    0    0 -0.78807422835E-02 -0.20476207769E-01 -0.97434191276E-02  0.24006569931E-01  0.00000000000E+00 0. -1.
     999901    1    3    3    0    0 -0.61357589492E-01 -0.88857086521E-01  0.28148931856E-01  0.88704717912E+00  0.88000000000E+00 0.  1.
        -11    1    4    4    0    0  0.36252745847E-01  0.77734763029E-01 -0.14920399576E-01  0.87062244453E-01  0.51100000000E-03 0. -1.
         11    1    4    4    0    0  0.32985585928E-01  0.31598531261E-01 -0.34851131523E-02  0.45814006500E-01  0.51100000000E-03 0.  1.
</event>
<event>
 8    1  0.1128298E+005  0.1043930E+01  0.7957747E-01            NaN
         13   -1    0    0    0    0  0.00000000000E+00  0.00000000000E+00  0.74505805969E-08  0.10566000000E+00  0.10566000000E+00 0.  1.
     999900   -1    0    0    0    0 -0.00000000000E+00 -0.00000000000E+00 -0.74505805969E-08  0.93827000000E+00  0.93827000000E+00 0.  1.
     999902    2    1    2    0    0 -0.86738104519E-02  0.62172305919E-03 -0.21660577878E-01  0.10205890026E+01  0.10203220619E+01 0.  0.
     999903    2    3    3    0    0 -0.46857426451E-01  0.10461243626E+00  0.58001262578E-01  0.13007338463E+00  0.20385256781E-01 0.  0.
         14    1    1    2    0    0  0.86738104519E-02 -0.62172305919E-03  0.21660577878E-01  0.23340997436E-01  0.00000000000E+00 0. -1.
     999901    1    3    3    0    0  0.38183616000E-01 -0.10399071320E+00 -0.79661840456E-01  0.89051561794E+00  0.88000000000E+00 0. -1.
        -11    1    4    4    0    0 -0.43855588712E-01  0.79694486966E-01  0.41162393736E-01  0.99845519144E-01  0.51100000000E-03 0.  1.
         11    1    4    4    0    0 -0.30018377392E-02  0.24917949294E-01  0.16838868842E-01  0.30227865484E-01  0.51100000000E-03 0. -1.
</event>
<event>
 8    1  0.1128298E+005  0.1043930E+01  0.7957747E-01            NaN
         13   -1    0    0    0    0  0.00000000000E+00  0.00000000000E+00  0.74505805969E-08  0.10566000000E+00  0.10566000000E+00 0.  1.
     999900   -1    0    0    0    0 -0.00000000000E+00 -0.00000000000E+00 -0.74505805969E-08  0.93827000000E+00  0.93827000000E+00 0.  1.
     999902    2    1    2    0    0  0.16869238644E-01  0.15301660571E-01  0.58306592890E-02  0.10204202442E+01  0.10201493843E+01 0.  0.
     999903    2    3    3    0    0  0.43068920249E-01  0.11680427414E+00 -0.41968472422E-01  0.13291026633E+00  0.20139907365E-01 0.  0.
         14    1    1    2    0    0 -0.16869238644E-01 -0.15301660571E-01 -0.58306592890E-02  0.23509755771E-01  0.00000000000E+00 0. -1.
     999901    1    3    3    0    0 -0.26199681605E-01 -0.10150261357E+00  0.47799131711E-01  0.88750997790E+00  0.88000000000E+00 0. -1.
        -11    1    4    4    0    0  0.33223462321E-01  0.61196528179E-01 -0.23194877083E-01  0.73396709420E-01  0.51100000000E-03 0.  1.
         11    1    4    4    0    0  0.98454579280E-02  0.55607745965E-01 -0.18773595339E-01  0.59513556910E-01  0.51100000000E-03 0. -1.
</event>
<event>
 8    1  0.1128298E+005  0.1043930E+01  0.7957747E-01            NaN
         13   -1    0    0    0    0  0.00000000000E+00  0.00000000000E+00  0.74505805969E-08  0.10566000000E+00  0.10566000000E+00 0.  1.
     999900   -1    0    0    0    0 -0.00000000000E+00 -0.00000000000E+00 -0.74505805969E-08  0.93827000000E+00  0.93827000000E+00 0. -1.
     999902    2    1    2    0    0  0.13006248883E-01  0.13257458760E-01  0.16954076981E-01  0.10187831622E+01  0.10184727626E+01 0.  0.
     999903    2    3    3    0    0  0.32114574103E-02 -0.21725871863E-01  0.12761802507E+00  0.13110851421E+00  0.20512318429E-01 0.  0.
         14    1    1    2    0    0 -0.13006248883E-01 -0.13257458760E-01 -0.16954076981E-01  0.25146837754E-01  0.00000000000E+00 0.  1.
     999901    1    3    3    0    0  0.97947914724E-02  0.34983330623E-01 -0.11066394809E+00  0.88767464804E+00  0.88000000000E+00 0. -1.
        -11    1    4    4    0    0  0.66977986145E-02 -0.13888415952E-01  0.11376819292E+00  0.11480945712E+00  0.51100000000E-03 0.  1.
         11    1    4    4    0    0 -0.34863412042E-02 -0.78374559116E-02  0.13849832157E-01  0.16299057087E-01  0.51100000000E-03 0. -1.
</event>
<event>
 8    1  0.1128298E+005  0.1043930E+01  0.7957747E-01            NaN
         13   -1    0    0    0    0  0.00000000000E+00  0.00000000000E+00  0.74505805969E-08  0.10566000000E+00  0.10566000000E+00 0. -1.
     999900   -1    0    0    0    0 -0.00000000000E+00 -0.00000000000E+00 -0.74505805969E-08  0.93827000000E+00  0.93827000000E+00 0.  1.
     999902    2    1    2    0    0  0.39302848068E-02  0.38846690352E-02 -0.22359302025E-01  0.10208979315E+01  0.10206380898E+01 0.  0.
     999903    2    3    3    0    0 -0.94760334729E-01 -0.67580525161E-01 -0.58535105339E-01  0.13176588219E+00  0.19729184827E-01 0.  0.
         14    1    1    2    0    0 -0.39302848068E-02 -0.38846690352E-02  0.22359302025E-01  0.23032068496E-01  0.00000000000E+00 0. -1.
     999901    1    3    3    0    0  0.98690619536E-01  0.71465194197E-01  0.36175803314E-01  0.88913204931E+00  0.88000000000E+00 0. -1.
        -11    1    4    4    0    0 -0.76071465719E-01 -0.49422675969E-01 -0.53189348942E-01  0.10516100398E+00  0.51100000000E-03 0. -1.
         11    1    4    4    0    0 -0.18688869010E-01 -0.18157849193E-01 -0.53457563971E-02  0.26604878211E-01  0.51100000000E-03 0.  1.
</event>
<event>
 8    1  0.1128298E+005  0.1043930E+01  0.7957747E-01            NaN
         13   -1    0    0    0    0  0.00000000000E+00  0.00000000000E+00  0.74505805969E-08  0.10566000000E+00  0.10566000000E+00 0.  1.
     999900   -1    0    0    0    0 -0.00000000000E+00 -0.00000000000E+00 -0.74505805969E-08  0.93827000000E+00  0.93827000000E+00 0. -1.
     999902    2    1    2    0    0  0.24040936089E-01  0.27404473834E-02 -0.47991935184E-02  0.10192620265E+01  0.10189634781E+01 0.  0.
     999903    2    3    3    0    0  0.10723429662E+00 -0.18572701212E-01 -0.72960407894E-01  0.13245802519E+00  0.19436247464E-01 0.  0.
         14    1    1    2    0    0 -0.24040936089E-01 -0.27404473834E-02  0.47991935184E-02  0.24667973535E-01  0.00000000000E+00 0. -1.
     999901    1    3    3    0    0 -0.83193360527E-01  0.21313148595E-01  0.68161214375E-01  0.88680400128E+00  0.88000000000E+00 0. -1.
        -11    1    4    4    0    0  0.35681066422E-01 -0.11041672644E-01 -0.34619809734E-01  0.50929847661E-01  0.51100000000E-03 0. -1.
         11    1    4    4    0    0  0.71553230193E-01 -0.75310285675E-02 -0.38340598160E-01  0.81528177525E-01  0.51100000000E-03 0.  1.
</event>
<event>
 8    1  0.1128298E+005  0.1043930E+01  0.7957747E-01            NaN
         13   -1    0    0    0    0  0.00000000000E+00  0.00000000000E+00  0.74505805969E-08  0.10566000000E+00  0.10566000000E+00 0. -1.
     999900   -1    0    0    0    0 -0.00000000000E+00 -0.00000000000E+00 -0.74505805969E-08  0.93827000000E+00  0.93827000000E+00 0.  1.
     999902    2    1    2    0    0 -0.10919149788E-01  0.18700598050E-01  0.96466198957E-02  0.10202235141E+01  0.10199480483E+01 0.  0.
     999903    2    3    3    0    0 -0.39334779646E-01 -0.39124046710E-01 -0.11495053399E+00  0.12911432418E+00  0.19467088163E-01 0.  0.
         14    1    1    2    0    0  0.10919149788E-01 -0.18700598050E-01 -0.96466198957E-02  0.23706485925E-01  0.00000000000E+00 0. -1.
     999901    1    3    3    0    0  0.28415629858E-01  0.57824644760E-01  0.12459715389E+00  0.89110918990E+00  0.88000000000E+00 0.  1.
        -11    1    4    4    0    0 -0.11317759572E-01 -0.11790760312E-02 -0.27209022176E-01  0.29497015286E-01  0.51100000000E-03 0.  1.
         11    1    4    4    0    0 -0.28017020074E-01 -0.37944970679E-01 -0.87741511818E-01  0.99617308891E-01  0.51100000000E-03 0. -1.
</event>
<event>
 8    1  0.1128298E+005  0.1043930E+01  0.7957747E-01            NaN
         13   -1    0    0    0    0  0.00000000000E+00  0.00000000000E+00  0.74505805969E-08  0.10566000000E+00  0.10566000000E+00 0. -1.
     999900   -1    0    0    0    0 -0.00000000000E+00 -0.00000000000E+00 -0.74505805969E-08  0.93827000000E+00  0.93827000000E+00 0. -1.
     999902    2    1    2    0    0 -0.11972499848E-01  0.17379678830E-01  0.12797474585E-01  0.10192486438E+01  0.10189497674E+01 0.  0.
     999903    2    3    3    0    0 -0.10456025934E+00  0.73420871667E-01 -0.23579782402E-01  0.13187250407E+00  0.22602631762E-01 0.  0.
         14    1    1    2    0    0  0.11972499848E-01 -0.17379678830E-01 -0.12797474585E-01  0.24681356215E-01  0.00000000000E+00 0.  1.
     999901    1    3    3    0    0  0.92587759494E-01 -0.56041192837E-01  0.36377256988E-01  0.88737613971E+00  0.88000000000E+00 0. -1.
        -11    1    4    4    0    0 -0.45950355106E-01  0.34852530209E-01  0.54493842845E-03  0.57677483260E-01  0.51100000000E-03 0.  1.
         11    1    4    4    0    0 -0.58609904235E-01  0.38568341459E-01 -0.24124720831E-01  0.74195020813E-01  0.51100000000E-03 0. -1.
</event>
<event>
 8    1  0.1128298E+005  0.1043930E+01  0.7957747E-01            NaN
         13   -1    0    0    0    0  0.00000000000E+00  0.00000000000E+00  0.74505805969E-08  0.10566000000E+00  0.10566000000E+00 0.  1.
     999900   -1    0    0    0    0 -0.00000000000E+00 -0.00000000000E+00 -0.74505805969E-08  0.93827000000E+00  0.93827000000E+00 0. -1.
     999902    2    1    2    0    0  0.38789156406E-02 -0.22582153168E-01  0.58193770552E-02  0.10202896790E+01  0.10200157667E+01 0.  0.
     999903    2    3    3    0    0  0.85788687331E-01  0.34962097735E-01 -0.88340201431E-01  0.12962331175E+00  0.20400112935E-01 0.  0.
         14    1    1    2    0    0 -0.38789156406E-02  0.22582153168E-01 -0.58193770552E-02  0.23640321013E-01  0.00000000000E+00 0.  1.
     999901    1    3    3    0    0 -0.81909771690E-01 -0.57544250903E-01  0.94159578486E-01  0.89066636724E+00  0.88000000000E+00 0.  1.
        -11    1    4    4    0    0  0.25551197455E-01  0.83142359296E-02 -0.38819354427E-01  0.47214336907E-01  0.51100000000E-03 0. -1.
         11    1    4    4    0    0  0.60237489876E-01  0.26647861805E-01 -0.49520847004E-01  0.82408974841E-01  0.51100000000E-03 0.  1.
</event>
<event>
 8    1  0.1128298E+005  0.1043930E+01  0.7957747E-01            NaN
         13   -1    0    0    0    0  0.00000000000E+00  0.00000000000E+00  0.74505805969E-08  0.10566000000E+00  0.10566000000E+00 0. -1.
     999900   -1    0    0    0    0 -0.00000000000E+00 -0.00000000000E+00 -0.74505805969E-08  0.93827000000E+00  0.93827000000E+00 0.  1.
     999902    2    1    2    0    0  0.70280794505E-03  0.10866239971E-01  0.19798638675E-01  0.10213345314E+01  0.10210845556E+01 0.  0.
     999903    2    3    3    0    0 -0.37431013107E-01 -0.76830927900E-02  0.12665136480E+00  0.13385733664E+00  0.20423214972E-01 0.  0.
         14    1    1    2    0    0 -0.70280794505E-03 -0.10866239971E-01 -0.19798638675E-01  0.22595468650E-01  0.00000000000E+00 0.  1.
     999901    1    3    3    0    0  0.38133821052E-01  0.18549332761E-01 -0.10685272612E+00  0.88747719471E+00  0.88000000000E+00 0.  1.
        -11    1    4    4    0    0 -0.30643992196E-01 -0.13996359528E-01  0.91693967146E-01  0.97688264750E-01  0.51100000000E-03 0.  1.
         11    1    4    4    0    0 -0.67870209106E-02  0.63132667377E-02  0.34957397651E-01  0.36169071889E-01  0.51100000000E-03 0. -1.
</event>
<event>
 8    1  0.1128298E+005  0.1043930E+01  0.7957747E-01            NaN
         13   -1    0    0    0    0  0.00000000000E+00  0.00000000000E+00  0.74505805969E-08  0.10566000000E+00  0.10566000000E+00 0. -1.
     999900   -1    0    0    0    0 -0.00000000000E+00 -0.00000000000E+00 -0.74505805969E-08  0.93827000000E+00  0.93827000000E+00 0. -1.
     999902    2    1    2    0    0 -0.12624776769E-01 -0.66544822024E-02 -0.19938469184E-01  0.10194104226E+01  0.10191154989E+01 0.  0.
     999903    2    3    3    0    0 -0.12455007165E+00 -0.31569202663E-01  0.15824396301E-01  0.13125109148E+00  0.21612556344E-01 0.  0.
         14    1    1    2    0    0  0.12624776769E-01  0.66544822024E-02  0.19938469184E-01  0.24519577387E-01  0.00000000000E+00 0. -1.
     999901    1    3    3    0    0  0.11192529488E+00  0.24914720461E-01 -0.35762865485E-01  0.88815933113E+00  0.88000000000E+00 0. -1.
        -11    1    4    4    0    0 -0.62575717727E-01 -0.26765514048E-01  0.10415326975E-01  0.68853854999E-01  0.51100000000E-03 0.  1.
         11    1    4    4    0    0 -0.61974353923E-01 -0.48036886150E-02  0.54090693261E-02  0.62397236481E-01  0.51100000000E-03 0. -1.
</event>
<event>
 8    1  0.1128298E+005  0.1043930E+01  0.7957747E-01            NaN
         13   -1    0    0    0    0  0.00000000000E+00  0.00000000000E+00  0.74505805969E-08  0.10566000000E+00  0.10566000000E+00 0.  1.
     999900   -1    0    0    0    0 -0.00000000000E+00 -0.00000000000E+00 -0.74505805969E-08  0.93827000000E+00  0.93827000000E+00 0.  1.
     999902    2    1    2    0    0 -0.22092130034E-01  0.58881307474E-02  0.61805318400E-02  0.10202460124E+01  0.10199710754E+01 0.  0.
     999903    2    3    3    0    0 -0.84424108960E-01  0.81978363651E-01  0.59152142355E-01  0.13318288579E+00  0.19769239752E-01 0.  0.
         14    1    1    2    0    0  0.22092130034E-01 -0.58881307474E-02 -0.61805318400E-02  0.23683987565E-01  0.00000000000E+00 0. -1.
     999901    1    3    3    0    0  0.62331978926E-01 -0.76090232903E-01 -0.52971610515E-01  0.88706312665E+00  0.88000000000E+00 0.  1.
        -11    1    4    4    0    0 -0.25000168547E-01  0.32709940993E-01  0.12684876417E-01  0.43082663310E-01  0.51100000000E-03 0. -1.
         11    1    4    4    0    0 -0.59423940414E-01  0.49268422657E-01  0.46467265938E-01  0.90100222476E-01  0.51100000000E-03 0.  1.
</event>
<event>
 8    1  0.1128298E+005  0.1043930E+01  0.7957747E-01            NaN
         13   -1    0    0    0    0  0.00000000000E+00  0.00000000000E+00  0.74505805969E-08  0.10566000000E+00  0.10566000000E+00 0.  1.
     999900   -1    0    0    0    0 -0.00000000000E+00 -0.00000000000E+00 -0.74505805969E-08  0.93827000000E+00  0.93827000000E+00 0. -1.
     999902    2    1    2    0    0 -0.15990364130E-01 -0.82823161508E-02  0.19522810961E-01  0.10173700931E+01  0.10170233418E+01 0.  0.
     999903    2    3    3    0    0  0.61791109195E-01 -0.10792396799E+00  0.23577106805E-01  0.12832855658E+00  0.21133254020E-01 0.  0.
         14    1    1    2    0    0  0.15990364130E-01  0.82823161508E-02 -0.19522810961E-01  0.26559906883E-01  0.00000000000E+00 0. -1.
     999901    1    3    3    0    0 -0.77781473325E-01  0.99641651842E-01 -0.40542958446E-02  0.88904153654E+00  0.88000000000E+00 0. -1.
        -11    1    4    4    0    0  0.53044898082E-01 -0.73699263043E-01  0.17717035246E-01  0.92517549927E-01  0.51100000000E-03 0.  1.
         11    1    4    4    0    0  0.87462111128E-02 -0.34224704950E-01  0.58600715594E-02  0.35811006652E-01  0.51100000000E-03 0. -1.
</event>
<event>
 8    1  0.1128298E+005  0.1043930E+01  0.7957747E-01            NaN
         13   -1    0    0    0    0  0.00000000000E+00  0.00000000000E+00  0.74505805969E-08  0.10566000000E+00  0.10566000000E+00 0. -1.
     999900   -1    0    0    0    0 -0.00000000000E+00 -0.00000000000E+00 -0.74505805969E-08  0.93827000000E+00  0.93827000000E+00 0.  1.
     999902    2    1    2    0    0  0.72839221786E-02 -0.24566065209E-02  0.21255285668E-01  0.10213273982E+01  0.10210772629E+01 0.  0.
     999903    2    3    3    0    0 -0.56509912725E-01 -0.10791233160E+00  0.46768883130E-01  0.13237210859E+00  0.22284639454E-01 0.  0.
         14    1    1    2    0    0 -0.72839221786E-02  0.24566065209E-02 -0.21255285668E-01  0.22602601769E-01  0.00000000000E+00 0.  1.
     999901    1    3    3    0    0  0.63793834903E-01  0.10545572508E+00 -0.25513597463E-01  0.88895528964E+00  0.88000000000E+00 0. -1.
        -11    1    4    4    0    0 -0.11583565899E-01 -0.15694687708E-01 -0.28370024503E-03  0.19515220420E-01  0.51100000000E-03 0.  1.
         11    1    4    4    0    0 -0.44926346826E-01 -0.92217643894E-01  0.47052583375E-01  0.11285688817E+00  0.51100000000E-03 0. -1.
</event>
<event>
 8    1  0.1128298E+005  0.1043930E+01  0.7957747E-01            NaN
         13   -1    0    0    0    0  0.00000000000E+00  0.00000000000E+00  0.74505805969E-08  0.10566000000E+00  0.10566000000E+00 0.  1.
     999900   -1    0    0    0    0 -0.00000000000E+00 -0.00000000000E+00 -0.74505805969E-08  0.93827000000E+00  0.93827000000E+00 0.  1.
     999902    2    1    2    0    0  0.73893002658E-02 -0.40204312080E-02 -0.11045897387E-01  0.10300455672E+01  0.10299519858E+01 0.  0.
     999903    2    3    3    0    0 -0.46826643544E-01  0.10319940614E+00 -0.78478073359E-01  0.13932531905E+00  0.20245605834E-01 0.  0.
         14    1    1    2    0    0 -0.73893002658E-02  0.40204312080E-02  0.11045897387E-01  0.13884432815E-01  0.00000000000E+00 0.  1.
     999901    1    3    3    0    0  0.54215943810E-01 -0.10721983735E+00  0.67432175972E-01  0.89072024814E+00  0.88000000000E+00 0. -1.
        -11    1    4    4    0    0 -0.85288336599E-02  0.35159471351E-01 -0.32973134388E-01  0.48953224017E-01  0.51100000000E-03 0.  1.
         11    1    4    4    0    0 -0.38297809884E-01  0.68039934792E-01 -0.45504938971E-01  0.90372095030E-01  0.51100000000E-03 0. -1.
</event>
<event>
 8    1  0.1128298E+005  0.1043930E+01  0.7957747E-01            NaN
         13   -1    0    0    0    0  0.00000000000E+00  0.00000000000E+00  0.74505805969E-08  0.10566000000E+00  0.10566000000E+00 0.  1.
     999900   -1    0    0    0    0 -0.00000000000E+00 -0.00000000000E+00 -0.74505805969E-08  0.93827000000E+00  0.93827000000E+00 0. -1.
     999902    2    1    2    0    0  0.10337136477E-01 -0.84548711953E-02  0.19216720592E-01  0.10205286413E+01  0.10202603022E+01 0.  0.
     999903    2    3    3    0    0 -0.29727312762E-01 -0.64283387120E-01 -0.10593663568E+00  0.12902129651E+00  0.20195474477E-01 0.  0.
         14    1    1    2    0    0 -0.10337136477E-01  0.84548711953E-02 -0.19216720592E-01  0.23401358674E-01  0.00000000000E+00 0. -1.
     999901    1    3    3    0    0  0.40064449238E-01  0.55828515925E-01  0.12515335627E+00  0.89150734482E+00  0.88000000000E+00 0.  1.
        -11    1    4    4    0    0 -0.24475882850E-01 -0.32702923959E-01 -0.68538672154E-01  0.79789477868E-01  0.51100000000E-03 0.  1.
         11    1    4    4    0    0 -0.52514299116E-02 -0.31580463161E-01 -0.37397963525E-01  0.49231818638E-01  0.51100000000E-03 0. -1.
</event>
<event>
 8    1  0.1128298E+005  0.1043930E+01  0.7957747E-01            NaN
         13   -1    0    0    0    0  0.00000000000E+00  0.00000000000E+00  0.74505805969E-08  0.10566000000E+00  0.10566000000E+00 0.  1.
     999900   -1    0    0    0    0 -0.00000000000E+00 -0.00000000000E+00 -0.74505805969E-08  0.93827000000E+00  0.93827000000E+00 0. -1.
     999902    2    1    2    0    0 -0.33618025841E-03 -0.10603752092E-01 -0.20705521071E-01  0.10206647646E+01  0.10203995739E+01 0.  0.
     999903    2    3    3    0    0  0.10709418610E+00  0.35899310444E-01  0.59142400668E-01  0.12932896421E+00  0.21684838953E-01 0.  0.
         14    1    1    2    0    0  0.33618025841E-03  0.10603752092E-01  0.20705521071E-01  0.23265235404E-01  0.00000000000E+00 0.  1.
     999901    1    3    3    0    0 -0.10743036636E+00 -0.46503062536E-01 -0.79847921739E-01  0.89133580038E+00  0.88000000000E+00 0. -1.
        -11    1    4    4    0    0  0.48451356211E-01  0.20786395215E-01  0.38728377219E-01  0.65419847659E-01  0.51100000000E-03 0. -1.
         11    1    4    4    0    0  0.58642829889E-01  0.15112915229E-01  0.20414023449E-01  0.63909116553E-01  0.51100000000E-03 0.  1.
</event>
<event>
 8    1  0.1128298E+005  0.1043930E+01  0.7957747E-01            NaN
         13   -1    0    0    0    0  0.00000000000E+00  0.00000000000E+00  0.74505805969E-08  0.10566000000E+00  0.10566000000E+00 0. -1.
     999900   -1    0    0    0    0 -0.00000000000E+00 -0.00000000000E+00 -0.74505805969E-08  0.93827000000E+00  0.93827000000E+00 0.  1.
     999902    2    1    2    0    0 -0.15781477895E-01  0.56091729229E-02 -0.20538130734E-01  0.10174284401E+01  0.10170832306E+01 0.  0.
     999903    2    3    3    0    0  0.26507138638E-02 -0.57275011194E-01 -0.11489081816E+00  0.12996204862E+00  0.20069399424E-01 0.  0.
         14    1    1    2    0    0  0.15781477895E-01 -0.56091729229E-02  0.20538130734E-01  0.26501559944E-01  0.00000000000E+00 0. -1.
     999901    1    3    3    0    0 -0.18432191759E-01  0.62884184117E-01  0.94352687424E-01  0.88746639144E+00  0.88000000000E+00 0. -1.
        -11    1    4    4    0    0 -0.13340539107E-02 -0.54155782224E-01 -0.94313465324E-01  0.10876543252E+00  0.51100000000E-03 0.  1.
         11    1    4    4    0    0  0.39847677745E-02 -0.31192289705E-02 -0.20577352834E-01  0.21196616103E-01  0.51100000000E-03 0. -1.
</event>
<event>
 8    1  0.1128298E+005  0.1043930E+01  0.7957747E-01            NaN
         13   -1    0    0    0    0  0.00000000000E+00  0.00000000000E+00  0.74505805969E-08  0.10566000000E+00  0.10566000000E+00 0.  1.
     999900   -1    0    0    0    0 -0.00000000000E+00 -0.00000000000E+00 -0.74505805969E-08  0.93827000000E+00  0.93827000000E+00 0.  1.
     999902    2    1    2    0    0 -0.11102804442E-02  0.14762981341E-01  0.18153530502E-01  0.10205050345E+01  0.10202361473E+01 0.  0.
     999903    2    3    3    0    0  0.25294284180E-01 -0.43683687219E-01 -0.11595372817E+00  0.12803768440E+00  0.20007903642E-01 0.  0.
         14    1    1    2    0    0  0.11102804442E-02 -0.14762981341E-01 -0.18153530502E-01  0.23424965537E-01  0.00000000000E+00 0. -1.
     999901    1    3    3    0    0 -0.26404564625E-01  0.58446668560E-01  0.13410725867E+00  0.89246735006E+00  0.88000000000E+00 0. -1.
        -11    1    4    4    0    0  0.19453299083E-01 -0.43676426279E-01 -0.96133558683E-01  0.10736844641E+00  0.51100000000E-03 0. -1.
         11    1    4    4    0    0  0.58409850977E-02 -0.72609400731E-05 -0.19820169490E-01  0.20669237993E-01  0.51100000000E-03 0.  1.
</event>
<event>
 8    1  0.1128298E+005  0.1043930E+01  0.7957747E-01            NaN
         13   -1    0    0    0    0  0.00000000000E+00  0.00000000000E+00  0.74505805969E-08  0.10566000000E+00  0.10566000000E+00 0. -1.
     999900   -1    0    0    0    0 -0.00000000000E+00 -0.00000000000E+00 -0.74505805969E-08  0.93827000000E+00  0.93827000000E+00 0. -1.
     999902    2    1    2    0    0  0.18129547530E-01 -0.77443192340E-03  0.15566593298E-01  0.10200218619E+01  0.10197416338E+01 0.  0.
     999903    2    3    3    0    0  0.11747113759E+00  0.65505156377E-02  0.59612462021E-01  0.13330745193E+00  0.19361138641E-01 0.  0.
         14    1    1    2    0    0 -0.18129547530E-01  0.77443192340E-03 -0.15566593298E-01  0.23908138057E-01  0.00000000000E+00 0.  1.
     999901    1    3    3    0    0 -0.99341590062E-01 -0.73249475611E-02 -0.44045868723E-01  0.88671441001E+00  0.88000000000E+00 0. -1.
        -11    1    4    4    0    0  0.31693182243E-01  0.11125706952E-02  0.26020556586E-01  0.41024701099E-01  0.51100000000E-03 0.  1.
         11    1    4    4    0    0  0.85777955350E-01  0.54379449425E-02  0.33591905435E-01  0.92282750831E-01  0.51100000000E-03 0. -1.
</event>
<event>
 8    1  0.1128298E+005  0.1043930E+01  0.7957747E-01            NaN
         13   -1    0    0    0    0  0.00000000000E+00  0.00000000000E+00  0.74505805969E-08  0.10566000000E+00  0.10566000000E+00 0.  1.
     999900   -1    0    0    0    0 -0.00000000000E+00 -0.00000000000E+00 -0.74505805969E-08  0.93827000000E+00  0.93827000000E+00 0. -1.
     999902    2    1    2    0    0  0.25333271759E-01 -0.32418754598E-02  0.88788314590E-02  0.10168908051E+01  0.10165312545E+01 0.  0.
     999903    2    3    3    0    0  0.86820979508E-01 -0.97159941674E-02 -0.92255712042E-01  0.12894325689E+00  0.21976443497E-01 0.  0.
         14    1    1    2    0    0 -0.25333271759E-01  0.32418754598E-02 -0.88788314590E-02  0.27039194933E-01  0.00000000000E+00 0. -1.
     999901    1    3    3    0    0 -0.61487707749E-01  0.64741187076E-02  0.10113454350E+00  0.88794754817E+00  0.88000000000E+00 0.  1.
        -11    1    4    4    0    0  0.47142216325E-01 -0.15524915860E-01 -0.56588947427E-01  0.75272715272E-01  0.51100000000E-03 0.  1.
         11    1    4    4    0    0  0.39678763184E-01  0.58089216925E-02 -0.35666764614E-01  0.53670541623E-01  0.51100000000E-03 0. -1.
</event>
<event>
 8    1  0.1128298E+005  0.1043930E+01  0.7957747E-01            NaN
         13   -1    0    0    0    0  0.00000000000E+00  0.00000000000E+00  0.74505805969E-08  0.10566000000E+00  0.10566000000E+00 0. -1.
     999900   -1    0    0    0    0 -0.00000000000E+00 -0.00000000000E+00 -0.74505805969E-08  0.93827000000E+00  0.93827000000E+00 0. -1.
     999902    2    1    2    0    0 -0.18046900349E-02  0.37023864827E-03 -0.22766823000E-01  0.10210887607E+01  0.10208332553E+01 0.  0.
     999903    2    3    3    0    0  0.26991094111E-01 -0.12278768145E+00  0.29201717253E-01  0.13052837553E+00  0.19482880978E-01 0.  0.
         14    1    1    2    0    0  0.18046900349E-02 -0.37023864827E-03  0.22766823000E-01  0.22841239289E-01  0.00000000000E+00 0. -1.
     999901    1    3    3    0    0 -0.28795784146E-01  0.12315792010E+00 -0.51968540253E-01  0.89056038518E+00  0.88000000000E+00 0. -1.
        -11    1    4    4    0    0  0.16085931979E-01 -0.79689175940E-01  0.93365211525E-02  0.81832473492E-01  0.51100000000E-03 0.  1.
         11    1    4    4    0    0  0.10905162132E-01 -0.43098505514E-01  0.19865196101E-01  0.48695902043E-01  0.51100000000E-03 0. -1.
</event>
<event>
 8    1  0.1128298E+005  0.1043930E+01  0.7957747E-01            NaN
         13   -1    0    0    0    0  0.00000000000E+00  0.00000000000E+00  0.74505805969E-08  0.10566000000E+00  0.10566000000E+00 0.  1.
     999900   -1    0    0    0    0 -0.00000000000E+00 -0.00000000000E+00 -0.74505805969E-08  0.93827000000E+00  0.93827000000E+00 0. -1.
     999902    2    1    2    0    0  0.28163511326E-02 -0.12512549298E-01  0.22553379238E-01  0.10179848533E+01  0.10176541706E+01 0.  0.
     999903    2    3    3    0    0  0.60900339434E-01  0.50425366735E-01  0.10173132385E+00  0.13028891553E+00  0.19348651241E-01 0.  0.
         14    1    1    2    0    0 -0.28163511326E-02  0.12512549298E-01 -0.22553379238E-01  0.25945146727E-01  0.00000000000E+00 0. -1.
     999901    1    3    3    0    0 -0.58083988302E-01 -0.62937916033E-01 -0.79177944610E-01  0.88769593774E+00  0.88000000000E+00 0. -1.
        -11    1    4    4    0    0  0.36358202975E-01  0.18640089859E-01  0.57572168777E-01  0.70598779112E-01  0.51100000000E-03 0.  1.
         11    1    4    4    0    0  0.24542136460E-01  0.31785276876E-01  0.44159155071E-01  0.59690136419E-01  0.51100000000E-03 0. -1.
</event>
<event>
 8    1  0.1128298E+005  0.1043930E+01  0.7957747E-01            NaN
         13   -1    0    0    0    0  0.00000000000E+00  0.00000000000E+00  0.74505805969E-08  0.10566000000E+00  0.10566000000E+00 0. -1.
     999900   -1    0    0    0    0 -0.00000000000E+00 -0.00000000000E+00 -0.74505805969E-08  0.93827000000E+00  0.93827000000E+00 0. -1.
     999902    2    1    2    0    0  0.36162280262E-02 -0.17378722762E-01 -0.16666789922E-01  0.10195808933E+01  0.10192901054E+01 0.  0.
     999903    2    3    3    0    0  0.80636323315E-01  0.71998781815E-01  0.66316088740E-01  0.12783732504E+00  0.16078458514E-01 0.  0.
         14    1    1    2    0    0 -0.36162280262E-02  0.17378722762E-01  0.16666789922E-01  0.24349106683E-01  0.00000000000E+00 0. -1.
     999901    1    3    3    0    0 -0.77020095289E-01 -0.89377504577E-01 -0.82982878662E-01  0.89174356827E+00  0.88000000000E+00 0. -1.
        -11    1    4    4    0    0  0.54930207142E-01  0.56486223036E-01  0.42589101819E-01  0.89566253490E-01  0.51100000000E-03 0.  1.
         11    1    4    4    0    0  0.25706116173E-01  0.15512558779E-01  0.23726986921E-01  0.38271071554E-01  0.51100000000E-03 0. -1.
</event>
<event>
 8    1  0.1128298E+005  0.1043930E+01  0.7957747E-01            NaN
         13   -1    0    0    0    0  0.00000000000E+00  0.00000000000E+00  0.74505805969E-08  0.10566000000E+00  0.10566000000E+00 0. -1.
     999900   -1    0    0    0    0 -0.00000000000E+00 -0.00000000000E+00 -0.74505805969E-08  0.93827000000E+00  0.93827000000E+00 0.  1.
     999902    2    1    2    0    0 -0.25624603065E-01  0.12698849084E-01  0.44069283292E-02  0.10149938277E+01  0.10145812773E+01 0.  0.
     999903    2    3    3    0    0  0.16397143191E-01 -0.64690464403E-02  0.12282738001E+00  0.12586130734E+00  0.21066289185E-01 0.  0.
         14    1    1    2    0    0  0.25624603065E-01 -0.12698849084E-01 -0.44069283292E-02  0.28936172303E-01  0.00000000000E+00 0.  1.
     999901    1    3    3    0    0 -0.42021746255E-01  0.19167895524E-01 -0.11842045168E+00  0.88913252035E+00  0.88000000000E+00 0.  1.
        -11    1    4    4    0    0  0.49833287373E-02  0.32789975800E-02  0.84266331339E-01  0.84478761288E-01  0.51100000000E-03 0. -1.
         11    1    4    4    0    0  0.11413814453E-01 -0.97480440203E-02  0.38561048666E-01  0.41382546053E-01  0.51100000000E-03 0.  1.
</event>
<event>
 8    1  0.1128298E+005  0.1043930E+01  0.7957747E-01            NaN
         13   -1    0    0    0    0  0.00000000000E+00  0.00000000000E+00  0.74505805969E-08  0.10566000000E+00  0.10566000000E+00 0. -1.
     999900   -1    0    0    0    0 -0.00000000000E+00 -0.00000000000E+00 -0.74505805969E-08  0.93827000000E+00  0.93827000000E+00 0.  1.
     999902    2    1    2    0    0 -0.22523000333E-01  0.20272681520E-02 -0.17866350522E-01  0.10151098362E+01  0.10147006345E+01 0.  0.
     999903    2    3    3    0    0  0.10301336826E+00  0.69467013898E-02  0.62906691300E-01  0.12252490190E+00  0.19876847723E-01 0.  0.
         14    1    1    2    0    0  0.22523000333E-01 -0.20272681520E-02  0.17866350522E-01  0.28820163794E-01  0.00000000000E+00 0. -1.
     999901    1    3    3    0    0 -0.12553636859E+00 -0.49194332378E-02 -0.80773041822E-01  0.89258493430E+00  0.88000000000E+00 0.  1.
        -11    1    4    4    0    0  0.27990277747E-01  0.78167964559E-02  0.25598742848E-01  0.38731314354E-01  0.51100000000E-03 0. -1.
         11    1    4    4    0    0  0.75023090511E-01 -0.87009506610E-03  0.37307948452E-01  0.83793587547E-01  0.51100000000E-03 0.  1.
</event>
<event>
 8    1  0.1128298E+005  0.1043930E+01  0.7957747E-01            NaN
         13   -1    0    0    0    0  0.00000000000E+00  0.00000000000E+00  0.74505805969E-08  0.10566000000E+00  0.10566000000E+00 0. -1.
     999900   -1    0    0    0    0 -0.00000000000E+00 -0.00000000000E+00 -0.74505805969E-08  0.93827000000E+00  0.93827000000E+00 0.  1.
     999902    2    1    2    0    0  0.17157902657E-01 -0.14061759463E-01 -0.71817632591E-02  0.10206125296E+01  0.10203461330E+01 0.  0.
     999903    2    3    3    0    0  0.40074957272E-01  0.33675461856E-01 -0.11928053294E+00  0.13192238795E+00  0.20871798480E-01 0.  0.
         14    1    1    2    0    0 -0.17157902657E-01  0.14061759463E-01  0.71817632591E-02  0.23317470409E-01  0.00000000000E+00 0. -1.
     999901    1    3    3    0    0 -0.22917054615E-01 -0.47737221318E-01  0.11209876968E+00  0.88869014164E+00  0.88000000000E+00 0. -1.
        -11    1    4    4    0    0  0.35927445423E-01  0.34715317095E-01 -0.95751463730E-01  0.10800249304E+00  0.51100000000E-03 0. -1.
         11    1    4    4    0    0  0.41475118489E-02 -0.10398552391E-02 -0.23529069210E-01  0.23919894906E-01  0.51100000000E-03 0.  1.
</event>
<event>
 8    1  0.1128298E+005  0.1043930E+01  0.7957747E-01            NaN
         13   -1    0    0    0    0  0.00000000000E+00  0.00000000000E+00  0.74505805969E-08  0.10566000000E+00  0.10566000000E+00 0. -1.
     999900   -1    0    0    0    0 -0.00000000000E+00 -0.00000000000E+00 -0.74505805969E-08  0.93827000000E+00  0.93827000000E+00 0.  1.
     999902    2    1    2    0    0 -0.48385059128E-03 -0.22494943914E-01  0.53353208624E-02  0.10208059376E+01  0.10205439922E+01 0.  0.
     999903    2    3    3    0    0  0.39762864120E-01 -0.10382194483E+00 -0.69968214913E-01  0.13294080053E+00  0.20435844882E-01 0.  0.
         14    1    1    2    0    0  0.48385059128E-03  0.22494943914E-01 -0.53353208624E-02  0.23124062398E-01  0.00000000000E+00 0.  1.
     999901    1    3    3    0    0 -0.40246714711E-01  0.81327000919E-01  0.75303535776E-01  0.88786513707E+00  0.88000000000E+00 0. -1.
        -11    1    4    4    0    0  0.26064828278E-01 -0.76688646214E-01 -0.60506853712E-01  0.10110323535E+00  0.51100000000E-03 0.  1.
         11    1    4    4    0    0  0.13698035842E-01 -0.27133298619E-01 -0.94613612009E-02  0.31837565181E-01  0.51100000000E-03 0. -1.
</event>
<event>
 8    1  0.1128298E+005  0.1043930E+01  0.7957747E-01            NaN
         13   -1    0    0    0    0  0.00000000000E+00  0.00000000000E+00  0.74505805969E-08  0.10566000000E+00  0.10566000000E+00 0.  1.
     999900   -1    0    0    0    0 -0.00000000000E+00 -0.00000000000E+00 -0.74505805969E-08  0.93827000000E+00  0.93827000000E+00 0.  1.
     999902    2    1    2    0    0 -0.11896364410E-01  0.14203763494E-01 -0.15215845596E-01  0.10199551728E+01  0.10196733605E+01 0.  0.
     999903    2    3    3    0    0  0.59944900610E-01 -0.10615477804E+00  0.32402784594E-01  0.12759040440E+00  0.19160971686E-01 0.  0.
         14    1    1    2    0    0  0.11896364410E-01 -0.14203763494E-01  0.15215845596E-01  0.23974827231E-01  0.00000000000E+00 0.  1.
     999901    1    3    3    0    0 -0.71841265019E-01  0.12035854154E+00 -0.47618630190E-01  0.89236476837E+00  0.88000000000E+00 0. -1.
        -11    1    4    4    0    0  0.33088389563E-02 -0.72910187118E-02  0.74567108026E-02  0.10953128598E-01  0.51100000000E-03 0.  1.
         11    1    4    4    0    0  0.56636061653E-01 -0.98863759330E-01  0.24946073791E-01  0.11663727580E+00  0.51100000000E-03 0. -1.
</event>
<event>
 7    1  0.1128298E+005  0.1043930E+01  0.7957747E-01            NaN
         13   -1    0    0    0    0  0.00000000000E+00  0.00000000000E+00  0.74505805969E-08  0.10566000000E+00  0.10566000000E+00 0.  1.
     999900   -1    0    0    0    0 -0.00000000000E+00 -0.00000000000E+00 -0.74505805969E-08  0.93827000000E+00  0.93827000000E+00 0.  1.
     999903    2    1    2    0    0  0.74638216654E-01  0.73361358260E-02 -0.76798380607E-01  0.10916407900E+00  0.19852521408E-01 0.  0.
         14    1    1    2    0    0  0.37254033489E-01 -0.13428755457E-01 -0.16226263130E-01  0.42795865448E-01  0.00000000000E+00 0. -1.
     999901    1    1    2    0    0 -0.11189225014E+00  0.60926196315E-02  0.93024643737E-01  0.89197005555E+00  0.88000000000E+00 0.  1.
        -11    1    3    3    0    0  0.49096534510E-01  0.76208165906E-02 -0.62644180589E-01  0.79956869806E-01  0.51100000000E-03 0. -1.
         11    1    3    3    0    0  0.25541682144E-01 -0.28468076460E-03 -0.14154200017E-01  0.29207209196E-01  0.51100000000E-03 0.  1.
</event>
<event>
 8    1  0.1128298E+005  0.1043930E+01  0.7957747E-01            NaN
         13   -1    0    0    0    0  0.00000000000E+00  0.00000000000E+00  0.74505805969E-08  0.10566000000E+00  0.10566000000E+00 0. -1.
     999900   -1    0    0    0    0 -0.00000000000E+00 -0.00000000000E+00 -0.74505805969E-08  0.93827000000E+00  0.93827000000E+00 0.  1.
     999902    2    1    2    0    0 -0.15741065828E-01  0.15966628474E-01  0.78615232250E-02  0.10201704140E+01  0.10198936982E+01 0.  0.
     999903    2    3    3    0    0  0.51789691753E-01 -0.74362420915E-01 -0.87942381755E-01  0.12781503157E+00  0.19770634063E-01 0.  0.
         14    1    1    2    0    0  0.15741065828E-01 -0.15966628474E-01 -0.78615232250E-02  0.23759585974E-01  0.00000000000E+00 0.  1.
     999901    1    3    3    0    0 -0.67530757581E-01  0.90329049389E-01  0.95803904980E-01  0.89235538245E+00  0.88000000000E+00 0. -1.
        -11    1    4    4    0    0  0.22024458834E-02 -0.15022181592E-01 -0.11267247402E-01  0.18913717051E-01  0.51100000000E-03 0. -1.
         11    1    4    4    0    0  0.49587245870E-01 -0.59340239323E-01 -0.76675134352E-01  0.10890131452E+00  0.51100000000E-03 0.  1.
</event>
<event>
 8    1  0.1128298E+005  0.1043930E+01  0.7957747E-01            NaN
         13   -1    0    0    0    0  0.00000000000E+00  0.00000000000E+00  0.74505805969E-08  0.10566000000E+00  0.10566000000E+00 0. -1.
     999900   -1    0    0    0    0 -0.00000000000E+00 -0.00000000000E+00 -0.74505805969E-08  0.93827000000E+00  0.93827000000E+00 0. -1.
     999902    2    1    2    0    0  0.79046595224E-02 -0.57799692870E-02  0.22337995936E-01  0.10195398842E+01  0.10192481041E+01 0.  0.
     999903    2    3    3    0    0  0.10466997364E+00 -0.61365907959E-01  0.47531774486E-01  0.13213465033E+00  0.21879629552E-01 0.  0.
         14    1    1    2    0    0 -0.79046595224E-02  0.57799692870E-02 -0.22337995936E-01  0.24390115817E-01  0.00000000000E+00 0.  1.
     999901    1    3    3    0    0 -0.96765314122E-01  0.55585938672E-01 -0.25193778550E-01  0.88740523385E+00  0.88000000000E+00 0. -1.
        -11    1    4    4    0    0  0.59604656559E-02 -0.70882966787E-02 -0.12825756503E-02  0.93636115863E-02  0.51100000000E-03 0. -1.
         11    1    4    4    0    0  0.98709507989E-01 -0.54277611280E-01  0.48814350136E-01  0.12277103874E+00  0.51100000000E-03 0.  1.
</event>
<event>
 7    1  0.1128298E+005  0.1043930E+01  0.7957747E-01            NaN
         13   -1    0    0    0    0  0.00000000000E+00  0.00000000000E+00  0.74505805969E-08  0.10566000000E+00  0.10566000000E+00 0.  1.
     999900   -1    0    0    0    0 -0.00000000000E+00 -0.00000000000E+00 -0.74505805969E-08  0.93827000000E+00  0.93827000000E+00 0.  1.
     999903    2    1    2    0    0 -0.73446135289E-02  0.48220219320E-01  0.11539556640E-02  0.54464774784E-01  0.24206345850E-01 0.  0.
         14    1    1    2    0    0 -0.56740349155E-01 -0.14821105758E-01 -0.84195994550E-01  0.10260651976E+00  0.00000000000E+00 0. -1.
     999901    1    1    2    0    0  0.64084962684E-01 -0.33399113562E-01  0.83042038886E-01  0.88685870546E+00  0.88000000000E+00 0. -1.
        -11    1    3    3    0    0 -0.13614640376E-01  0.14558220113E-01 -0.21816164144E-02  0.20057935502E-01  0.51100000000E-03 0. -1.
         11    1    3    3    0    0  0.62700268472E-02  0.33661999207E-01  0.33355720784E-02  0.34406839281E-01  0.51100000000E-03 0.  1.
</event>
<event>
 8    1  0.1128298E+005  0.1043930E+01  0.7957747E-01            NaN
         13   -1    0    0    0    0  0.00000000000E+00  0.00000000000E+00  0.74505805969E-08  0.10566000000E+00  0.10566000000E+00 0. -1.
     999900   -1    0    0    0    0 -0.00000000000E+00 -0.00000000000E+00 -0.74505805969E-08  0.93827000000E+00  0.93827000000E+00 0. -1.
     999902    2    1    2    0    0  0.22275203824E-01  0.56334496032E-02 -0.54125893031E-02  0.10203245645E+01  0.10200514695E+01 0.  0.
     999903    2    3    3    0    0 -0.52676969180E-01  0.39531736739E-01  0.10879779514E+00  0.12913943562E+00  0.22414555816E-01 0.  0.
         14    1    1    2    0    0 -0.22275203824E-01 -0.56334496032E-02  0.54125893031E-02  0.23605435451E-01  0.00000000000E+00 0. -1.
     999901    1    3    3    0    0  0.74952173004E-01 -0.33898287136E-01 -0.11421038445E+00  0.89118512893E+00  0.88000000000E+00 0. -1.
        -11    1    4    4    0    0 -0.19847592058E-01  0.58467709371E-02  0.20713356577E-01  0.29281664956E-01  0.51100000000E-03 0.  1.
         11    1    4    4    0    0 -0.32829377121E-01  0.33684965802E-01  0.88084438568E-01  0.99857770665E-01  0.51100000000E-03 0. -1.
</event>
<event>
 8    1  0.1128298E+005  0.1043930E+01  0.7957747E-01            NaN
         13   -1    0    0    0    0  0.00000000000E+00  0.00000000000E+00  0.74505805969E-08  0.10566000000E+00  0.10566000000E+00 0. -1.
     999900   -1    0    0    0    0 -0.00000000000E+00 -0.00000000000E+00 -0.74505805969E-08  0.93827000000E+00  0.93827000000E+00 0. -1.
     999902    2    1    2    0    0  0.22002523015E-01 -0.19829022383E-02 -0.82102161047E-02  0.10203620012E+01  0.10200897818E+01 0.  0.
     999903    2    3    3    0    0  0.47112719655E-01  0.89701644535E-01  0.80622620874E-01  0.13079589850E+00  0.18481522737E-01 0.  0.
         14    1    1    2    0    0 -0.22002523015E-01  0.19829022383E-02  0.82102161047E-02  0.23567998829E-01  0.00000000000E+00 0.  1.
     999901    1    3    3    0    0 -0.25110196640E-01 -0.91684546773E-01 -0.88832836979E-01  0.88956610267E+00  0.88000000000E+00 0. -1.
        -11    1    4    4    0    0  0.19000091480E-01  0.50694894221E-01  0.34707746491E-01  0.64310687788E-01  0.51100000000E-03 0.  1.
         11    1    4    4    0    0  0.28112628176E-01  0.39006750314E-01  0.45914874383E-01  0.66485210713E-01  0.51100000000E-03 0. -1.
</event>
<event>
 8    1  0.1128298E+005  0.1043930E+01  0.7957747E-01            NaN
         13   -1    0    0    0    0  0.00000000000E+00  0.00000000000E+00  0.74505805969E-08  0.10566000000E+00  0.10566000000E+00 0.  1.
     999900   -1    0    0    0    0 -0.00000000000E+00 -0.00000000000E+00 -0.74505805969E-08  0.93827000000E+00  0.93827000000E+00 0.  1.
     999902    2    1    2    0    0 -0.17660219199E-01  0.15229691981E-01  0.33547270220E-02  0.10203698418E+01  0.10200978056E+01 0.  0.
     999903    2    3    3    0    0  0.10096458528E+00  0.64589826109E-01  0.46453350917E-01  0.12999589877E+00  0.19373352005E-01 0.  0.
         14    1    1    2    0    0  0.17660219199E-01 -0.15229691981E-01 -0.33547270220E-02  0.23560158178E-01  0.00000000000E+00 0. -1.
     999901    1    3    3    0    0 -0.11862480448E+00 -0.49360134127E-01 -0.43098623895E-01  0.89037394305E+00  0.88000000000E+00 0.  1.
        -11    1    4    4    0    0  0.18941462567E-01  0.99222790185E-02  0.90447672132E-03  0.21408171904E-01  0.51100000000E-03 0. -1.
         11    1    4    4    0    0  0.82023122716E-01  0.54667547090E-01  0.45548874196E-01  0.10858772687E+00  0.51100000000E-03 0.  1.
</event>
<event>
 8    1  0.1128298E+005  0.1043930E+01  0.7957747E-01            NaN
         13   -1    0    0    0    0  0.00000000000E+00  0.00000000000E+00  0.74505805969E-08  0.10566000000E+00  0.10566000000E+00 0. -1.
     999900   -1    0    0    0    0 -0.00000000000E+00 -0.00000000000E+00 -0.74505805969E-08  0.93827000000E+00  0.93827000000E+00 0. -1.
     999902    2    1    2    0    0  0.34222720025E-03  0.22964671375E-01 -0.65016944138E-02  0.10200602434E+01  0.10197809249E+01 0.  0.
     999903    2    3    3    0    0  0.20374679497E-01 -0.78738207935E-01  0.96682317078E-01  0.12798865711E+00  0.20464431575E-01 0.  0.
         14    1    1    2    0    0 -0.34222720025E-03 -0.22964671375E-01  0.65016944138E-02  0.23869756619E-01  0.00000000000E+00 0.  1.
     999901    1    3    3    0    0 -0.20032452297E-01  0.10170287931E+00 -0.10318401149E+00  0.89207158627E+00  0.88000000000E+00 0.  1.
        -11    1    4    4    0    0  0.89830986752E-02 -0.23377929959E-01  0.44476881187E-01  0.51045839714E-01  0.51100000000E-03 0. -1.
         11    1    4    4    0    0  0.11391580822E-01 -0.55360277976E-01  0.52205435892E-01  0.76942817396E-01  0.51100000000E-03 0.  1.
</event>
<event>
 8    1  0.1128298E+005  0.1043930E+01  0.7957747E-01            NaN
         13   -1    0    0    0    0  0.00000000000E+00  0.00000000000E+00  0.74505805969E-08  0.10566000000E+00  0.10566000000E+00 0.  1.
     999900   -1    0    0    0    0 -0.00000000000E+00 -0.00000000000E+00 -0.74505805969E-08  0.93827000000E+00  0.93827000000E+00 0.  1.
     999902    2    1    2    0    0  0.22562047801E-01 -0.75688421790E-03  0.67385829001E-02  0.10203709810E+01  0.10200989715E+01 0.  0.
     999903    2    3    3    0    0 -0.40222611255E-01  0.11438086693E+00 -0.36638199847E-01  0.12959594747E+00  0.27420990817E-01 0.  0.
         14    1    1    2    0    0 -0.22562047801E-01  0.75688421790E-03 -0.67385829001E-02  0.23559018957E-01  0.00000000000E+00 0. -1.
     999901    1    3    3    0    0  0.62784659057E-01 -0.11513775115E+00  0.43376782747E-01  0.89077503357E+00  0.88000000000E+00 0. -1.
        -11    1    4    4    0    0 -0.19821668369E-01  0.89230092890E-01 -0.21800255176E-01  0.93970315850E-01  0.51100000000E-03 0.  1.
         11    1    4    4    0    0 -0.20400942886E-01  0.25150774039E-01 -0.14837944672E-01  0.35625631622E-01  0.51100000000E-03 0. -1.
</event>
<event>
 8    1  0.1128298E+005  0.1043930E+01  0.7957747E-01            NaN
         13   -1    0    0    0    0  0.00000000000E+00  0.00000000000E+00  0.74505805969E-08  0.10566000000E+00  0.10566000000E+00 0. -1.
     999900   -1    0    0    0    0 -0.00000000000E+00 -0.00000000000E+00 -0.74505805969E-08  0.93827000000E+00  0.93827000000E+00 0. -1.
     999902    2    1    2    0    0 -0.22750315148E-01  0.99536347437E-02 -0.26202390094E-02  0.10189596709E+01  0.10186536671E+01 0.  0.
     999903    2    3    3    0    0 -0.56092817897E-02  0.12504273946E+00  0.30955619396E-01  0.13066543172E+00  0.21167284721E-01 0.  0.
         14    1    1    2    0    0  0.22750315148E-01 -0.99536347437E-02  0.26202390094E-02  0.24970329121E-01  0.00000000000E+00 0. -1.
     999901    1    3    3    0    0 -0.17141033358E-01 -0.11508910471E+00 -0.33575858405E-01  0.88829423915E+00  0.88000000000E+00 0. -1.
        -11    1    4    4    0    0 -0.12818342076E-01  0.92218690347E-01  0.19256031557E-01  0.95077087751E-01  0.51100000000E-03 0. -1.
         11    1    4    4    0    0  0.72090602858E-02  0.32824049110E-01  0.11699587839E-01  0.35588343973E-01  0.51100000000E-03 0.  1.
</event>
<event>
 8    1  0.1128298E+005  0.1043930E+01  0.7957747E-01            NaN
         13   -1    0    0    0    0  0.00000000000E+00  0.00000000000E+00  0.74505805969E-08  0.10566000000E+00  0.10566000000E+00 0.  1.
     999900   -1    0    0    0    0 -0.00000000000E+00 -0.00000000000E+00 -0.74505805969E-08  0.93827000000E+00  0.93827000000E+00 0. -1.
     999902    2    1    2    0    0  0.23385838551E-01  0.45475282404E-02  0.48925560660E-02  0.10196089276E+01  0.10193188170E+01 0.  0.
     999903    2    3    3    0    0  0.99043339986E-01 -0.38669009092E-01 -0.75131390800E-01  0.13169251335E+00  0.19832214432E-01 0.  0.
         14    1    1    2    0    0 -0.23385838551E-01 -0.45475282404E-02 -0.48925560660E-02  0.24321072400E-01  0.00000000000E+00 0. -1.
     999901    1    3    3    0    0 -0.75657501435E-01  0.43216537332E-01  0.80023946866E-01  0.88791641425E+00  0.88000000000E+00 0. -1.
        -11    1    4    4    0    0  0.21376591754E-01 -0.74498614615E-02 -0.68182631397E-02  0.23647599118E-01  0.51100000000E-03 0. -1.
         11    1    4    4    0    0  0.77666748232E-01 -0.31219147630E-01 -0.68313127660E-01  0.10804491423E+00  0.51100000000E-03 0.  1.
</event>
<event>
 8    1  0.1128298E+005  0.1043930E+01  0.7957747E-01            NaN
         13   -1    0    0    0    0  0.00000000000E+00  0.00000000000E+00  0.74505805969E-08  0.10566000000E+00  0.10566000000E+00 0. -1.
     999900   -1    0    0    0    0 -0.00000000000E+00 -0.00000000000E+00 -0.74505805969E-08  0.93827000000E+00  0.93827000000E+00 0.  1.
     999902    2    1    2    0    0  0.82018997609E-02  0.19547220941E-01 -0.44176778635E-02  0.10222763425E+01  0.10220469850E+01 0.  0.
     999903    2    3    3    0    0  0.71187561803E-01  0.90275086112E-01  0.66252028824E-01  0.13437779424E+00  0.21232054358E-01 0.  0.
         14    1    1    2    0    0 -0.82018997609E-02 -0.19547220941E-01  0.44176778635E-02  0.21653657518E-01  0.00000000000E+00 0. -1.
     999901    1    3    3    0    0 -0.62985662042E-01 -0.70727865171E-01 -0.70669706688E-01  0.88789854825E+00  0.88000000000E+00 0.  1.
        -11    1    4    4    0    0  0.38603474888E-01  0.39340633450E-01  0.21557302855E-01  0.59185235836E-01  0.51100000000E-03 0. -1.
         11    1    4    4    0    0  0.32584086915E-01  0.50934452663E-01  0.44694725969E-01  0.75192558399E-01  0.51100000000E-03 0.  1.
</event>
<event>
 8    1  0.1128298E+005  0.1043930E+01  0.7957747E-01            NaN
         13   -1    0    0    0    0  0.00000000000E+00  0.00000000000E+00  0.74505805969E-08  0.10566000000E+00  0.10566000000E+00 0.  1.
     999900   -1    0    0    0    0 -0.00000000000E+00 -0.00000000000E+00 -0.74505805969E-08  0.93827000000E+00  0.93827000000E+00 0.  1.
     999902    2    1    2    0    0  0.14637695222E-01 -0.16813906488E-01  0.83360806893E-02  0.10201295837E+01  0.10198519048E+01 0.  0.
     999903    2    3    3    0    0 -0.10485612374E+00 -0.10587521941E-01  0.74850161867E-01  0.12954457173E+00  0.85057055116E-02 0.  0.
         14    1    1    2    0    0 -0.14637695222E-01  0.16813906488E-01 -0.83360806893E-02  0.23800416258E-01  0.00000000000E+00 0. -1.
     999901    1    3    3    0    0  0.11949381896E+00 -0.62263845471E-02 -0.66514081178E-01  0.89058501202E+00  0.88000000000E+00 0. -1.
        -11    1    4    4    0    0 -0.40570636360E-01 -0.30647044933E-02  0.33818221130E-01  0.52908431745E-01  0.51100000000E-03 0. -1.
         11    1    4    4    0    0 -0.64285487375E-01 -0.75228174475E-02  0.41031940737E-01  0.76636139980E-01  0.51100000000E-03 0.  1.
</event>
<event>
 8    1  0.1128298E+005  0.1043930E+01  0.7957747E-01            NaN
         13   -1    0    0    0    0  0.00000000000E+00  0.00000000000E+00  0.74505805969E-08  0.10566000000E+00  0.10566000000E+00 0.  1.
     999900   -1    0    0    0    0 -0.00000000000E+00 -0.00000000000E+00 -0.74505805969E-08  0.93827000000E+00  0.93827000000E+00 0. -1.
     999902    2    1    2    0    0  0.19793661632E-01  0.16943093680E-02 -0.13301143415E-01  0.10200222577E+01  0.10197420390E+01 0.  0.
     999903    2    3    3    0    0  0.11388121385E+00 -0.45893151690E-01 -0.48302225414E-01  0.13303741586E+00  0.17051005813E-01 0.  0.
         14    1    1    2    0    0 -0.19793661632E-01 -0.16943093680E-02  0.13301143415E-01  0.23907742285E-01  0.00000000000E+00 0.  1.
     999901    1    3    3    0    0 -0.94087552220E-01  0.47587461058E-01  0.35001081999E-01  0.88698484185E+00  0.88000000000E+00 0. -1.
        -11    1    4    4    0    0  0.70195928836E-01 -0.25744143174E-01 -0.20748455741E-01  0.77595031217E-01  0.51100000000E-03 0. -1.
         11    1    4    4    0    0  0.43685285016E-01 -0.20149008515E-01 -0.27553769673E-01  0.55442384646E-01  0.51100000000E-03 0.  1.
</event>
<event>
 8    1  0.1128298E+005  0.1043930E+01  0.7957747E-01            NaN
         13   -1    0    0    0    0  0.00000000000E+00  0.00000000000E+00  0.74505805969E-08  0.10566000000E+00  0.10566000000E+00 0.  1.
     999900   -1    0    0    0    0 -0.00000000000E+00 -0.00000000000E+00 -0.74505805969E-08  0.93827000000E+00  0.93827000000E+00 0.  1.
     999902    2    1    2    0    0 -0.21118839909E-02 -0.22247193189E-02 -0.25022912545E-01  0.10187197723E+01  0.10184077861E+01 0.  0.
     999903    2    3    3    0    0  0.83762483353E-01 -0.96407455594E-01 -0.58617642490E-02  0.12933124953E+00  0.19536138632E-01 0.  0.
         14    1    1    2    0    0  0.21118839909E-02  0.22247193189E-02  0.25022912545E-01  0.25210227731E-01  0.00000000000E+00 0.  1.
     999901    1    3    3    0    0 -0.85874367344E-01  0.94182736275E-01 -0.19161148296E-01  0.88938852274E+00  0.88000000000E+00 0. -1.
        -11    1    4    4    0    0  0.24247069081E-01 -0.24403434838E-01 -0.99775185781E-02  0.35822618398E-01  0.51100000000E-03 0. -1.
         11    1    4    4    0    0  0.59515414272E-01 -0.72004020756E-01  0.41157543291E-02  0.93508631130E-01  0.51100000000E-03 0.  1.
</event>
<event>
 8    1  0.1128298E+005  0.1043930E+01  0.7957747E-01            NaN
         13   -1    0    0    0    0  0.00000000000E+00  0.00000000000E+00  0.74505805969E-08  0.10566000000E+00  0.10566000000E+00 0.  1.
     999900   -1    0    0    0    0 -0.00000000000E+00 -0.00000000000E+00 -0.74505805969E-08  0.93827000000E+00  0.93827000000E+00 0.  1.
     999902    2    1    2    0    0 -0.23850170567E-01 -0.59760297243E-03 -0.15372263108E-02  0.10200228707E+01  0.10197426665E+01 0.  0.
     999903    2    3    3    0    0 -0.87896267854E-01  0.91527123017E-01  0.31660062309E-01  0.13227801566E+00  0.19802669826E-01 0.  0.
         14    1    1    2    0    0  0.23850170567E-01  0.59760297243E-03  0.15372263108E-02  0.23907129274E-01  0.00000000000E+00 0.  1.
     999901    1    3    3    0    0  0.64046097287E-01 -0.92124725989E-01 -0.33197288620E-01  0.88774485506E+00  0.88000000000E+00 0.  1.
        -11    1    4    4    0    0 -0.45208357511E-01  0.61016516888E-01  0.17601868135E-01  0.77954459813E-01  0.51100000000E-03 0.  1.
         11    1    4    4    0    0 -0.42687910344E-01  0.30510606129E-01  0.14058194174E-01  0.54323555851E-01  0.51100000000E-03 0. -1.
</event>
<event>
 8    1  0.1128298E+005  0.1043930E+01  0.7957747E-01            NaN
         13   -1    0    0    0    0  0.00000000000E+00  0.00000000000E+00  0.74505805969E-08  0.10566000000E+00  0.10566000000E+00 0. -1.
     999900   -1    0    0    0    0 -0.00000000000E+00 -0.00000000000E+00 -0.74505805969E-08  0.93827000000E+00  0.93827000000E+00 0.  1.
     999902    2    1    2    0    0 -0.89264812233E-02  0.20676360986E-01 -0.96778804237E-02  0.10194176492E+01  0.10191229014E+01 0.  0.
     999903    2    3    3    0    0 -0.10280805647E+00 -0.68600890992E-01  0.31216135417E-01  0.12899275154E+00  0.19725722316E-01 0.  0.
         14    1    1    2    0    0  0.89264812233E-02 -0.20676360986E-01  0.96778804237E-02  0.24512350767E-01  0.00000000000E+00 0. -1.
     999901    1    3    3    0    0  0.93881575245E-01  0.89277251978E-01 -0.40894015841E-01  0.89042489769E+00  0.88000000000E+00 0.  1.
        -11    1    4    4    0    0 -0.43998413450E-02 -0.79034324389E-02  0.53165457104E-02  0.10504743094E-01  0.51100000000E-03 0. -1.
         11    1    4    4    0    0 -0.98408215124E-01 -0.60697458554E-01  0.25899589706E-01  0.11848800845E+00  0.51100000000E-03 0.  1.
</event>
<event>
 8    1  0.1128298E+005  0.1043930E+01  0.7957747E-01            NaN
         13   -1    0    0    0    0  0.00000000000E+00  0.00000000000E+00  0.74505805969E-08  0.10566000000E+00  0.10566000000E+00 0.  1.
     999900   -1    0    0    0    0 -0.00000000000E+00 -0.00000000000E+00 -0.74505805969E-08  0.93827000000E+00  0.93827000000E+00 0.  1.
     999902    2    1    2    0    0  0.21134913098E-01  0.45669379515E-03  0.13338147744E-01  0.10189340142E+01  0.10186273735E+01 0.  0.
     999903    2    3    3    0    0 -0.83251488766E-01  0.43528528777E-02 -0.92973866902E-01  0.12640169243E+00  0.19582906115E-01 0.  0.
         14    1    1    2    0    0 -0.21134913098E-01 -0.45669379515E-03 -0.13338147744E-01  0.24995985800E-01  0.00000000000E+00 0. -1.
     999901    1    3    3    0    0  0.10438640186E+00 -0.38961590826E-02  0.10631201465E+00  0.89253232177E+00  0.88000000000E+00 0. -1.
        -11    1    4    4    0    0 -0.20421569931E-01 -0.80095188324E-03 -0.36143554055E-01  0.41524687393E-01  0.51100000000E-03 0.  1.
         11    1    4    4    0    0 -0.62829918835E-01  0.51538047610E-02 -0.56830312847E-01  0.84877005035E-01  0.51100000000E-03 0. -1.
</event>
<event>
 8    1  0.1128298E+005  0.1043930E+01  0.7957747E-01            NaN
         13   -1    0    0    0    0  0.00000000000E+00  0.00000000000E+00  0.74505805969E-08  0.10566000000E+00  0.10566000000E+00 0. -1.
     999900   -1    0    0    0    0 -0.00000000000E+00 -0.00000000000E+00 -0.74505805969E-08  0.93827000000E+00  0.93827000000E+00 0.  1.
     999902    2    1    2    0    0 -0.15713053885E-01 -0.17716101702E-01 -0.74551345956E-02  0.10191038172E+01  0.10188013795E+01 0.  0.
     999903    2    3    3    0    0 -0.24370702618E-02 -0.88817949566E-01 -0.95045625806E-01  0.13180239226E+00  0.21062576835E-01 0.  0.
         14    1    1    2    0    0  0.15713053885E-01  0.17716101702E-01  0.74551345956E-02  0.24826182827E-01  0.00000000000E+00 0. -1.
     999901    1    3    3    0    0 -0.13275983624E-01  0.71101847864E-01  0.87590491210E-01  0.88730142492E+00  0.88000000000E+00 0. -1.
        -11    1    4    4    0    0 -0.20873301584E-02 -0.54731737403E-01 -0.43234740867E-01  0.69781257979E-01  0.51100000000E-03 0. -1.
         11    1    4    4    0    0 -0.34974010341E-03 -0.34086212163E-01 -0.51810884939E-01  0.62021134276E-01  0.51100000000E-03 0.  1.
</event>
<event>
 8    1  0.1128298E+005  0.1043930E+01  0.7957747E-01            NaN
         13   -1    0    0    0    0  0.00000000000E+00  0.00000000000E+00  0.74505805969E-08  0.10566000000E+00  0.10566000000E+00 0. -1.
     999900   -1    0    0    0    0 -0.00000000000E+00 -0.00000000000E+00 -0.74505805969E-08  0.93827000000E+00  0.93827000000E+00 0.  1.
     999902    2    1    2    0    0  0.93960872535E-02  0.21691391043E-01 -0.28799756666E-02  0.10201161981E+01  0.10198382031E+01 0.  0.
     999903    2    3    3    0    0  0.12914569236E+00  0.27771196036E-02  0.15691564478E-01  0.13161036262E+00  0.19716493207E-01 0.  0.
         14    1    1    2    0    0 -0.93960872535E-02 -0.21691391043E-01  0.28799756666E-02  0.23813801899E-01  0.00000000000E+00 0. -1.
     999901    1    3    3    0    0 -0.11974960510E+00  0.18914271439E-01 -0.18571540145E-01  0.88850583548E+00  0.88000000000E+00 0.  1.
        -11    1    4    4    0    0  0.36965664989E-01  0.97277001988E-02  0.48085380926E-02  0.38528842427E-01  0.51100000000E-03 0.  1.
         11    1    4    4    0    0  0.92180027369E-01 -0.69505805952E-02  0.10883026386E-01  0.93081520189E-01  0.51100000000E-03 0. -1.
</event>
<event>
 8    1  0.1128298E+005  0.1043930E+01  0.7957747E-01            NaN
         13   -1    0    0    0    0  0.00000000000E+00  0.00000000000E+00  0.74505805969E-08  0.10566000000E+00  0.10566000000E+00 0. -1.
     999900   -1    0    0    0    0 -0.00000000000E+00 -0.00000000000E+00 -0.74505805969E-08  0.93827000000E+00  0.93827000000E+00 0.  1.
     999902    2    1    2    0    0  0.18359725454E-01 -0.98602762423E-02  0.10636595163E-01  0.10205325274E+01  0.10202642784E+01 0.  0.
     999903    2    3    3    0    0 -0.52266613865E-01 -0.88309627845E-01  0.79653397396E-01  0.13154113289E+00  0.20688562757E-01 0.  0.
         14    1    1    2    0    0 -0.18359725454E-01  0.98602762423E-02 -0.10636595163E-01  0.23397472576E-01  0.00000000000E+00 0.  1.
     999901    1    3    3    0    0  0.70626339319E-01  0.78449351603E-01 -0.69016802233E-01  0.88899139454E+00  0.88000000000E+00 0.  1.
        -11    1    4    4    0    0 -0.21787554833E-01 -0.22192117077E-01  0.16763796006E-01  0.35333745676E-01  0.51100000000E-03 0. -1.
         11    1    4    4    0    0 -0.30479059032E-01 -0.66117510769E-01  0.62889601390E-01  0.96207387210E-01  0.51100000000E-03 0.  1.
</event>
<event>
 8    1  0.1128298E+005  0.1043930E+01  0.7957747E-01            NaN
         13   -1    0    0    0    0  0.00000000000E+00  0.00000000000E+00  0.74505805969E-08  0.10566000000E+00  0.10566000000E+00 0.  1.
     999900   -1    0    0    0    0 -0.00000000000E+00 -0.00000000000E+00 -0.74505805969E-08  0.93827000000E+00  0.93827000000E+00 0. -1.
     999902    2    1    2    0    0  0.36830980249E-02 -0.86067186406E-02 -0.14462242388E-01  0.10267021948E+01  0.10265576455E+01 0.  0.
     999903    2    3    3    0    0  0.62360636373E-01 -0.76558466574E-01  0.90235272730E-01  0.13595977232E+00  0.24343530368E-01 0.  0.
         14    1    1    2    0    0 -0.36830980249E-02  0.86067186406E-02  0.14462242388E-01  0.17227805191E-01  0.00000000000E+00 0.  1.
     999901    1    3    3    0    0 -0.58677538348E-01  0.67951747934E-01 -0.10469751512E+00  0.89074242249E+00  0.88000000000E+00 0. -1.
        -11    1    4    4    0    0  0.30465250422E-01 -0.50615621252E-01  0.41508274507E-01  0.72202981736E-01  0.51100000000E-03 0. -1.
         11    1    4    4    0    0  0.31895385952E-01 -0.25942845322E-01  0.48726998223E-01  0.63756790582E-01  0.51100000000E-03 0.  1.
</event>
<event>
 8    1  0.1128298E+005  0.1043930E+01  0.7957747E-01            NaN
         13   -1    0    0    0    0  0.00000000000E+00  0.00000000000E+00  0.74505805969E-08  0.10566000000E+00  0.10566000000E+00 0. -1.
     999900   -1    0    0    0    0 -0.00000000000E+00 -0.00000000000E+00 -0.74505805969E-08  0.93827000000E+00  0.93827000000E+00 0. -1.
     999902    2    1    2    0    0  0.70882549969E-02  0.12810205133E-01  0.19517450910E-01  0.10195317295E+01  0.10192397519E+01 0.  0.
     999903    2    3    3    0    0  0.49723961345E-01 -0.11594391083E+00  0.18884761829E-01  0.12914090173E+00  0.20131454998E-01 0.  0.
         14    1    1    2    0    0 -0.70882549969E-02 -0.12810205133E-01 -0.19517450910E-01  0.24398270522E-01  0.00000000000E+00 0.  1.
     999901    1    3    3    0    0 -0.42635706348E-01  0.12875411597E+00  0.63268908093E-03  0.89039082774E+00  0.88000000000E+00 0. -1.
        -11    1    4    4    0    0  0.27361113782E-01 -0.79734591862E-01  0.53099752987E-02  0.84467109845E-01  0.51100000000E-03 0.  1.
         11    1    4    4    0    0  0.22362847563E-01 -0.36209318971E-01  0.13574786531E-01  0.44673791890E-01  0.51100000000E-03 0. -1.
</event>
<event>
 8    1  0.1128298E+005  0.1043930E+01  0.7957747E-01            NaN
         13   -1    0    0    0    0  0.00000000000E+00  0.00000000000E+00  0.74505805969E-08  0.10566000000E+00  0.10566000000E+00 0.  1.
     999900   -1    0    0    0    0 -0.00000000000E+00 -0.00000000000E+00 -0.74505805969E-08  0.93827000000E+00  0.93827000000E+00 0. -1.
     999902    2    1    2    0    0 -0.16910393052E-02 -0.25739343757E-02  0.21307815253E-01  0.10224007700E+01  0.10221740687E+01 0.  0.
     999903    2    3    3    0    0 -0.79346367424E-02 -0.58009361783E-01  0.12016379857E+00  0.13511018936E+00  0.19681978208E-01 0.  0.
         14    1    1    2    0    0  0.16910393052E-02  0.25739343757E-02 -0.21307815253E-01  0.21529229967E-01  0.00000000000E+00 0. -1.
     999901    1    3    3    0    0  0.62435974372E-02  0.55435427408E-01 -0.98855983317E-01  0.88729058068E+00  0.88000000000E+00 0. -1.
        -11    1    4    4    0    0 -0.13633755657E-01 -0.49319866954E-01  0.95606600814E-01  0.10843989953E+00  0.51100000000E-03 0. -1.
         11    1    4    4    0    0  0.56991189147E-02 -0.86894948291E-02  0.24557197756E-01  0.26670289827E-01  0.51100000000E-03 0.  1.
</event>
<event>
 8    1  0.1128298E+005  0.1043930E+01  0.7957747E-01            NaN
         13   -1    0    0    0    0  0.00000000000E+00  0.00000000000E+00  0.74505805969E-08  0.10566000000E+00  0.10566000000E+00 0.  1.
     999900   -1    0    0    0    0 -0.00000000000E+00 -0.00000000000E+00 -0.74505805969E-08  0.93827000000E+00  0.93827000000E+00 0. -1.
     999902    2    1    2    0    0 -0.40051702312E-02 -0.17215811529E-01  0.22569057565E-01  0.10152631565E+01  0.10148583591E+01 0.  0.
     999903    2    3    3    0    0  0.73116715928E-01  0.97258205527E-01 -0.11142838816E-01  0.12386617546E+00  0.20333565237E-01 0.  0.
         14    1    1    2    0    0  0.40051702312E-02  0.17215811529E-01 -0.22569057565E-01  0.28666843470E-01  0.00000000000E+00 0. -1.
     999901    1    3    3    0    0 -0.77121886160E-01 -0.11447401706E+00  0.33711896381E-01  0.89139698107E+00  0.88000000000E+00 0. -1.
        -11    1    4    4    0    0  0.50547330287E-01  0.59581883495E-01  0.15336751474E-02  0.78151434539E-01  0.51100000000E-03 0.  1.
         11    1    4    4    0    0  0.22569385641E-01  0.37676322032E-01 -0.12676513963E-01  0.45714740920E-01  0.51100000000E-03 0. -1.
</event>
<event>
 8    1  0.1128298E+005  0.1043930E+01  0.7957747E-01            NaN
         13   -1    0    0    0    0  0.00000000000E+00  0.00000000000E+00  0.74505805969E-08  0.10566000000E+00  0.10566000000E+00 0.  1.
     999900   -1    0    0    0    0 -0.00000000000E+00 -0.00000000000E+00 -0.74505805969E-08  0.93827000000E+00  0.93827000000E+00 0. -1.
     999902    2    1    2    0    0 -0.22839028188E-01  0.89940792171E-03  0.62379228920E-02  0.10202373466E+01  0.10199622060E+01 0.  0.
     999903    2    3    3    0    0  0.82284204569E-01 -0.90472810573E-01  0.37074202484E-01  0.12874945968E+00  0.15681425459E-01 0.  0.
         14    1    1    2    0    0  0.22839028188E-01 -0.89940792171E-03 -0.62379228920E-02  0.23692653401E-01  0.00000000000E+00 0.  1.
     999901    1    3    3    0    0 -0.10512323276E+00  0.91372218494E-01 -0.30836279591E-01  0.89148788692E+00  0.88000000000E+00 0.  1.
        -11    1    4    4    0    0  0.51076773314E-01 -0.60087729263E-01  0.16484594947E-01  0.80569069572E-01  0.51100000000E-03 0.  1.
         11    1    4    4    0    0  0.31207431255E-01 -0.30385081310E-01  0.20589607537E-01  0.48180390111E-01  0.51100000000E-03 0. -1.
</event>
<event>
 8    1  0.1128298E+005  0.1043930E+01  0.7957747E-01            NaN
         13   -1    0    0    0    0  0.00000000000E+00  0.00000000000E+00  0.74505805969E-08  0.10566000000E+00  0.10566000000E+00 0.  1.
     999900   -1    0    0    0    0 -0.00000000000E+00 -0.00000000000E+00 -0.74505805969E-08  0.93827000000E+00  0.93827000000E+00 0. -1.
     999902    2    1    2    0    0 -0.15750698797E-01 -0.16423158835E-01 -0.68760662364E-02  0.10201584846E+01  0.10198814876E+01 0.  0.
     999903    2    3    3    0    0 -0.62145924554E-01 -0.55320567996E-01 -0.10177796960E+00  0.13298775880E+00  0.20112377086E-01 0.  0.
         14    1    1    2    0    0  0.15750698797E-01  0.16423158835E-01  0.68760662364E-02  0.23771515425E-01  0.00000000000E+00 0. -1.
     999901    1    3    3    0    0  0.46395225757E-01  0.38897409162E-01  0.94901903365E-01  0.88717072578E+00  0.88000000000E+00 0.  1.
        -11    1    4    4    0    0 -0.44946642084E-01 -0.50559682493E-01 -0.82980802221E-01  0.10706333073E+00  0.51100000000E-03 0. -1.
         11    1    4    4    0    0 -0.17199282470E-01 -0.47608855037E-02 -0.18797167380E-01  0.25924428071E-01  0.51100000000E-03 0.  1.
</event>
<event>
 8    1  0.1128298E+005  0.1043930E+01  0.7957747E-01            NaN
         13   -1    0    0    0    0  0.00000000000E+00  0.00000000000E+00  0.74505805969E-08  0.10566000000E+00  0.10566000000E+00 0.  1.
     999900   -1    0    0    0    0 -0.00000000000E+00 -0.00000000000E+00 -0.74505805969E-08  0.93827000000E+00  0.93827000000E+00 0. -1.
     999902    2    1    2    0    0  0.84436056587E-02 -0.71933487791E-02  0.16609164023E-01  0.10239574420E+01  0.10237626385E+01 0.  0.
     999903    2    3    3    0    0  0.45986524269E-01 -0.10330293770E+00 -0.68719383884E-01  0.13382965067E+00  0.20044059602E-01 0.  0.
         14    1    1    2    0    0 -0.84436056587E-02  0.71933487791E-02 -0.16609164023E-01  0.19972557992E-01  0.00000000000E+00 0. -1.
     999901    1    3    3    0    0 -0.37542918610E-01  0.96109588924E-01  0.85328547907E-01  0.89012779134E+00  0.88000000000E+00 0. -1.
        -11    1    4    4    0    0  0.17712534792E-01 -0.58293640962E-01 -0.29020995249E-01  0.67486011525E-01  0.51100000000E-03 0.  1.
         11    1    4    4    0    0  0.28273989477E-01 -0.45009296741E-01 -0.39698388635E-01  0.66343639147E-01  0.51100000000E-03 0. -1.
</event>
<event>
 8    1  0.1128298E+005  0.1043930E+01  0.7957747E-01            NaN
         13   -1    0    0    0    0  0.00000000000E+00  0.00000000000E+00  0.74505805969E-08  0.10566000000E+00  0.10566000000E+00 0.  1.
     999900   -1    0    0    0    0 -0.00000000000E+00 -0.00000000000E+00 -0.74505805969E-08  0.93827000000E+00  0.93827000000E+00 0.  1.
     999902    2    1    2    0    0  0.36494442646E-02  0.14074446898E-01 -0.19123322523E-01  0.10199068869E+01  0.10196239248E+01 0.  0.
     999903    2    3    3    0    0  0.12165965747E+00  0.27636009135E-01  0.31616804254E-01  0.13047735801E+00  0.21445218198E-01 0.  0.
         14    1    1    2    0    0 -0.36494442646E-02 -0.14074446898E-01  0.19123322523E-01  0.24023113105E-01  0.00000000000E+00 0.  1.
     999901    1    3    3    0    0 -0.11801021321E+00 -0.13561562237E-01 -0.50740126777E-01  0.88942952889E+00  0.88000000000E+00 0.  1.
        -11    1    4    4    0    0  0.84197347966E-01  0.16037358895E-01  0.11755352071E-01  0.86514968116E-01  0.51100000000E-03 0.  1.
         11    1    4    4    0    0  0.37462309509E-01  0.11598650240E-01  0.19861452183E-01  0.43962389891E-01  0.51100000000E-03 0. -1.
</event>
<event>
 8    1  0.1128298E+005  0.1043930E+01  0.7957747E-01            NaN
         13   -1    0    0    0    0  0.00000000000E+00  0.00000000000E+00  0.74505805969E-08  0.10566000000E+00  0.10566000000E+00 0.  1.
     999900   -1    0    0    0    0 -0.00000000000E+00 -0.00000000000E+00 -0.74505805969E-08  0.93827000000E+00  0.93827000000E+00 0. -1.
     999902    2    1    2    0    0 -0.10906326829E-01  0.73072382341E-03 -0.21945990486E-01  0.10194124875E+01  0.10191176140E+01 0.  0.
     999903    2    3    3    0    0 -0.11384684045E+00 -0.53578575531E-01  0.27477431171E-01  0.13037428585E+00  0.20265200456E-01 0.  0.
         14    1    1    2    0    0  0.10906326829E-01 -0.73072382341E-03  0.21945990486E-01  0.24517512529E-01  0.00000000000E+00 0.  1.
     999901    1    3    3    0    0  0.10294051362E+00  0.54309299354E-01 -0.49423421657E-01  0.88903820163E+00  0.88000000000E+00 0. -1.
        -11    1    4    4    0    0 -0.70196528354E-01 -0.40625935116E-01  0.10525384238E-01  0.81786698377E-01  0.51100000000E-03 0.  1.
         11    1    4    4    0    0 -0.43650312096E-01 -0.12952640415E-01  0.16952046933E-01  0.48587587469E-01  0.51100000000E-03 0. -1.
</event>
<event>
 8    1  0.1128298E+005  0.1043930E+01  0.7957747E-01            NaN
         13   -1    0    0    0    0  0.00000000000E+00  0.00000000000E+00  0.74505805969E-08  0.10566000000E+00  0.10566000000E+00 0.  1.
     999900   -1    0    0    0    0 -0.00000000000E+00 -0.00000000000E+00 -0.74505805969E-08  0.93827000000E+00  0.93827000000E+00 0.  1.
     999902    2    1    2    0    0  0.14049450126E-01 -0.81832656725E-03  0.10988606909E-01  0.10260748554E+01  0.10259194913E+01 0.  0.
     999903    2    3    3    0    0 -0.45309425537E-01  0.74504896460E-01  0.10210201810E+00  0.13618794249E+00  0.22768617480E-01 0.  0.
         14    1    1    2    0    0 -0.14049450126E-01  0.81832656725E-03 -0.10988606909E-01  0.17855144610E-01  0.00000000000E+00 0. -1.
     999901    1    3    3    0    0  0.59358875664E-01 -0.75323223027E-01 -0.91113411188E-01  0.88988691290E+00  0.88000000000E+00 0.  1.
        -11    1    4    4    0    0 -0.23120987587E-01  0.49494291047E-01  0.48729264245E-01  0.73205650247E-01  0.51100000000E-03 0.  1.
         11    1    4    4    0    0 -0.22188437950E-01  0.25010605413E-01  0.53372753852E-01  0.62982292246E-01  0.51100000000E-03 0. -1.
</event>
<event>
 8    1  0.1128298E+005  0.1043930E+01  0.7957747E-01            NaN
         13   -1    0    0    0    0  0.00000000000E+00  0.00000000000E+00  0.74505805969E-08  0.10566000000E+00  0.10566000000E+00 0. -1.
     999900   -1    0    0    0    0 -0.00000000000E+00 -0.00000000000E+00 -0.74505805969E-08  0.93827000000E+00  0.93827000000E+00 0.  1.
     999902    2    1    2    0    0  0.60780289033E-02 -0.26498449733E-02  0.23842345804E-01  0.10191828473E+01  0.10188823556E+01 0.  0.
     999903    2    3    3    0    0 -0.69869658793E-01  0.10318276122E+00 -0.23305213368E-01  0.12834532892E+00  0.20023462534E-01 0.  0.
         14    1    1    2    0    0 -0.60780289033E-02  0.26498449733E-02 -0.23842345804E-01  0.24747152709E-01  0.00000000000E+00 0.  1.
     999901    1    3    3    0    0  0.75947687696E-01 -0.10583260620E+00  0.47147559172E-01  0.89083751837E+00  0.88000000000E+00 0.  1.
        -11    1    4    4    0    0 -0.39757762224E-01  0.72902059406E-01 -0.10151120643E-01  0.83658211157E-01  0.51100000000E-03 0.  1.
         11    1    4    4    0    0 -0.30111896569E-01  0.30280701819E-01 -0.13154092725E-01  0.44687117764E-01  0.51100000000E-03 0. -1.
</event>
<event>
 8    1  0.1128298E+005  0.1043930E+01  0.7957747E-01            NaN
         13   -1    0    0    0    0  0.00000000000E+00  0.00000000000E+00  0.74505805969E-08  0.10566000000E+00  0.10566000000E+00 0. -1.
     999900   -1    0    0    0    0 -0.00000000000E+00 -0.00000000000E+00 -0.74505805969E-08  0.93827000000E+00  0.93827000000E+00 0. -1.
     999902    2    1    2    0    0 -0.24702602939E-03 -0.17390631712E-02  0.22626001312E-01  0.10212359193E+01  0.10209837323E+01 0.  0.
     999903    2    3    3    0    0  0.20371591714E-01  0.10544432243E+00 -0.71168324598E-01  0.12954607351E+00  0.13555362537E-01 0.  0.
         14    1    1    2    0    0  0.24702602939E-03  0.17390631712E-02 -0.22626001312E-01  0.22694080681E-01  0.00000000000E+00 0.  1.
     999901    1    3    3    0    0 -0.20618617743E-01 -0.10718338560E+00  0.93794325910E-01  0.89168984581E+00  0.88000000000E+00 0.  1.
        -11    1    4    4    0    0  0.20699153106E-01  0.78638058014E-01 -0.56060257890E-01  0.98769492979E-01  0.51100000000E-03 0.  1.
         11    1    4    4    0    0 -0.32756139295E-03  0.26806264418E-01 -0.15108066707E-01  0.30776580531E-01  0.51100000000E-03 0. -1.
</event>
<event>
 8    1  0.1128298E+005  0.1043930E+01  0.7957747E-01            NaN
         13   -1    0    0    0    0  0.00000000000E+00  0.00000000000E+00  0.74505805969E-08  0.10566000000E+00  0.10566000000E+00 0. -1.
     999900   -1    0    0    0    0 -0.00000000000E+00 -0.00000000000E+00 -0.74505805969E-08  0.93827000000E+00  0.93827000000E+00 0.  1.
     999902    2    1    2    0    0  0.82412056121E-02 -0.16657900659E-01 -0.14875101089E-01  0.10201251317E+01  0.10198473476E+01 0.  0.
     999903    2    3    3    0    0  0.77861642737E-01  0.84355374678E-01 -0.58884909399E-01  0.13052547435E+00  0.19778833438E-01 0.  0.
         14    1    1    2    0    0 -0.82412056121E-02  0.16657900659E-01  0.14875101089E-01  0.23804868341E-01  0.00000000000E+00 0. -1.
     999901    1    3    3    0    0 -0.69620437125E-01 -0.10101327534E+00  0.44009808309E-01  0.88959965731E+00  0.88000000000E+00 0. -1.
        -11    1    4    4    0    0  0.37882862072E-01  0.42129495865E-01 -0.40105266858E-01  0.69416851062E-01  0.51100000000E-03 0.  1.
         11    1    4    4    0    0  0.39978780665E-01  0.42225878813E-01 -0.18779642541E-01  0.61108623286E-01  0.51100000000E-03 0. -1.
</event>
<event>
 8    1  0.1128298E+005  0.1043930E+01  0.7957747E-01            NaN
         13   -1    0    0    0    0  0.00000000000E+00  0.00000000000E+00  0.74505805969E-08  0.10566000000E+00  0.10566000000E+00 0.  1.
     999900   -1    0    0    0    0 -0.00000000000E+00 -0.00000000000E+00 -0.74505805969E-08  0.93827000000E+00  0.93827000000E+00 0. -1.
     999902    2    1    2    0    0 -0.36746345968E-02 -0.77746573813E-02 -0.20975229369E-01  0.10212604503E+01  0.10210088143E+01 0.  0.
     999903    2    3    3    0    0 -0.12699206182E+00 -0.28264193743E-01 -0.15861932398E-01  0.13241110717E+00  0.18848129641E-01 0.  0.
         14    1    1    2    0    0  0.36746345968E-02  0.77746573813E-02  0.20975229369E-01  0.22669549707E-01  0.00000000000E+00 0.  1.
     999901    1    3    3    0    0  0.12331742722E+00  0.20489536362E-01 -0.51132969716E-02  0.88884934312E+00  0.88000000000E+00 0.  1.
        -11    1    4    4    0    0 -0.75760866540E-01 -0.22319755450E-01 -0.17129556830E-01  0.80818087211E-01  0.51100000000E-03 0.  1.
         11    1    4    4    0    0 -0.51231195278E-01 -0.59444382937E-02  0.12676244326E-02  0.51593019964E-01  0.51100000000E-03 0. -1.
</event>
<event>
 8    1  0.1128298E+005  0.1043930E+01  0.7957747E-01            NaN
         13   -1    0    0    0    0  0.00000000000E+00  0.00000000000E+00  0.74505805969E-08  0.10566000000E+00  0.10566000000E+00 0.  1.
     999900   -1    0    0    0    0 -0.00000000000E+00 -0.00000000000E+00 -0.74505805969E-08  0.93827000000E+00  0.93827000000E+00 0. -1.
     999902    2    1    2    0    0  0.15415060755E-01 -0.37551766037E-02  0.16900317092E-01  0.10207492716E+01  0.10204860261E+01 0.  0.
     999903    2    3    3    0    0 -0.10956005116E-01 -0.49977996754E-01  0.12117159669E+00  0.13299678251E+00  0.19691472913E-01 0.  0.
         14    1    1    2    0    0 -0.15415060755E-01  0.37551766037E-02 -0.16900317092E-01  0.23180728358E-01  0.00000000000E+00 0. -1.
     999901    1    3    3    0    0  0.26371065871E-01  0.46222820151E-01 -0.10427127960E+00  0.88775248914E+00  0.88000000000E+00 0. -1.
        -11    1    4    4    0    0 -0.11870498674E-01 -0.16721453827E-01  0.34229862912E-01  0.39905643622E-01  0.51100000000E-03 0.  1.
         11    1    4    4    0    0  0.91449355816E-03 -0.33256542927E-01  0.86941733775E-01  0.93091138884E-01  0.51100000000E-03 0. -1.
</event>
<event>
 8    1  0.1128298E+005  0.1043930E+01  0.7957747E-01            NaN
         13   -1    0    0    0    0  0.00000000000E+00  0.00000000000E+00  0.74505805969E-08  0.10566000000E+00  0.10566000000E+00 0.  1.
     999900   -1    0    0    0    0 -0.00000000000E+00 -0.00000000000E+00 -0.74505805969E-08  0.93827000000E+00  0.93827000000E+00 0.  1.
     999902    2    1    2    0    0 -0.14196422524E-01 -0.15099366214E-01  0.10535406937E-01  0.10206808264E+01  0.10204160060E+01 0.  0.
     999903    2    3    3    0    0 -0.71186587195E-01 -0.20619060574E-01 -0.10676563281E+00  0.13105288182E+00  0.16830972344E-01 0.  0.
         14    1    1    2    0    0  0.14196422524E-01  0.15099366214E-01 -0.10535406937E-01  0.23249173574E-01  0.00000000000E+00 0. -1.
     999901    1    3    3    0    0  0.56990164671E-01  0.55196943598E-02  0.11730103974E+00  0.88962794460E+00  0.88000000000E+00 0. -1.
        -11    1    4    4    0    0 -0.54886899785E-01 -0.89105962948E-02 -0.72957952235E-01  0.91733823695E-01  0.51100000000E-03 0. -1.
         11    1    4    4    0    0 -0.16299687410E-01 -0.11708464279E-01 -0.33807680571E-01  0.39319058127E-01  0.51100000000E-03 0.  1.
</event>
<event>
 8    1  0.1128298E+005  0.1043930E+01  0.7957747E-01            NaN
         13   -1    0    0    0    0  0.00000000000E+00  0.00000000000E+00  0.74505805969E-08  0.10566000000E+00  0.10566000000E+00 0. -1.
     999900   -1    0    0    0    0 -0.00000000000E+00 -0.00000000000E+00 -0.74505805969E-08  0.93827000000E+00  0.93827000000E+00 0. -1.
     999902    2    1    2    0    0  0.89282861862E-02 -0.27622358040E-02 -0.21664267284E-01  0.10203358330E+01  0.10200630016E+01 0.  0.
     999903    2    3    3    0    0 -0.31906279972E-01 -0.86031056341E-01  0.88090806972E-01  0.12868156444E+00  0.19483362042E-01 0.  0.
         14    1    1    2    0    0 -0.89282861862E-02  0.27622358040E-02  0.21664267284E-01  0.23594167029E-01  0.00000000000E+00 0. -1.
     999901    1    3    3    0    0  0.40834566158E-01  0.83268820537E-01 -0.10975507426E+00  0.89165426853E+00  0.88000000000E+00 0. -1.
        -11    1    4    4    0    0 -0.20336576081E-01 -0.28895888154E-01  0.29561412159E-01  0.46072626241E-01  0.51100000000E-03 0. -1.
         11    1    4    4    0    0 -0.11569703891E-01 -0.57135168187E-01  0.58529394814E-01  0.82608938198E-01  0.51100000000E-03 0.  1.
</event>
<event>
 8    1  0.1128298E+005  0.1043930E+01  0.7957747E-01            NaN
         13   -1    0    0    0    0  0.00000000000E+00  0.00000000000E+00  0.74505805969E-08  0.10566000000E+00  0.10566000000E+00 0. -1.
     999900   -1    0    0    0    0 -0.00000000000E+00 -0.00000000000E+00 -0.74505805969E-08  0.93827000000E+00  0.93827000000E+00 0.  1.
     999902    2    1    2    0    0 -0.14722030165E-02 -0.12218336968E-02 -0.23718394362E-01  0.10201345700E+01  0.10198570088E+01 0.  0.
     999903    2    3    3    0    0 -0.27404619454E-01 -0.23721777547E-01 -0.12644508205E+00  0.13349399450E+00  0.22771734564E-01 0.  0.
         14    1    1    2    0    0  0.14722030165E-02  0.12218336968E-02  0.23718394362E-01  0.23795430033E-01  0.00000000000E+00 0. -1.
     999901    1    3    3    0    0  0.25932416438E-01  0.22499943850E-01  0.10272668769E+00  0.88664057546E+00  0.88000000000E+00 0. -1.
        -11    1    4    4    0    0 -0.29784343032E-01 -0.25948558088E-01 -0.11649696667E+00  0.12301316646E+00  0.51100000000E-03 0. -1.
         11    1    4    4    0    0  0.23797235773E-02  0.22267805415E-02 -0.99481153824E-02  0.10480828047E-01  0.51100000000E-03 0.  1.
</event>
<event>
 8    1  0.1128298E+005  0.1043930E+01  0.7957747E-01            NaN
         13   -1    0    0    0    0  0.00000000000E+00  0.00000000000E+00  0.74505805969E-08  0.10566000000E+00  0.10566000000E+00 0.  1.
     999900   -1    0    0    0    0 -0.00000000000E+00 -0.00000000000E+00 -0.74505805969E-08  0.93827000000E+00  0.93827000000E+00 0.  1.
     999902    2    1    2    0    0 -0.10861778536E-01  0.10254612938E-01  0.16541476063E-01  0.10216419819E+01  0.10213988366E+01 0.  0.
     999903    2    3    3    0    0 -0.43620827138E-01 -0.12049001764E+00  0.20891812958E-01  0.13136885579E+00  0.20017180370E-01 0.  0.
         14    1    1    2    0    0  0.10861778536E-01 -0.10254612938E-01 -0.16541476063E-01  0.22288018077E-01  0.00000000000E+00 0.  1.
     999901    1    3    3    0    0  0.32759048603E-01  0.13074463058E+00 -0.43503368952E-02  0.89027312614E+00  0.88000000000E+00 0.  1.
        -11    1    4    4    0    0 -0.10116083357E-01 -0.29466306989E-01 -0.34964908040E-02  0.31354185669E-01  0.51100000000E-03 0.  1.
         11    1    4    4    0    0 -0.33504743781E-01 -0.91023710654E-01  0.24388303762E-01  0.10001467012E+00  0.51100000000E-03 0. -1.
</event>
<event>
 8    1  0.1128298E+005  0.1043930E+01  0.7957747E-01            NaN
         13   -1    0    0    0    0  0.00000000000E+00  0.00000000000E+00  0.74505805969E-08  0.10566000000E+00  0.10566000000E+00 0. -1.
     999900   -1    0    0    0    0 -0.00000000000E+00 -0.00000000000E+00 -0.74505805969E-08  0.93827000000E+00  0.93827000000E+00 0. -1.
     999902    2    1    2    0    0 -0.12822463011E-01 -0.69342663287E-02 -0.17265334841E-01  0.10213337305E+01  0.10210837369E+01 0.  0.
     999903    2    3    3    0    0 -0.44012804284E-01  0.11113696245E+00 -0.53127830044E-01  0.13217695525E+00  0.18963908076E-01 0.  0.
         14    1    1    2    0    0  0.12822463011E-01  0.69342663287E-02  0.17265334841E-01  0.22596269479E-01  0.00000000000E+00 0. -1.
     999901    1    3    3    0    0  0.31190341273E-01 -0.11807122878E+00  0.35862495203E-01  0.88915677527E+00  0.88000000000E+00 0. -1.
        -11    1    4    4    0    0 -0.25318706918E-01  0.42095762018E-01 -0.16555706002E-01  0.51840549978E-01  0.51100000000E-03 0. -1.
         11    1    4    4    0    0 -0.18694097366E-01  0.69041200432E-01 -0.36572124042E-01  0.80336405268E-01  0.51100000000E-03 0.  1.
</event>
<event>
 8    1  0.1128298E+005  0.1043930E+01  0.7957747E-01            NaN
         13   -1    0    0    0    0  0.00000000000E+00  0.00000000000E+00  0.74505805969E-08  0.10566000000E+00  0.10566000000E+00 0. -1.
     999900   -1    0    0    0    0 -0.00000000000E+00 -0.00000000000E+00 -0.74505805969E-08  0.93827000000E+00  0.93827000000E+00 0. -1.
     999902    2    1    2    0    0 -0.93017374694E-02 -0.65262579843E-02  0.20133254313E-01  0.10208115595E+01  0.10205497429E+01 0.  0.
     999903    2    3    3    0    0 -0.43661239534E-01  0.58693022148E-02 -0.11975597071E+00  0.12901381302E+00  0.19034675821E-01 0.  0.
         14    1    1    2    0    0  0.93017374694E-02  0.65262579843E-02 -0.20133254313E-01  0.23118440528E-01  0.00000000000E+00 0.  1.
     999901    1    3    3    0    0  0.34359502064E-01 -0.12395560199E-01  0.13988922502E+00  0.89179774645E+00  0.88000000000E+00 0.  1.
        -11    1    4    4    0    0 -0.41160749773E-01  0.90373137743E-02 -0.95037609286E-01  0.10396291965E+00  0.51100000000E-03 0.  1.
         11    1    4    4    0    0 -0.25004897606E-02 -0.31680115595E-02 -0.24718361425E-01  0.25050893373E-01  0.51100000000E-03 0. -1.
</event>
<event>
 8    1  0.1128298E+005  0.1043930E+01  0.7957747E-01            NaN
         13   -1    0    0    0    0  0.00000000000E+00  0.00000000000E+00  0.74505805969E-08  0.10566000000E+00  0.10566000000E+00 0.  1.
     999900   -1    0    0    0    0 -0.00000000000E+00 -0.00000000000E+00 -0.74505805969E-08  0.93827000000E+00  0.93827000000E+00 0. -1.
     999902    2    1    2    0    0  0.54099671152E-02  0.21000764691E-01 -0.10296675112E-01  0.10199233055E+01  0.10196407346E+01 0.  0.
     999903    2    3    3    0    0 -0.81315145594E-01  0.43536559799E-01  0.89093288891E-01  0.12980675574E+00  0.20114541212E-01 0.  0.
         14    1    1    2    0    0 -0.54099671152E-02 -0.21000764691E-01  0.10296675112E-01  0.24006694486E-01  0.00000000000E+00 0.  1.
     999901    1    3    3    0    0  0.86725112710E-01 -0.22535795108E-01 -0.99389964004E-01  0.89011654977E+00  0.88000000000E+00 0. -1.
        -11    1    4    4    0    0 -0.59552219017E-01  0.33835926066E-01  0.77085360777E-01  0.10312007879E+00  0.51100000000E-03 0.  1.
         11    1    4    4    0    0 -0.21762926577E-01  0.97006337334E-02  0.12007928114E-01  0.26686676950E-01  0.51100000000E-03 0. -1.
</event>
<event>
 8    1  0.1128298E+005  0.1043930E+01  0.7957747E-01            NaN
         13   -1    0    0    0    0  0.00000000000E+00  0.00000000000E+00  0.74505805969E-08  0.10566000000E+00  0.10566000000E+00 0. -1.
     999900   -1    0    0    0    0 -0.00000000000E+00 -0.00000000000E+00 -0.74505805969E-08  0.93827000000E+00  0.93827000000E+00 0.  1.
     999902    2    1    2    0    0 -0.19586086409E-01 -0.10461116268E-01  0.96416374998E-02  0.10197223378E+01  0.10194349589E+01 0.  0.
     999903    2    3    3    0    0 -0.10727168739E+00  0.57696539573E-01  0.47449627549E-01  0.13193651073E+00  0.17879320919E-01 0.  0.
         14    1    1    2    0    0  0.19586086409E-01  0.10461116268E-01 -0.96416374998E-02  0.24207662177E-01  0.00000000000E+00 0.  1.
     999901    1    3    3    0    0  0.87685600978E-01 -0.68157655842E-01 -0.37807990049E-01  0.88778582709E+00  0.88000000000E+00 0. -1.
        -11    1    4    4    0    0 -0.79384081792E-01  0.50386895476E-01  0.32710060093E-01  0.99553406923E-01  0.51100000000E-03 0. -1.
         11    1    4    4    0    0 -0.27887605595E-01  0.73096440975E-02  0.14739567456E-01  0.32383103811E-01  0.51100000000E-03 0.  1.
</event>
<event>
 8    1  0.1128298E+005  0.1043930E+01  0.7957747E-01            NaN
         13   -1    0    0    0    0  0.00000000000E+00  0.00000000000E+00  0.74505805969E-08  0.10566000000E+00  0.10566000000E+00 0. -1.
     999900   -1    0    0    0    0 -0.00000000000E+00 -0.00000000000E+00 -0.74505805969E-08  0.93827000000E+00  0.93827000000E+00 0.  1.
     999902    2    1    2    0    0  0.14725633060E-01 -0.13816981234E-01 -0.11448556128E-01  0.10207174457E+01  0.10204534685E+01 0.  0.
     999903    2    3    3    0    0 -0.69577848389E-01  0.24964967225E-01  0.10298474864E+00  0.12846966748E+00  0.20839156291E-01 0.  0.
         14    1    1    2    0    0 -0.14725633060E-01  0.13816981234E-01  0.11448556128E-01  0.23212554294E-01  0.00000000000E+00 0. -1.
     999901    1    3    3    0    0  0.84303481449E-01 -0.38781948459E-01 -0.11443330477E+00  0.89224777823E+00  0.88000000000E+00 0. -1.
        -11    1    4    4    0    0 -0.28392400566E-01  0.56575969778E-02  0.25323231636E-01  0.38466400858E-01  0.51100000000E-03 0.  1.
         11    1    4    4    0    0 -0.41185447822E-01  0.19307370247E-01  0.77661517003E-01  0.90003266621E-01  0.51100000000E-03 0. -1.
</event>
<event>
 8    1  0.1128298E+005  0.1043930E+01  0.7957747E-01            NaN
         13   -1    0    0    0    0  0.00000000000E+00  0.00000000000E+00  0.74505805969E-08  0.10566000000E+00  0.10566000000E+00 0.  1.
     999900   -1    0    0    0    0 -0.00000000000E+00 -0.00000000000E+00 -0.74505805969E-08  0.93827000000E+00  0.93827000000E+00 0.  1.
     999902    2    1    2    0    0  0.16758380005E-01 -0.48744630853E-02 -0.13813540497E-01  0.10216720218E+01  0.10214295387E+01 0.  0.
     999903    2    3    3    0    0 -0.59834464350E-01 -0.10939298656E+00  0.34973609091E-01  0.13084612891E+00  0.18723447472E-01 0.  0.
         14    1    1    2    0    0 -0.16758380005E-01  0.48744630853E-02  0.13813540497E-01  0.22257978161E-01  0.00000000000E+00 0.  1.
     999901    1    3    3    0    0  0.76592844355E-01  0.10451852347E+00 -0.48787149588E-01  0.89082589293E+00  0.88000000000E+00 0. -1.
        -11    1    4    4    0    0 -0.47918102102E-01 -0.99607216483E-01  0.28771748729E-01  0.11421828545E+00  0.51100000000E-03 0.  1.
         11    1    4    4    0    0 -0.11916362248E-01 -0.97857700725E-02  0.62018603628E-02  0.16627843459E-01  0.51100000000E-03 0. -1.
</event>
<event>
 8    1  0.1128298E+005  0.1043930E+01  0.7957747E-01            NaN
         13   -1    0    0    0    0  0.00000000000E+00  0.00000000000E+00  0.74505805969E-08  0.10566000000E+00  0.10566000000E+00 0. -1.
     999900   -1    0    0    0    0 -0.00000000000E+00 -0.00000000000E+00 -0.74505805969E-08  0.93827000000E+00  0.93827000000E+00 0. -1.
     999902    2    1    2    0    0 -0.24446036455E-01 -0.73626747531E-03  0.45365107186E-02  0.10190557017E+01  0.10187520760E+01 0.  0.
     999903    2    3    3    0    0 -0.20181785793E-01  0.86608209298E-01 -0.91948084779E-01  0.12947348589E+00  0.20016164919E-01 0.  0.
         14    1    1    2    0    0  0.24446036455E-01  0.73626747531E-03 -0.45365107186E-02  0.24874298335E-01  0.00000000000E+00 0.  1.
     999901    1    3    3    0    0 -0.42642506618E-02 -0.87344476773E-01  0.96484595498E-01  0.88958221578E+00  0.88000000000E+00 0.  1.
        -11    1    4    4    0    0 -0.23645696423E-01  0.66415658866E-01 -0.74340073495E-01  0.10245421587E+00  0.51100000000E-03 0.  1.
         11    1    4    4    0    0  0.34639106301E-02  0.20192550432E-01 -0.17608011284E-01  0.27019270016E-01  0.51100000000E-03 0. -1.
</event>
<event>
 8    1  0.1128298E+005  0.1043930E+01  0.7957747E-01            NaN
         13   -1    0    0    0    0  0.00000000000E+00  0.00000000000E+00  0.74505805969E-08  0.10566000000E+00  0.10566000000E+00 0. -1.
     999900   -1    0    0    0    0 -0.00000000000E+00 -0.00000000000E+00 -0.74505805969E-08  0.93827000000E+00  0.93827000000E+00 0.  1.
     999902    2    1    2    0    0  0.68936594885E-02  0.13510777380E-01 -0.79083811080E-02  0.10268242659E+01  0.10266817749E+01 0.  0.
     999903    2    3    3    0    0  0.48425023358E-01 -0.88824186631E-01 -0.89069930606E-01  0.13621520682E+00  0.19657339909E-01 0.  0.
         14    1    1    2    0    0 -0.68936594885E-02 -0.13510777380E-01  0.79083811080E-02  0.17105734077E-01  0.00000000000E+00 0. -1.
     999901    1    3    3    0    0 -0.41531363870E-01  0.10233496401E+00  0.81161549498E-01  0.89060905911E+00  0.88000000000E+00 0. -1.
        -11    1    4    4    0    0  0.19329957068E-01 -0.55089557211E-01 -0.53802338847E-01  0.79394328137E-01  0.51100000000E-03 0. -1.
         11    1    4    4    0    0  0.29095066290E-01 -0.33734629420E-01 -0.35267591759E-01  0.56820878680E-01  0.51100000000E-03 0.  1.
</event>
<event>
 8    1  0.1128298E+005  0.1043930E+01  0.7957747E-01            NaN
         13   -1    0    0    0    0  0.00000000000E+00  0.00000000000E+00  0.74505805969E-08  0.10566000000E+00  0.10566000000E+00 0. -1.
     999900   -1    0    0    0    0 -0.00000000000E+00 -0.00000000000E+00 -0.74505805969E-08  0.93827000000E+00  0.93827000000E+00 0. -1.
     999902    2    1    2    0    0 -0.13434443559E-01  0.19120661287E-01 -0.74134654238E-02  0.10194138129E+01  0.10191189717E+01 0.  0.
     999903    2    3    3    0    0 -0.11386689221E+00  0.46050451816E-01  0.43520347513E-01  0.13182936975E+00  0.19966192127E-01 0.  0.
         14    1    1    2    0    0  0.13434443559E-01 -0.19120661287E-01  0.74134654238E-02  0.24516187130E-01  0.00000000000E+00 0. -1.
     999901    1    3    3    0    0  0.10043244865E+00 -0.26929790529E-01 -0.50933812936E-01  0.88758444312E+00  0.88000000000E+00 0.  1.
        -11    1    4    4    0    0 -0.77198883876E-01  0.26935705145E-01  0.37806729128E-01  0.90082238936E-01  0.51100000000E-03 0.  1.
         11    1    4    4    0    0 -0.36668008335E-01  0.19114746671E-01  0.57136183843E-02  0.41747130819E-01  0.51100000000E-03 0. -1.
</event>
<event>
 8    1  0.1128298E+005  0.1043930E+01  0.7957747E-01            NaN
         13   -1    0    0    0    0  0.00000000000E+00  0.00000000000E+00  0.74505805969E-08  0.10566000000E+00  0.10566000000E+00 0.  1.
     999900   -1    0    0    0    0 -0.00000000000E+00 -0.00000000000E+00 -0.74505805969E-08  0.93827000000E+00  0.93827000000E+00 0.  1.
     999902    2    1    2    0    0 -0.21123558268E-02  0.10467673181E-01  0.21604973179E-01  0.10198300188E+01  0.10195452212E+01 0.  0.
     999903    2    3    3    0    0  0.11424257015E+00 -0.85100195698E-02 -0.54238958784E-01  0.12873466830E+00  0.22515881185E-01 0.  0.
         14    1    1    2    0    0  0.21123558268E-02 -0.10467673181E-01 -0.21604973179E-01  0.24099981224E-01  0.00000000000E+00 0. -1.
     999901    1    3    3    0    0 -0.11635492598E+00  0.18977692750E-01  0.75843931963E-01  0.89109535047E+00  0.88000000000E+00 0. -1.
        -11    1    4    4    0    0  0.59271680544E-01 -0.68274297433E-02 -0.40287663803E-01  0.71993769780E-01  0.51100000000E-03 0.  1.
         11    1    4    4    0    0  0.54970889604E-01 -0.16825898265E-02 -0.13951294982E-01  0.56740898522E-01  0.51100000000E-03 0. -1.
</event>
<event>
 7    1  0.1128298E+005  0.1043930E+01  0.7957747E-01            NaN
         13   -1    0    0    0    0  0.00000000000E+00  0.00000000000E+00  0.74505805969E-08  0.10566000000E+00  0.10566000000E+00 0. -1.
     999900   -1    0    0    0    0 -0.00000000000E+00 -0.00000000000E+00 -0.74505805969E-08  0.93827000000E+00  0.93827000000E+00 0.  1.
     999903    2    1    2    0    0  0.67336507764E-01 -0.11103531319E-01  0.70725447207E-01  0.10033322336E+00  0.20178531706E-01 0.  0.
         14    1    1    2    0    0  0.14000600570E-01 -0.21686773371E-01  0.44819401357E-01  0.51721481935E-01  0.00000000000E+00 0. -1.
     999901    1    1    2    0    0 -0.81337108334E-01  0.32790304690E-01 -0.11554484856E+00  0.89187529470E+00  0.88000000000E+00 0.  1.
        -11    1    3    3    0    0  0.49685739399E-01 -0.70046050504E-02  0.63217845925E-01  0.80712417607E-01  0.51100000000E-03 0.  1.
         11    1    3    3    0    0  0.17650768365E-01 -0.40989262683E-02  0.75076012816E-02  0.19620805754E-01  0.51100000000E-03 0. -1.
</event>
<event>
 8    1  0.1128298E+005  0.1043930E+01  0.7957747E-01            NaN
         13   -1    0    0    0    0  0.00000000000E+00  0.00000000000E+00  0.74505805969E-08  0.10566000000E+00  0.10566000000E+00 0.  1.
     999900   -1    0    0    0    0 -0.00000000000E+00 -0.00000000000E+00 -0.74505805969E-08  0.93827000000E+00  0.93827000000E+00 0. -1.
     999902    2    1    2    0    0  0.45530824608E-02 -0.21700496933E-01  0.68402059723E-02  0.10207258938E+01  0.10204621109E+01 0.  0.
     999903    2    3    3    0    0 -0.16251286410E-03 -0.99644365647E-01  0.86839817942E-01  0.13365350587E+00  0.19826236015E-01 0.  0.
         14    1    1    2    0    0 -0.45530824608E-02  0.21700496933E-01 -0.68402059723E-02  0.23204106205E-01  0.00000000000E+00 0.  1.
     999901    1    3    3    0    0  0.47155953249E-02  0.77943868714E-01 -0.79999611970E-01  0.88707238793E+00  0.88000000000E+00 0.  1.
        -11    1    4    4    0    0 -0.35872108174E-03 -0.27600935850E-01  0.13091552883E-01  0.30554708614E-01  0.51100000000E-03 0.  1.
         11    1    4    4    0    0  0.19620821764E-03 -0.72043429797E-01  0.73748265060E-01  0.10309879725E+00  0.51100000000E-03 0. -1.
</event>
<event>
 8    1  0.1128298E+005  0.1043930E+01  0.7957747E-01            NaN
         13   -1    0    0    0    0  0.00000000000E+00  0.00000000000E+00  0.74505805969E-08  0.10566000000E+00  0.10566000000E+00 0.  1.
     999900   -1    0    0    0    0 -0.00000000000E+00 -0.00000000000E+00 -0.74505805969E-08  0.93827000000E+00  0.93827000000E+00 0.  1.
     999902    2    1    2    0    0  0.86462620016E-02  0.19707507532E-01 -0.11011696223E-01  0.10197556096E+01  0.10194690295E+01 0.  0.
     999903    2    3    3    0    0 -0.47638042880E-01 -0.36666796480E-01 -0.11091250122E+00  0.13052776700E+00  0.33497431816E-01 0.  0.
         14    1    1    2    0    0 -0.86462620016E-02 -0.19707507532E-01  0.11011696223E-01  0.24174390446E-01  0.00000000000E+00 0. -1.
     999901    1    3    3    0    0  0.56284304881E-01  0.56374304012E-01  0.99900804998E-01  0.88922784255E+00  0.88000000000E+00 0. -1.
        -11    1    4    4    0    0 -0.17768194994E-01 -0.33954261798E-01 -0.54362129500E-01  0.66513930063E-01  0.51100000000E-03 0. -1.
         11    1    4    4    0    0 -0.29869847886E-01 -0.27125346823E-02 -0.56550371720E-01  0.64013836940E-01  0.51100000000E-03 0.  1.
</event>
<event>
 8    1  0.1128298E+005  0.1043930E+01  0.7957747E-01            NaN
         13   -1    0    0    0    0  0.00000000000E+00  0.00000000000E+00  0.74505805969E-08  0.10566000000E+00  0.10566000000E+00 0. -1.
     999900   -1    0    0    0    0 -0.00000000000E+00 -0.00000000000E+00 -0.74505805969E-08  0.93827000000E+00  0.93827000000E+00 0. -1.
     999902    2    1    2    0    0  0.13073407246E-01  0.63704100429E-02  0.21152377458E-01  0.10182605790E+01  0.10179369763E+01 0.  0.
     999903    2    3    3    0    0 -0.87922478098E-01  0.89127774027E-01 -0.16169090391E-01  0.12784391133E+00  0.20211479939E-01 0.  0.
         14    1    1    2    0    0 -0.13073407246E-01 -0.63704100429E-02 -0.21152377458E-01  0.25669420976E-01  0.00000000000E+00 0. -1.
     999901    1    3    3    0    0  0.10099588534E+00 -0.82757363984E-01  0.37321467849E-01  0.89041666770E+00  0.88000000000E+00 0. -1.
        -11    1    4    4    0    0 -0.39502503845E-01  0.40732065208E-01 -0.17466214051E-01  0.59370688899E-01  0.51100000000E-03 0. -1.
         11    1    4    4    0    0 -0.48419974254E-01  0.48395708820E-01  0.12971236598E-02  0.68473222428E-01  0.51100000000E-03 0.  1.
</event>
<event>
 8    1  0.1128298E+005  0.1043930E+01  0.7957747E-01            NaN
         13   -1    0    0    0    0  0.00000000000E+00  0.00000000000E+00  0.74505805969E-08  0.10566000000E+00  0.10566000000E+00 0.  1.
     999900   -1    0    0    0    0 -0.00000000000E+00 -0.00000000000E+00 -0.74505805969E-08  0.93827000000E+00  0.93827000000E+00 0.  1.
     999902    2    1    2    0    0  0.66809892774E-02  0.16318208055E-01 -0.17601240344E-01  0.10190156830E+01  0.10187110674E+01 0.  0.
     999903    2    3    3    0    0  0.53026320869E-01 -0.10964988393E+00 -0.35994336803E-01  0.12864825546E+00  0.20491305487E-01 0.  0.
         14    1    1    2    0    0 -0.66809892774E-02 -0.16318208055E-01  0.17601240344E-01  0.24914317039E-01  0.00000000000E+00 0.  1.
     999901    1    3    3    0    0 -0.46345331591E-01  0.12596809198E+00  0.18393096458E-01  0.89036742750E+00  0.88000000000E+00 0. -1.
        -11    1    4    4    0    0  0.22257724805E-01 -0.55294187739E-01 -0.27377875796E-01  0.65594685115E-01  0.51100000000E-03 0. -1.
         11    1    4    4    0    0  0.30768596064E-01 -0.54355696189E-01 -0.86164610071E-02  0.63053570345E-01  0.51100000000E-03 0.  1.
</event>
<event>
 8    1  0.1128298E+005  0.1043930E+01  0.7957747E-01            NaN
         13   -1    0    0    0    0  0.00000000000E+00  0.00000000000E+00  0.74505805969E-08  0.10566000000E+00  0.10566000000E+00 0.  1.
     999900   -1    0    0    0    0 -0.00000000000E+00 -0.00000000000E+00 -0.74505805969E-08  0.93827000000E+00  0.93827000000E+00 0. -1.
     999902    2    1    2    0    0 -0.19209100800E-01 -0.15525918708E-01 -0.14753603716E-01  0.10151600065E+01  0.10147522487E+01 0.  0.
     999903    2    3    3    0    0  0.57008340347E-01 -0.83217232855E-01 -0.75096931076E-01  0.12722277360E+00  0.19262044373E-01 0.  0.
         14    1    1    2    0    0  0.19209100800E-01  0.15525918708E-01  0.14753603716E-01  0.28769993533E-01  0.00000000000E+00 0.  1.
     999901    1    3    3    0    0 -0.76217441147E-01  0.67691314147E-01  0.60343327359E-01  0.88793723286E+00  0.88000000000E+00 0.  1.
        -11    1    4    4    0    0  0.46174907303E-01 -0.51877373766E-01 -0.53129699558E-01  0.87443753747E-01  0.51100000000E-03 0. -1.
         11    1    4    4    0    0  0.10833433044E-01 -0.31339859089E-01 -0.21967231517E-01  0.39779019857E-01  0.51100000000E-03 0.  1.
</event>
<event>
 8    1  0.1128298E+005  0.1043930E+01  0.7957747E-01            NaN
         13   -1    0    0    0    0  0.00000000000E+00  0.00000000000E+00  0.74505805969E-08  0.10566000000E+00  0.10566000000E+00 0. -1.
     999900   -1    0    0    0    0 -0.00000000000E+00 -0.00000000000E+00 -0.74505805969E-08  0.93827000000E+00  0.93827000000E+00 0. -1.
     999902    2    1    2    0    0  0.21776182673E-01 -0.10084906002E-01 -0.15097497729E-02  0.10198844847E+01  0.10196009883E+01 0.  0.
     999903    2    3    3    0    0  0.80485150546E-01 -0.20676266284E-01  0.10052659319E+00  0.13198227439E+00  0.20207854143E-01 0.  0.
         14    1    1    2    0    0 -0.21776182673E-01  0.10084906002E-01  0.15097497729E-02  0.24045515284E-01  0.00000000000E+00 0. -1.
     999901    1    3    3    0    0 -0.58708967872E-01  0.10591360282E-01 -0.10203634296E+00  0.88790221033E+00  0.88000000000E+00 0. -1.
        -11    1    4    4    0    0  0.31915954321E-01 -0.46964178887E-02  0.53703138175E-01  0.62649602170E-01  0.51100000000E-03 0. -1.
         11    1    4    4    0    0  0.48569196224E-01 -0.15979848396E-01  0.46823455011E-01  0.69332672217E-01  0.51100000000E-03 0.  1.
</event>
<event>
 8    1  0.1128298E+005  0.1043930E+01  0.7957747E-01            NaN
         13   -1    0    0    0    0  0.00000000000E+00  0.00000000000E+00  0.74505805969E-08  0.10566000000E+00  0.10566000000E+00 0.  1.
     999900   -1    0    0    0    0 -0.00000000000E+00 -0.00000000000E+00 -0.74505805969E-08  0.93827000000E+00  0.93827000000E+00 0.  1.
     999902    2    1    2    0    0 -0.16650580832E-01 -0.13325424562E-02  0.16976018683E-01  0.10201139818E+01  0.10198359344E+01 0.  0.
     999903    2    3    3    0    0 -0.13836330751E-01  0.12287011276E+00  0.37404144812E-01  0.13115305585E+00  0.22661539047E-01 0.  0.
         14    1    1    2    0    0  0.16650580832E-01  0.13325424562E-02 -0.16976018683E-01  0.23816018177E-01  0.00000000000E+00 0. -1.
     999901    1    3    3    0    0 -0.28142500818E-02 -0.12420265522E+00 -0.20428126129E-01  0.88896092597E+00  0.88000000000E+00 0.  1.
        -11    1    4    4    0    0 -0.16645407253E-01  0.94695782351E-01  0.36425548394E-01  0.10281752027E+00  0.51100000000E-03 0.  1.
         11    1    4    4    0    0  0.28090765022E-02  0.28174330409E-01  0.97859641848E-03  0.28335535583E-01  0.51100000000E-03 0. -1.
</event>
<event>
 8    1  0.1128298E+005  0.1043930E+01  0.7957747E-01            NaN
         13   -1    0    0    0    0  0.00000000000E+00  0.00000000000E+00  0.74505805969E-08  0.10566000000E+00  0.10566000000E+00 0.  1.
     999900   -1    0    0    0    0 -0.00000000000E+00 -0.00000000000E+00 -0.74505805969E-08  0.93827000000E+00  0.93827000000E+00 0. -1.
     999902    2    1    2    0    0  0.61059240220E-02 -0.16982041221E-01  0.17279121519E-01  0.10189452032E+01  0.10186388403E+01 0.  0.
     999903    2    3    3    0    0  0.29434460641E-01 -0.10942857217E+00 -0.61027937593E-01  0.13033810371E+00  0.20557534667E-01 0.  0.
         14    1    1    2    0    0 -0.61059240220E-02  0.16982041221E-01 -0.17279121519E-01  0.24984796830E-01  0.00000000000E+00 0. -1.
     999901    1    3    3    0    0 -0.23328536619E-01  0.92446530948E-01  0.78307059111E-01  0.88860709946E+00  0.88000000000E+00 0.  1.
        -11    1    4    4    0    0  0.11133482745E-01 -0.24449663533E-01 -0.23338572924E-01  0.35590596961E-01  0.51100000000E-03 0. -1.
         11    1    4    4    0    0  0.18300977896E-01 -0.84978908636E-01 -0.37689364669E-01  0.94747506748E-01  0.51100000000E-03 0.  1.
</event>
<event>
 8    1  0.1128298E+005  0.1043930E+01  0.7957747E-01            NaN
         13   -1    0    0    0    0  0.00000000000E+00  0.00000000000E+00  0.74505805969E-08  0.10566000000E+00  0.10566000000E+00 0.  1.
     999900   -1    0    0    0    0 -0.00000000000E+00 -0.00000000000E+00 -0.74505805969E-08  0.93827000000E+00  0.93827000000E+00 0.  1.
     999902    2    1    2    0    0 -0.14832243423E-02  0.24508515555E-01  0.43102659649E-02  0.10190011877E+01  0.10186962132E+01 0.  0.
     999903    2    3    3    0    0  0.58722660809E-01  0.11541839986E+00 -0.16543767302E-01  0.13202641560E+00  0.19685534274E-01 0.  0.
         14    1    1    2    0    0  0.14832243423E-02 -0.24508515555E-01 -0.43102659649E-02  0.24928812283E-01  0.00000000000E+00 0. -1.
     999901    1    3    3    0    0 -0.60205885151E-01 -0.90909884308E-01  0.20854033266E-01  0.88697477212E+00  0.88000000000E+00 0. -1.
        -11    1    4    4    0    0  0.40063701422E-01  0.85399888686E-01 -0.36594568463E-02  0.94402827842E-01  0.51100000000E-03 0. -1.
         11    1    4    4    0    0  0.18658959387E-01  0.30018511177E-01 -0.12884310455E-01  0.37623587756E-01  0.51100000000E-03 0.  1.
</event>
<event>
 8    1  0.1128298E+005  0.1043930E+01  0.7957747E-01            NaN
         13   -1    0    0    0    0  0.00000000000E+00  0.00000000000E+00  0.74505805969E-08  0.10566000000E+00  0.10566000000E+00 0. -1.
     999900   -1    0    0    0    0 -0.00000000000E+00 -0.00000000000E+00 -0.74505805969E-08  0.93827000000E+00  0.93827000000E+00 0. -1.
     999902    2    1    2    0    0  0.22913067860E-01  0.35112443972E-02 -0.15104900212E-02  0.10207002971E+01  0.10204359252E+01 0.  0.
     999903    2    3    3    0    0 -0.11169642509E-01  0.12849693792E+00 -0.13150928909E-01  0.13113941974E+00  0.19707270481E-01 0.  0.
         14    1    1    2    0    0 -0.22913067860E-01 -0.35112443972E-02  0.15104900212E-02  0.23229702884E-01  0.00000000000E+00 0. -1.
     999901    1    3    3    0    0  0.34082710369E-01 -0.12498569353E+00  0.11640438888E-01  0.88956087737E+00  0.88000000000E+00 0.  1.
        -11    1    4    4    0    0 -0.13960493027E-01  0.56301689067E-01 -0.20890514146E-02  0.58046540071E-01  0.51100000000E-03 0. -1.
         11    1    4    4    0    0  0.27908505185E-02  0.72195248858E-01 -0.11061877495E-01  0.73092879673E-01  0.51100000000E-03 0.  1.
</event>
<event>
 8    1  0.1128298E+005  0.1043930E+01  0.7957747E-01            NaN
         13   -1    0    0    0    0  0.00000000000E+00  0.00000000000E+00  0.74505805969E-08  0.10566000000E+00  0.10566000000E+00 0.  1.
     999900   -1    0    0    0    0 -0.00000000000E+00 -0.00000000000E+00 -0.74505805969E-08  0.93827000000E+00  0.93827000000E+00 0.  1.
     999902    2    1    2    0    0  0.10253364026E-01 -0.14140356715E-01  0.14311637762E-01  0.10213489430E+01  0.10210992896E+01 0.  0.
     999903    2    3    3    0    0 -0.89397565561E-02 -0.14229116590E-01  0.13098331109E+00  0.13344091669E+00  0.19169336347E-01 0.  0.
         14    1    1    2    0    0 -0.10253364026E-01  0.14140356715E-01 -0.14311637762E-01  0.22581057046E-01  0.00000000000E+00 0. -1.
     999901    1    3    3    0    0  0.19193120582E-01  0.88759874869E-04 -0.11667167333E+00  0.88790802627E+00  0.88000000000E+00 0.  1.
        -11    1    4    4    0    0 -0.10714576360E-01 -0.18118597707E-01  0.11338915414E+00  0.11532756447E+00  0.51100000000E-03 0.  1.
         11    1    4    4    0    0  0.17748198036E-02  0.38894811166E-02  0.17594156952E-01  0.18113352217E-01  0.51100000000E-03 0. -1.
</event>
<event>
 8    1  0.1128298E+005  0.1043930E+01  0.7957747E-01            NaN
         13   -1    0    0    0    0  0.00000000000E+00  0.00000000000E+00  0.74505805969E-08  0.10566000000E+00  0.10566000000E+00 0.  1.
     999900   -1    0    0    0    0 -0.00000000000E+00 -0.00000000000E+00 -0.74505805969E-08  0.93827000000E+00  0.93827000000E+00 0. -1.
     999902    2    1    2    0    0  0.16358604278E-01  0.17866140180E-01  0.58087087787E-02  0.10190192795E+01  0.10187147530E+01 0.  0.
     999903    2    3    3    0    0  0.62615420242E-01  0.99952729225E-01 -0.54718098697E-01  0.13192210581E+00  0.22318887611E-01 0.  0.
         14    1    1    2    0    0 -0.16358604278E-01 -0.17866140180E-01 -0.58087087787E-02  0.24910720514E-01  0.00000000000E+00 0.  1.
     999901    1    3    3    0    0 -0.46256815964E-01 -0.82086589045E-01  0.60526807475E-01  0.88709717368E+00  0.88000000000E+00 0.  1.
        -11    1    4    4    0    0  0.91126903206E-02  0.32779634555E-01 -0.18369814349E-01  0.38668550098E-01  0.51100000000E-03 0. -1.
         11    1    4    4    0    0  0.53502729921E-01  0.67173094670E-01 -0.36348284348E-01  0.93253555710E-01  0.51100000000E-03 0.  1.
</event>
<event>
 8    1  0.1128298E+005  0.1043930E+01  0.7957747E-01            NaN
         13   -1    0    0    0    0  0.00000000000E+00  0.00000000000E+00  0.74505805969E-08  0.10566000000E+00  0.10566000000E+00 0.  1.
     999900   -1    0    0    0    0 -0.00000000000E+00 -0.00000000000E+00 -0.74505805969E-08  0.93827000000E+00  0.93827000000E+00 0.  1.
     999902    2    1    2    0    0 -0.21489183267E-01 -0.74383215039E-02  0.69694391892E-02  0.10201458308E+01  0.10198685353E+01 0.  0.
     999903    2    3    3    0    0  0.28288539144E-01 -0.10899724838E+00  0.64667281868E-01  0.13103330788E+00  0.17527944231E-01 0.  0.
         14    1    1    2    0    0  0.21489183267E-01  0.74383215039E-02 -0.69694391892E-02  0.23784169250E-01  0.00000000000E+00 0.  1.
     999901    1    3    3    0    0 -0.49777722411E-01  0.10155892687E+00 -0.57697842678E-01  0.88911252287E+00  0.88000000000E+00 0.  1.
        -11    1    4    4    0    0  0.21488935536E-01 -0.72044427372E-01  0.33920387807E-01  0.82480468571E-01  0.51100000000E-03 0.  1.
         11    1    4    4    0    0  0.67996036082E-02 -0.36952821006E-01  0.30746894061E-01  0.48552839308E-01  0.51100000000E-03 0. -1.
</event>
<event>
 8    1  0.1128298E+005  0.1043930E+01  0.7957747E-01            NaN
         13   -1    0    0    0    0  0.00000000000E+00  0.00000000000E+00  0.74505805969E-08  0.10566000000E+00  0.10566000000E+00 0. -1.
     999900   -1    0    0    0    0 -0.00000000000E+00 -0.00000000000E+00 -0.74505805969E-08  0.93827000000E+00  0.93827000000E+00 0. -1.
     999902    2    1    2    0    0  0.30528368798E-02  0.10930209594E-01  0.21596980138E-01  0.10195328927E+01  0.10192409433E+01 0.  0.
     999903    2    3    3    0    0 -0.13560490071E-02  0.12589314531E+00  0.33971751826E-01  0.13195807902E+00  0.20197321358E-01 0.  0.
         14    1    1    2    0    0 -0.30528368798E-02 -0.10930209594E-01 -0.21596980138E-01  0.24397107326E-01  0.00000000000E+00 0.  1.
     999901    1    3    3    0    0  0.44088858869E-02 -0.11496293572E+00 -0.12374771688E-01  0.88757481366E+00  0.88000000000E+00 0. -1.
        -11    1    4    4    0    0 -0.62054144889E-02  0.64119165648E-01  0.26046908644E-01  0.69487244465E-01  0.51100000000E-03 0.  1.
         11    1    4    4    0    0  0.48493654818E-02  0.61773979665E-01  0.79248431822E-02  0.62470834553E-01  0.51100000000E-03 0. -1.
</event>
<event>
 8    1  0.1128298E+005  0.1043930E+01  0.7957747E-01            NaN
         13   -1    0    0    0    0  0.00000000000E+00  0.00000000000E+00  0.74505805969E-08  0.10566000000E+00  0.10566000000E+00 0.  1.
     999900   -1    0    0    0    0 -0.00000000000E+00 -0.00000000000E+00 -0.74505805969E-08  0.93827000000E+00  0.93827000000E+00 0.  1.
     999902    2    1    2    0    0 -0.15426525599E-01 -0.42315133795E-02  0.22583558613E-01  0.10162550923E+01  0.10158781975E+01 0.  0.
     999903    2    3    3    0    0  0.79687623562E-01  0.94201417809E-01 -0.76303066469E-02  0.12516103385E+00  0.19571365557E-01 0.  0.
         14    1    1    2    0    0  0.15426525599E-01  0.42315133795E-02 -0.22583558613E-01  0.27674907717E-01  0.00000000000E+00 0. -1.
     999901    1    3    3    0    0 -0.95114149161E-01 -0.98432931188E-01  0.30213865259E-01  0.89109405843E+00  0.88000000000E+00 0.  1.
        -11    1    4    4    0    0  0.14154072492E-01  0.29101842494E-01 -0.50064999370E-02  0.32750284995E-01  0.51100000000E-03 0. -1.
         11    1    4    4    0    0  0.65533551070E-01  0.65099575315E-01 -0.26238067099E-02  0.92410748859E-01  0.51100000000E-03 0.  1.
</event>
<event>
 8    1  0.1128298E+005  0.1043930E+01  0.7957747E-01            NaN
         13   -1    0    0    0    0  0.00000000000E+00  0.00000000000E+00  0.74505805969E-08  0.10566000000E+00  0.10566000000E+00 0.  1.
     999900   -1    0    0    0    0 -0.00000000000E+00 -0.00000000000E+00 -0.74505805969E-08  0.93827000000E+00  0.93827000000E+00 0. -1.
     999902    2    1    2    0    0 -0.26225784571E-01  0.50819154480E-02 -0.87604751772E-02  0.10158165945E+01  0.10154274913E+01 0.  0.
     999903    2    3    3    0    0 -0.10250257955E+00 -0.51746784951E-01 -0.56145159648E-01  0.12942336411E+00  0.20337641387E-01 0.  0.
         14    1    1    2    0    0  0.26225784571E-01 -0.50819154480E-02  0.87604751772E-02  0.28113405456E-01  0.00000000000E+00 0.  1.
     999901    1    3    3    0    0  0.76276794983E-01  0.56828700399E-01  0.47384684470E-01  0.88639323044E+00  0.88000000000E+00 0.  1.
        -11    1    4    4    0    0 -0.62288919919E-01 -0.40780243568E-01 -0.41517173556E-01  0.85245965483E-01  0.51100000000E-03 0.  1.
         11    1    4    4    0    0 -0.40213659634E-01 -0.10966541384E-01 -0.14627986092E-01  0.44177398624E-01  0.51100000000E-03 0. -1.
</event>
<event>
 8    1  0.1128298E+005  0.1043930E+01  0.7957747E-01            NaN
         13   -1    0    0    0    0  0.00000000000E+00  0.00000000000E+00  0.74505805969E-08  0.10566000000E+00  0.10566000000E+00 0.  1.
     999900   -1    0    0    0    0 -0.00000000000E+00 -0.00000000000E+00 -0.74505805969E-08  0.93827000000E+00  0.93827000000E+00 0. -1.
     999902    2    1    2    0    0 -0.10253944071E-01  0.15666530999E-01 -0.14338538359E-01  0.10203465896E+01  0.10200740099E+01 0.  0.
     999903    2    3    3    0    0 -0.12720390615E+00  0.87615619101E-02  0.25756769775E-01  0.13167758152E+00  0.20444451048E-01 0.  0.
         14    1    1    2    0    0  0.10253944071E-01 -0.15666530999E-01  0.14338538359E-01  0.23583410373E-01  0.00000000000E+00 0.  1.
     999901    1    3    3    0    0  0.11694996208E+00  0.69049690889E-02 -0.40095308134E-01  0.88866900810E+00  0.88000000000E+00 0. -1.
        -11    1    4    4    0    0 -0.75812187207E-01 -0.33379679553E-02  0.20559686114E-01  0.78623098217E-01  0.51100000000E-03 0.  1.
         11    1    4    4    0    0 -0.51391718947E-01  0.12099529865E-01  0.51970836608E-02  0.53054483306E-01  0.51100000000E-03 0. -1.
</event>
<event>
 8    1  0.1128298E+005  0.1043930E+01  0.7957747E-01            NaN
         13   -1    0    0    0    0  0.00000000000E+00  0.00000000000E+00  0.74505805969E-08  0.10566000000E+00  0.10566000000E+00 0. -1.
     999900   -1    0    0    0    0 -0.00000000000E+00 -0.00000000000E+00 -0.74505805969E-08  0.93827000000E+00  0.93827000000E+00 0. -1.
     999902    2    1    2    0    0 -0.59080512082E-02 -0.18580433686E-01 -0.13258446064E-01  0.10203519599E+01  0.10200795057E+01 0.  0.
     999903    2    3    3    0    0 -0.40385305013E-01  0.11678546609E+00  0.28193488724E-01  0.12837053026E+00  0.20354416731E-01 0.  0.
         14    1    1    2    0    0  0.59080512082E-02  0.18580433686E-01  0.13258446064E-01  0.23578040145E-01  0.00000000000E+00 0. -1.
     999901    1    3    3    0    0  0.34477253804E-01 -0.13536589978E+00 -0.41451934788E-01  0.89198142960E+00  0.88000000000E+00 0. -1.
        -11    1    4    4    0    0 -0.14003995240E-01  0.57738720200E-01  0.48502962665E-02  0.59612567366E-01  0.51100000000E-03 0. -1.
         11    1    4    4    0    0 -0.26381309773E-01  0.59046745892E-01  0.23343192457E-01  0.68757962890E-01  0.51100000000E-03 0.  1.
</event>
<event>
 8    1  0.1128298E+005  0.1043930E+01  0.7957747E-01            NaN
         13   -1    0    0    0    0  0.00000000000E+00  0.00000000000E+00  0.74505805969E-08  0.10566000000E+00  0.10566000000E+00 0.  1.
     999900   -1    0    0    0    0 -0.00000000000E+00 -0.00000000000E+00 -0.74505805969E-08  0.93827000000E+00  0.93827000000E+00 0. -1.
     999902    2    1    2    0    0  0.15125901779E-01  0.11343807220E-01  0.15080857040E-01  0.10197451470E+01  0.10194583158E+01 0.  0.
     999903    2    3    3    0    0  0.37929567982E-01  0.11771645836E+00 -0.39269414686E-01  0.13138198917E+00  0.20574825723E-01 0.  0.
         14    1    1    2    0    0 -0.15125901779E-01 -0.11343807220E-01 -0.15080857040E-01  0.24184853027E-01  0.00000000000E+00 0. -1.
     999901    1    3    3    0    0 -0.22803666203E-01 -0.10637265114E+00  0.54350271726E-01  0.88836315780E+00  0.88000000000E+00 0.  1.
        -11    1    4    4    0    0  0.18975451650E-01  0.59630414998E-01 -0.90992578856E-02  0.63236949430E-01  0.51100000000E-03 0. -1.
         11    1    4    4    0    0  0.18954116333E-01  0.58086043359E-01 -0.30170156800E-01  0.68145039741E-01  0.51100000000E-03 0.  1.
</event>
<event>
 8    1  0.1128298E+005  0.1043930E+01  0.7957747E-01            NaN
         13   -1    0    0    0    0  0.00000000000E+00  0.00000000000E+00  0.74505805969E-08  0.10566000000E+00  0.10566000000E+00 0.  1.
     999900   -1    0    0    0    0 -0.00000000000E+00 -0.00000000000E+00 -0.74505805969E-08  0.93827000000E+00  0.93827000000E+00 0. -1.
     999902    2    1    2    0    0  0.22612892836E-01 -0.69152471528E-02  0.28610642023E-02  0.10201109057E+01  0.10198327856E+01 0.  0.
     999903    2    3    3    0    0 -0.11710429547E+00  0.17434692680E-02 -0.46495061217E-01  0.12768057608E+00  0.20593277762E-01 0.  0.
         14    1    1    2    0    0 -0.22612892836E-01  0.69152471528E-02 -0.28610642023E-02  0.23819094315E-01  0.00000000000E+00 0. -1.
     999901    1    3    3    0    0  0.13971718830E+00 -0.86587164208E-02  0.49356125419E-01  0.89243032960E+00  0.88000000000E+00 0.  1.
        -11    1    4    4    0    0 -0.96461501855E-01  0.81773437580E-02 -0.33460822593E-01  0.10242840456E+00  0.51100000000E-03 0.  1.
         11    1    4    4    0    0 -0.20642793614E-01 -0.64338744900E-02 -0.13034238624E-01  0.25252171523E-01  0.51100000000E-03 0. -1.
</event>
<event>
 8    1  0.1128298E+005  0.1043930E+01  0.7957747E-01            NaN
         13   -1    0    0    0    0  0.00000000000E+00  0.00000000000E+00  0.74505805969E-08  0.10566000000E+00  0.10566000000E+00 0.  1.
     999900   -1    0    0    0    0 -0.00000000000E+00 -0.00000000000E+00 -0.74505805969E-08  0.93827000000E+00  0.93827000000E+00 0.  1.
     999902    2    1    2    0    0  0.21711086043E-01 -0.29432759973E-02  0.90722061996E-02  0.10202163108E+01  0.10199406756E+01 0.  0.
     999903    2    3    3    0    0  0.38821240973E-01 -0.64062551212E-01 -0.10499696671E+00  0.13058711870E+00  0.20433632440E-01 0.  0.
         14    1    1    2    0    0 -0.21711086043E-01  0.29432759973E-02 -0.90722061996E-02  0.23713689213E-01  0.00000000000E+00 0. -1.
     999901    1    3    3    0    0 -0.17110154930E-01  0.61119275215E-01  0.11406917291E+00  0.88962919209E+00  0.88000000000E+00 0. -1.
        -11    1    4    4    0    0  0.29047298355E-01 -0.31422043693E-01 -0.49197999631E-01  0.65205787015E-01  0.51100000000E-03 0.  1.
         11    1    4    4    0    0  0.97739426182E-02 -0.32640507519E-01 -0.55798967075E-01  0.65381331686E-01  0.51100000000E-03 0. -1.
</event>
<event>
 8    1  0.1128298E+005  0.1043930E+01  0.7957747E-01            NaN
         13   -1    0    0    0    0  0.00000000000E+00  0.00000000000E+00  0.74505805969E-08  0.10566000000E+00  0.10566000000E+00 0. -1.
     999900   -1    0    0    0    0 -0.00000000000E+00 -0.00000000000E+00 -0.74505805969E-08  0.93827000000E+00  0.93827000000E+00 0. -1.
     999902    2    1    2    0    0  0.14571963280E-01 -0.17196530947E-01  0.58625205233E-02  0.10206398317E+01  0.10203740658E+01 0.  0.
     999903    2    3    3    0    0 -0.68194430447E-01 -0.42604648738E-01 -0.10013102557E+00  0.13006109845E+00  0.20592003568E-01 0.  0.
         14    1    1    2    0    0 -0.14571963280E-01  0.17196530947E-01 -0.58625205233E-02  0.23290168254E-01  0.00000000000E+00 0. -1.
     999901    1    3    3    0    0  0.82766393727E-01  0.25408117791E-01  0.10599354609E+00  0.89057873329E+00  0.88000000000E+00 0. -1.
        -11    1    4    4    0    0 -0.17913035020E-01 -0.14566907992E-01 -0.43794426603E-01  0.49510448943E-01  0.51100000000E-03 0. -1.
         11    1    4    4    0    0 -0.50281395427E-01 -0.28037740746E-01 -0.56336598967E-01  0.80550649509E-01  0.51100000000E-03 0.  1.
</event>
<event>
 8    1  0.1128298E+005  0.1043930E+01  0.7957747E-01            NaN
         13   -1    0    0    0    0  0.00000000000E+00  0.00000000000E+00  0.74505805969E-08  0.10566000000E+00  0.10566000000E+00 0. -1.
     999900   -1    0    0    0    0 -0.00000000000E+00 -0.00000000000E+00 -0.74505805969E-08  0.93827000000E+00  0.93827000000E+00 0.  1.
     999902    2    1    2    0    0 -0.41776704303E-02  0.93088687089E-02 -0.21825679090E-01  0.10198370916E+01  0.10195524632E+01 0.  0.
     999903    2    3    3    0    0  0.14654231398E-01 -0.79719132448E-01 -0.10142196116E+00  0.13157125661E+00  0.21323573419E-01 0.  0.
         14    1    1    2    0    0  0.41776704303E-02 -0.93088687089E-02  0.21825679090E-01  0.24092908388E-01  0.00000000000E+00 0. -1.
     999901    1    3    3    0    0 -0.18831901828E-01  0.89028001157E-01  0.79596282071E-01  0.88826583500E+00  0.88000000000E+00 0. -1.
        -11    1    4    4    0    0 -0.45824361135E-02 -0.12833226887E-01 -0.22821780960E-01  0.26585432858E-01  0.51100000000E-03 0. -1.
         11    1    4    4    0    0  0.19236667511E-01 -0.66885905561E-01 -0.78600180201E-01  0.10498582375E+00  0.51100000000E-03 0.  1.
</event>
<event>
 8    1  0.1128298E+005  0.1043930E+01  0.7957747E-01            NaN
         13   -1    0    0    0    0  0.00000000000E+00  0.00000000000E+00  0.74505805969E-08  0.10566000000E+00  0.10566000000E+00 0.  1.
     999900   -1    0    0    0    0 -0.00000000000E+00 -0.00000000000E+00 -0.74505805969E-08  0.93827000000E+00  0.93827000000E+00 0. -1.
     999902    2    1    2    0    0  0.18334378305E-01  0.10227749113E-01 -0.11723005364E-01  0.10198845195E+01  0.10196010239E+01 0.  0.
     999903    2    3    3    0    0  0.11733718366E+00 -0.42087914708E-01  0.36904613532E-01  0.13145718452E+00  0.19484189206E-01 0.  0.
         14    1    1    2    0    0 -0.18334378305E-01 -0.10227749113E-01  0.11723005364E-01  0.24045480542E-01  0.00000000000E+00 0.  1.
     999901    1    3    3    0    0 -0.99002805350E-01  0.52315663820E-01 -0.48627618896E-01  0.88842733494E+00  0.88000000000E+00 0.  1.
        -11    1    4    4    0    0  0.97861537872E-01 -0.26997128706E-01  0.30315024042E-01  0.10594804083E+00  0.51100000000E-03 0. -1.
         11    1    4    4    0    0  0.19475645783E-01 -0.15090786002E-01  0.65895894903E-02  0.25509143684E-01  0.51100000000E-03 0.  1.
</event>
<event>
 8    1  0.1604278E+005  0.1043930E+01  0.7957747E-01            NaN
         13   -1    0    0    0    0  0.00000000000E+00  0.00000000000E+00  0.74505805969E-08  0.10566000000E+00  0.10566000000E+00 0. -1.
     999900   -1    0    0    0    0 -0.00000000000E+00 -0.00000000000E+00 -0.74505805969E-08  0.93827000000E+00  0.93827000000E+00 0.  1.
     999902    2    1    2    0    0 -0.14345232389E-01  0.18388094263E-01 -0.49097665955E-02  0.10200969660E+01  0.10198185164E+01 0.  0.
     999903    2    3    3    0    0 -0.10677674643E+00 -0.59860399400E-01 -0.42579447085E-01  0.13100449813E+00  0.19095240817E-01 0.  0.
         14    1    1    2    0    0  0.14345232389E-01 -0.18388094263E-01  0.49097665955E-02  0.23833034027E-01  0.00000000000E+00 0.  1.
     999901    1    3    3    0    0  0.92431514040E-01  0.78248493663E-01  0.37669680489E-01  0.88909246784E+00  0.88000000000E+00 0. -1.
        -11    1    4    4    0    0 -0.48151468385E-01 -0.37481256220E-01 -0.23829874042E-01  0.65509789294E-01  0.51100000000E-03 0. -1.
         11    1    4    4    0    0 -0.58625278044E-01 -0.22379143180E-01 -0.18749573043E-01  0.65494708836E-01  0.51100000000E-03 0.  1.
</event>
<event>
 8    1  0.1128298E+005  0.1043930E+01  0.7957747E-01            NaN
         13   -1    0    0    0    0  0.00000000000E+00  0.00000000000E+00  0.74505805969E-08  0.10566000000E+00  0.10566000000E+00 0. -1.
     999900   -1    0    0    0    0 -0.00000000000E+00 -0.00000000000E+00 -0.74505805969E-08  0.93827000000E+00  0.93827000000E+00 0. -1.
     999902    2    1    2    0    0  0.19934296398E-01  0.12535800569E-01 -0.46103986105E-02  0.10199346204E+01  0.10196523190E+01 0.  0.
     999903    2    3    3    0    0 -0.76038362679E-01  0.83201294973E-01  0.60508565157E-01  0.12951626765E+00  0.20221005064E-01 0.  0.
         14    1    1    2    0    0 -0.19934296398E-01 -0.12535800569E-01  0.46103986105E-02  0.23995379641E-01  0.00000000000E+00 0. -1.
     999901    1    3    3    0    0  0.95972659076E-01 -0.70665494404E-01 -0.65118963767E-01  0.89041835270E+00  0.88000000000E+00 0. -1.
        -11    1    4    4    0    0 -0.63631874407E-01  0.72475398956E-01  0.43241866568E-01  0.10569682606E+00  0.51100000000E-03 0.  1.
         11    1    4    4    0    0 -0.12406488271E-01  0.10725896017E-01  0.17266698589E-01  0.23819441592E-01  0.51100000000E-03 0. -1.
</event>
<event>
 8    1  0.1128298E+005  0.1043930E+01  0.7957747E-01            NaN
         13   -1    0    0    0    0  0.00000000000E+00  0.00000000000E+00  0.74505805969E-08  0.10566000000E+00  0.10566000000E+00 0.  1.
     999900   -1    0    0    0    0 -0.00000000000E+00 -0.00000000000E+00 -0.74505805969E-08  0.93827000000E+00  0.93827000000E+00 0.  1.
     999902    2    1    2    0    0 -0.64350903290E-02 -0.13529165346E-01  0.16840679200E-01  0.10213898763E+01  0.10211411372E+01 0.  0.
     999903    2    3    3    0    0  0.12568431752E+00  0.22028085736E-01 -0.17423373069E-01  0.13015821091E+00  0.18862706791E-01 0.  0.
         14    1    1    2    0    0  0.64350903290E-02  0.13529165346E-01 -0.16840679200E-01  0.22540123745E-01  0.00000000000E+00 0. -1.
     999901    1    3    3    0    0 -0.13211940785E+00 -0.35557251082E-01  0.34264052269E-01  0.89123166534E+00  0.88000000000E+00 0.  1.
        -11    1    4    4    0    0  0.37222232653E-01  0.14570765763E-01 -0.17972305190E-02  0.40016158950E-01  0.51100000000E-03 0. -1.
         11    1    4    4    0    0  0.88462084865E-01  0.74573199737E-02 -0.15626142550E-01  0.90142051961E-01  0.51100000000E-03 0.  1.
</event>
<event>
 8    1  0.1128298E+005  0.1043930E+01  0.7957747E-01            NaN
         13   -1    0    0    0    0  0.00000000000E+00  0.00000000000E+00  0.74505805969E-08  0.10566000000E+00  0.10566000000E+00 0. -1.
     999900   -1    0    0    0    0 -0.00000000000E+00 -0.00000000000E+00 -0.74505805969E-08  0.93827000000E+00  0.93827000000E+00 0. -1.
     999902    2    1    2    0    0  0.43007833354E-02 -0.12881840592E-01 -0.18638188928E-01  0.10208687632E+01  0.10206082555E+01 0.  0.
     999903    2    3    3    0    0  0.72575762533E-03 -0.11592313251E+00 -0.63921628542E-01  0.13369297539E+00  0.18685226692E-01 0.  0.
         14    1    1    2    0    0 -0.43007833354E-02  0.12881840592E-01  0.18638188928E-01  0.23061236758E-01  0.00000000000E+00 0. -1.
     999901    1    3    3    0    0  0.35750257101E-02  0.10304129192E+00  0.45283439614E-01  0.88717578785E+00  0.88000000000E+00 0.  1.
        -11    1    4    4    0    0 -0.27653720573E-02 -0.69091100656E-01 -0.28159027070E-01  0.74662034523E-01  0.51100000000E-03 0. -1.
         11    1    4    4    0    0  0.34911296826E-02 -0.46832031859E-01 -0.35762601471E-01  0.59030940865E-01  0.51100000000E-03 0.  1.
</event>
<event>
 7    1  0.1128298E+005  0.1043930E+01  0.7957747E-01            NaN
         13   -1    0    0    0    0  0.00000000000E+00  0.00000000000E+00  0.74505805969E-08  0.10566000000E+00  0.10566000000E+00 0.  1.
     999900   -1    0    0    0    0 -0.00000000000E+00 -0.00000000000E+00 -0.74505805969E-08  0.93827000000E+00  0.93827000000E+00 0.  1.
     999903    2    1    2    0    0 -0.10288445686E+00  0.23792276225E-01  0.31599796335E-01  0.11199396797E+00  0.19819633240E-01 0.  0.
         14    1    1    2    0    0  0.67464457259E-02 -0.44945993784E-01  0.47820197425E-02  0.45700378554E-01  0.00000000000E+00 0.  1.
     999901    1    1    2    0    0  0.96138011134E-01  0.21153717559E-01 -0.36381816077E-01  0.88623565348E+00  0.88000000000E+00 0. -1.
        -11    1    3    3    0    0 -0.41241821093E-01  0.61880771026E-02  0.22052227053E-01  0.47177769599E-01  0.51100000000E-03 0. -1.
         11    1    3    3    0    0 -0.61642635767E-01  0.17604199123E-01  0.95475692816E-02  0.64816198371E-01  0.51100000000E-03 0.  1.
</event>
<event>
 8    1  0.1128298E+005  0.1043930E+01  0.7957747E-01            NaN
         13   -1    0    0    0    0  0.00000000000E+00  0.00000000000E+00  0.74505805969E-08  0.10566000000E+00  0.10566000000E+00 0. -1.
     999900   -1    0    0    0    0 -0.00000000000E+00 -0.00000000000E+00 -0.74505805969E-08  0.93827000000E+00  0.93827000000E+00 0. -1.
     999902    2    1    2    0    0  0.13285096237E-02 -0.23273062135E-01  0.11679358809E-02  0.10205898108E+01  0.10203228888E+01 0.  0.
     999903    2    3    3    0    0  0.94412079916E-01  0.84934065565E-01 -0.41945851534E-02  0.12907307499E+00  0.22689817450E-01 0.  0.
         14    1    1    2    0    0 -0.13285096237E-02  0.23273062135E-01 -0.11679358809E-02  0.23340189227E-01  0.00000000000E+00 0.  1.
     999901    1    3    3    0    0 -0.93083570293E-01 -0.10820712770E+00  0.53625210343E-02  0.89151673578E+00  0.88000000000E+00 0.  1.
        -11    1    4    4    0    0  0.73638076375E-01  0.57700343801E-01  0.47327669857E-02  0.93672600963E-01  0.51100000000E-03 0. -1.
         11    1    4    4    0    0  0.20774003542E-01  0.27233721764E-01 -0.89273521391E-02  0.35400474029E-01  0.51100000000E-03 0.  1.
</event>
<event>
 8    1  0.1128298E+005  0.1043930E+01  0.7957747E-01            NaN
         13   -1    0    0    0    0  0.00000000000E+00  0.00000000000E+00  0.74505805969E-08  0.10566000000E+00  0.10566000000E+00 0.  1.
     999900   -1    0    0    0    0 -0.00000000000E+00 -0.00000000000E+00 -0.74505805969E-08  0.93827000000E+00  0.93827000000E+00 0.  1.
     999902    2    1    2    0    0  0.15180765202E-01 -0.19739105811E-01  0.50924659117E-02  0.10185130541E+01  0.10181958653E+01 0.  0.
     999903    2    3    3    0    0  0.11505056889E+00  0.39799244459E-01  0.41498400352E-01  0.13011889331E+00  0.19702687742E-01 0.  0.
         14    1    1    2    0    0 -0.15180765202E-01  0.19739105811E-01 -0.50924659117E-02  0.25416945910E-01  0.00000000000E+00 0.  1.
     999901    1    3    3    0    0 -0.99869803685E-01 -0.59538350270E-01 -0.36405934440E-01  0.88839416078E+00  0.88000000000E+00 0.  1.
        -11    1    4    4    0    0  0.45450241145E-01  0.25285723066E-01  0.13778927645E-01  0.53807175908E-01  0.51100000000E-03 0. -1.
         11    1    4    4    0    0  0.69600327743E-01  0.14513521392E-01  0.27719472707E-01  0.76311717405E-01  0.51100000000E-03 0.  1.
</event>
<event>
 8    1  0.1128298E+005  0.1043930E+01  0.7957747E-01            NaN
         13   -1    0    0    0    0  0.00000000000E+00  0.00000000000E+00  0.74505805969E-08  0.10566000000E+00  0.10566000000E+00 0.  1.
     999900   -1    0    0    0    0 -0.00000000000E+00 -0.00000000000E+00 -0.74505805969E-08  0.93827000000E+00  0.93827000000E+00 0. -1.
     999902    2    1    2    0    0  0.97009924036E-03  0.16207234457E-01  0.18244057839E-01  0.10195074451E+01  0.10192148789E+01 0.  0.
     999903    2    3    3    0    0  0.10410662856E+00 -0.11317296362E-01 -0.71647122470E-01  0.12851071796E+00  0.20381932361E-01 0.  0.
         14    1    1    2    0    0 -0.97009924036E-03 -0.16207234457E-01 -0.18244057839E-01  0.24422554897E-01  0.00000000000E+00 0. -1.
     999901    1    3    3    0    0 -0.10313652932E+00  0.27524530819E-01  0.89891180309E-01  0.89099672714E+00  0.88000000000E+00 0.  1.
        -11    1    4    4    0    0  0.88883477994E-01 -0.16761156364E-01 -0.59227361437E-01  0.10811729966E+00  0.51100000000E-03 0.  1.
         11    1    4    4    0    0  0.15223150563E-01  0.54438600022E-02 -0.12419761033E-01  0.20393418299E-01  0.51100000000E-03 0. -1.
</event>
<event>
 8    1  0.1128298E+005  0.1043930E+01  0.7957747E-01            NaN
         13   -1    0    0    0    0  0.00000000000E+00  0.00000000000E+00  0.74505805969E-08  0.10566000000E+00  0.10566000000E+00 0.  1.
     999900   -1    0    0    0    0 -0.00000000000E+00 -0.00000000000E+00 -0.74505805969E-08  0.93827000000E+00  0.93827000000E+00 0.  1.
     999902    2    1    2    0    0 -0.22719816842E-01  0.62413759260E-02  0.60824933114E-02  0.10195960407E+01  0.10193056188E+01 0.  0.
     999903    2    3    3    0    0  0.36627775916E-01 -0.10029325699E+00  0.69280267155E-01  0.12894138068E+00  0.20634749081E-01 0.  0.
         14    1    1    2    0    0  0.22719816842E-01 -0.62413759260E-02 -0.60824933114E-02  0.24333959309E-01  0.00000000000E+00 0. -1.
     999901    1    3    3    0    0 -0.59347592758E-01  0.10653463291E+00 -0.63197773843E-01  0.89065466001E+00  0.88000000000E+00 0.  1.
        -11    1    4    4    0    0  0.24563325524E-01 -0.39146445022E-01  0.33409244235E-01  0.57028412567E-01  0.51100000000E-03 0.  1.
         11    1    4    4    0    0  0.12064450392E-01 -0.61146811965E-01  0.35871022920E-01  0.71912968115E-01  0.51100000000E-03 0. -1.
</event>
<event>
 8    1  0.1128298E+005  0.1043930E+01  0.7957747E-01            NaN
         13   -1    0    0    0    0  0.00000000000E+00  0.00000000000E+00  0.74505805969E-08  0.10566000000E+00  0.10566000000E+00 0.  1.
     999900   -1    0    0    0    0 -0.00000000000E+00 -0.00000000000E+00 -0.74505805969E-08  0.93827000000E+00  0.93827000000E+00 0.  1.
     999902    2    1    2    0    0  0.18813965545E-01  0.13955170990E-01 -0.21544135686E-02  0.10204065310E+01  0.10201353513E+01 0.  0.
     999903    2    3    3    0    0  0.63525188237E-01  0.85767061057E-01 -0.77286636527E-01  0.13316310783E+00  0.19176829753E-01 0.  0.
         14    1    1    2    0    0 -0.18813965545E-01 -0.13955170990E-01  0.21544135686E-02  0.23523469019E-01  0.00000000000E+00 0.  1.
     999901    1    3    3    0    0 -0.44711222692E-01 -0.71811890068E-01  0.75132222959E-01  0.88724342315E+00  0.88000000000E+00 0.  1.
        -11    1    4    4    0    0  0.20827806226E-01  0.18491785313E-01 -0.12806721382E-01  0.30659694548E-01  0.51100000000E-03 0.  1.
         11    1    4    4    0    0  0.42697382011E-01  0.67275275745E-01 -0.64479915145E-01  0.10250341329E+00  0.51100000000E-03 0. -1.
</event>
<event>
 8    1  0.1128298E+005  0.1043930E+01  0.7957747E-01            NaN
         13   -1    0    0    0    0  0.00000000000E+00  0.00000000000E+00  0.74505805969E-08  0.10566000000E+00  0.10566000000E+00 0. -1.
     999900   -1    0    0    0    0 -0.00000000000E+00 -0.00000000000E+00 -0.74505805969E-08  0.93827000000E+00  0.93827000000E+00 0.  1.
     999902    2    1    2    0    0 -0.12771888540E-01  0.15560608801E-01 -0.12718220652E-01  0.10201180950E+01  0.10198401448E+01 0.  0.
     999903    2    3    3    0    0 -0.11424244174E+00  0.43504524049E-01 -0.44566684495E-01  0.13327455738E+00  0.28843355771E-01 0.  0.
         14    1    1    2    0    0  0.12771888540E-01 -0.15560608801E-01  0.12718220652E-01  0.23811904999E-01  0.00000000000E+00 0. -1.
     999901    1    3    3    0    0  0.10147055320E+00 -0.27943915249E-01  0.31848463843E-01  0.88684353762E+00  0.88000000000E+00 0. -1.
        -11    1    4    4    0    0 -0.10874222338E+00  0.38345467164E-01 -0.33871517590E-01  0.12017814619E+00  0.51100000000E-03 0. -1.
         11    1    4    4    0    0 -0.55002183562E-02  0.51590568850E-02 -0.10695166905E-01  0.13096411189E-01  0.51100000000E-03 0.  1.
</event>
<event>
 8    1  0.1128298E+005  0.1043930E+01  0.7957747E-01            NaN
         13   -1    0    0    0    0  0.00000000000E+00  0.00000000000E+00  0.74505805969E-08  0.10566000000E+00  0.10566000000E+00 0.  1.
     999900   -1    0    0    0    0 -0.00000000000E+00 -0.00000000000E+00 -0.74505805969E-08  0.93827000000E+00  0.93827000000E+00 0. -1.
     999902    2    1    2    0    0  0.47888664558E-02  0.22377228680E-01  0.49275074501E-02  0.10205215841E+01  0.10202530812E+01 0.  0.
     999903    2    3    3    0    0 -0.58686073926E-01 -0.11512201761E-01 -0.11328583498E+00  0.12970625201E+00  0.20333355427E-01 0.  0.
         14    1    1    2    0    0 -0.47888664558E-02 -0.22377228680E-01 -0.49275074501E-02  0.23408415901E-01  0.00000000000E+00 0. -1.
     999901    1    3    3    0    0  0.63474940382E-01  0.33889430441E-01  0.11821334243E+00  0.89081533209E+00  0.88000000000E+00 0.  1.
        -11    1    4    4    0    0 -0.33436856096E-01  0.23910953707E-02 -0.71137732734E-01  0.78642093196E-01  0.51100000000E-03 0.  1.
         11    1    4    4    0    0 -0.25249217830E-01 -0.13903297131E-01 -0.42148102241E-01  0.51064158817E-01  0.51100000000E-03 0. -1.
</event>
<event>
 8    1  0.1128298E+005  0.1043930E+01  0.7957747E-01            NaN
         13   -1    0    0    0    0  0.00000000000E+00  0.00000000000E+00  0.74505805969E-08  0.10566000000E+00  0.10566000000E+00 0. -1.
     999900   -1    0    0    0    0 -0.00000000000E+00 -0.00000000000E+00 -0.74505805969E-08  0.93827000000E+00  0.93827000000E+00 0. -1.
     999902    2    1    2    0    0  0.78592552668E-02 -0.22267565784E-01  0.48107303567E-02  0.10198311306E+01  0.10195463596E+01 0.  0.
     999903    2    3    3    0    0  0.58117705310E-01 -0.11542644188E+00  0.25267690759E-01  0.13325176291E+00  0.20411882996E-01 0.  0.
         14    1    1    2    0    0 -0.78592552668E-02  0.22267565784E-01 -0.48107303567E-02  0.24098869389E-01  0.00000000000E+00 0.  1.
     999901    1    3    3    0    0 -0.50258450043E-01  0.93158876098E-01 -0.20456960403E-01  0.88657936770E+00  0.88000000000E+00 0. -1.
        -11    1    4    4    0    0  0.39245369677E-01 -0.63558111247E-01  0.22373217652E-01  0.77978551766E-01  0.51100000000E-03 0.  1.
         11    1    4    4    0    0  0.18872335632E-01 -0.51868330635E-01  0.28944731072E-02  0.55273211148E-01  0.51100000000E-03 0. -1.
</event>
<event>
 8    1  0.1128298E+005  0.1043930E+01  0.7957747E-01            NaN
         13   -1    0    0    0    0  0.00000000000E+00  0.00000000000E+00  0.74505805969E-08  0.10566000000E+00  0.10566000000E+00 0.  1.
     999900   -1    0    0    0    0 -0.00000000000E+00 -0.00000000000E+00 -0.74505805969E-08  0.93827000000E+00  0.93827000000E+00 0. -1.
     999902    2    1    2    0    0  0.84680229401E-02 -0.16441503874E-01 -0.14533594438E-01  0.10204086091E+01  0.10201374779E+01 0.  0.
     999903    2    3    3    0    0 -0.19999020797E-01 -0.11309819820E+00 -0.63690679117E-01  0.13329570304E+00  0.22805231290E-01 0.  0.
         14    1    1    2    0    0 -0.84680229401E-02  0.16441503874E-01  0.14533594438E-01  0.23521390891E-01  0.00000000000E+00 0.  1.
     999901    1    3    3    0    0  0.28467043737E-01  0.96656694325E-01  0.49157084679E-01  0.88711290607E+00  0.88000000000E+00 0.  1.
        -11    1    4    4    0    0 -0.18021988213E-01 -0.64771411088E-01 -0.47374614981E-01  0.82248057844E-01  0.51100000000E-03 0.  1.
         11    1    4    4    0    0 -0.19770325836E-02 -0.48326787111E-01 -0.16316064136E-01  0.51047645198E-01  0.51100000000E-03 0. -1.
</event>
<event>
 8    1  0.1128298E+005  0.1043930E+01  0.7957747E-01            NaN
         13   -1    0    0    0    0  0.00000000000E+00  0.00000000000E+00  0.74505805969E-08  0.10566000000E+00  0.10566000000E+00 0. -1.
     999900   -1    0    0    0    0 -0.00000000000E+00 -0.00000000000E+00 -0.74505805969E-08  0.93827000000E+00  0.93827000000E+00 0. -1.
     999902    2    1    2    0    0 -0.62921597336E-02  0.20443104774E-01 -0.11202245551E-01  0.10197845633E+01  0.10194986775E+01 0.  0.
     999903    2    3    3    0    0  0.10806552740E-01  0.12999635571E+00 -0.55460750113E-02  0.13280864876E+00  0.24321680776E-01 0.  0.
         14    1    1    2    0    0  0.62921597336E-02 -0.20443104774E-01  0.11202245551E-01  0.24145436677E-01  0.00000000000E+00 0. -1.
     999901    1    3    3    0    0 -0.17098712474E-01 -0.10955325094E+00 -0.56561705397E-02  0.88697591457E+00  0.88000000000E+00 0. -1.
        -11    1    4    4    0    0 -0.50151951003E-02  0.75917114452E-01 -0.72933151078E-02  0.76433068857E-01  0.51100000000E-03 0.  1.
         11    1    4    4    0    0  0.15821747840E-01  0.54079241259E-01  0.17472400965E-02  0.56375579898E-01  0.51100000000E-03 0. -1.
</event>
<event>
 8    1  0.1128298E+005  0.1043930E+01  0.7957747E-01            NaN
         13   -1    0    0    0    0  0.00000000000E+00  0.00000000000E+00  0.74505805969E-08  0.10566000000E+00  0.10566000000E+00 0. -1.
     999900   -1    0    0    0    0 -0.00000000000E+00 -0.00000000000E+00 -0.74505805969E-08  0.93827000000E+00  0.93827000000E+00 0.  1.
     999902    2    1    2    0    0  0.78515765285E-02 -0.22333309678E-01 -0.10659292753E-03  0.10202564845E+01  0.10199817934E+01 0.  0.
     999903    2    3    3    0    0  0.90756743871E-01  0.87893404776E-01 -0.18956687882E-01  0.12931399395E+00  0.20017888346E-01 0.  0.
         14    1    1    2    0    0 -0.78515765285E-02  0.22333309678E-01  0.10659292753E-03  0.23673515523E-01  0.00000000000E+00 0.  1.
     999901    1    3    3    0    0 -0.82905167343E-01 -0.11022671445E+00  0.18850094955E-01  0.89094249053E+00  0.88000000000E+00 0.  1.
        -11    1    4    4    0    0  0.35831814053E-01  0.46333475578E-01 -0.32329718170E-02  0.58663643641E-01  0.51100000000E-03 0. -1.
         11    1    4    4    0    0  0.54924929818E-01  0.41559929198E-01 -0.15723716065E-01  0.70650350306E-01  0.51100000000E-03 0.  1.
</event>
<event>
 8    1  0.1128298E+005  0.1043930E+01  0.7957747E-01            NaN
         13   -1    0    0    0    0  0.00000000000E+00  0.00000000000E+00  0.74505805969E-08  0.10566000000E+00  0.10566000000E+00 0.  1.
     999900   -1    0    0    0    0 -0.00000000000E+00 -0.00000000000E+00 -0.74505805969E-08  0.93827000000E+00  0.93827000000E+00 0.  1.
     999902    2    1    2    0    0 -0.12727723862E-01  0.17056276678E-01  0.10112149199E-01  0.10203680160E+01  0.10200959371E+01 0.  0.
     999903    2    3    3    0    0 -0.85537017835E-01 -0.44489279174E-01  0.87625330037E-01  0.13183138651E+00  0.20135506532E-01 0.  0.
         14    1    1    2    0    0  0.12727723862E-01 -0.17056276678E-01 -0.10112149199E-01  0.23561984005E-01  0.00000000000E+00 0.  1.
     999901    1    3    3    0    0  0.72809293974E-01  0.61545555852E-01 -0.77513180838E-01  0.88853662949E+00  0.88000000000E+00 0.  1.
        -11    1    4    4    0    0 -0.34796821648E-01 -0.25190316442E-01  0.28457014191E-01  0.51530899633E-01  0.51100000000E-03 0.  1.
         11    1    4    4    0    0 -0.50740196187E-01 -0.19298962732E-01  0.59168315846E-01  0.80300486877E-01  0.51100000000E-03 0. -1.
</event>
<event>
 8    1  0.1128298E+005  0.1043930E+01  0.7957747E-01            NaN
         13   -1    0    0    0    0  0.00000000000E+00  0.00000000000E+00  0.74505805969E-08  0.10566000000E+00  0.10566000000E+00 0.  1.
     999900   -1    0    0    0    0 -0.00000000000E+00 -0.00000000000E+00 -0.74505805969E-08  0.93827000000E+00  0.93827000000E+00 0. -1.
     999902    2    1    2    0    0  0.12344443443E-01  0.19762893224E-01 -0.18791788727E-02  0.10205529055E+01  0.10202851290E+01 0.  0.
     999903    2    3    3    0    0 -0.12115959260E-01 -0.12638669958E+00  0.17638089579E-02  0.12815653276E+00  0.17337576740E-01 0.  0.
         14    1    1    2    0    0 -0.12344443443E-01 -0.19762893224E-01  0.18791788727E-02  0.23377094467E-01  0.00000000000E+00 0. -1.
     999901    1    3    3    0    0  0.24460402703E-01  0.14614959281E+00 -0.36429878305E-02  0.89239637277E+00  0.88000000000E+00 0.  1.
        -11    1    4    4    0    0  0.39800371156E-02 -0.20692573587E-01  0.26116172261E-02  0.21239231687E-01  0.51100000000E-03 0. -1.
         11    1    4    4    0    0 -0.16095996376E-01 -0.10569412599E+00 -0.84780826821E-03  0.10691730107E+00  0.51100000000E-03 0.  1.
</event>
<event>
 8    1  0.1128298E+005  0.1043930E+01  0.7957747E-01            NaN
         13   -1    0    0    0    0  0.00000000000E+00  0.00000000000E+00  0.74505805969E-08  0.10566000000E+00  0.10566000000E+00 0. -1.
     999900   -1    0    0    0    0 -0.00000000000E+00 -0.00000000000E+00 -0.74505805969E-08  0.93827000000E+00  0.93827000000E+00 0.  1.
     999902    2    1    2    0    0 -0.11795255391E-01  0.18676487603E-01  0.43210978486E-02  0.10214219764E+01  0.10211739532E+01 0.  0.
     999903    2    3    3    0    0 -0.84107409455E-01 -0.26521143825E-01 -0.95655570204E-01  0.13166515140E+00  0.20206350166E-01 0.  0.
         14    1    1    2    0    0  0.11795255391E-01 -0.18676487603E-01 -0.43210978486E-02  0.22508023582E-01  0.00000000000E+00 0.  1.
     999901    1    3    3    0    0  0.72312154064E-01  0.45197631428E-01  0.99976668053E-01  0.88975682502E+00  0.88000000000E+00 0. -1.
        -11    1    4    4    0    0 -0.26234629108E-01 -0.15792722563E-01 -0.42284404665E-01  0.52210131672E-01  0.51100000000E-03 0. -1.
         11    1    4    4    0    0 -0.57872780347E-01 -0.10728421262E-01 -0.53371165539E-01  0.79455019728E-01  0.51100000000E-03 0.  1.
</event>
<event>
 8    1  0.1128298E+005  0.1043930E+01  0.7957747E-01            NaN
         13   -1    0    0    0    0  0.00000000000E+00  0.00000000000E+00  0.74505805969E-08  0.10566000000E+00  0.10566000000E+00 0. -1.
     999900   -1    0    0    0    0 -0.00000000000E+00 -0.00000000000E+00 -0.74505805969E-08  0.93827000000E+00  0.93827000000E+00 0. -1.
     999902    2    1    2    0    0 -0.16407897177E-02  0.16701848623E-01  0.14992855933E-02  0.10270809111E+01  0.10269426986E+01 0.  0.
     999903    2    3    3    0    0 -0.87951159867E-01  0.36878488077E-01  0.96885664771E-01  0.13749947129E+00  0.20587451595E-01 0.  0.
         14    1    1    2    0    0  0.16407897177E-02 -0.16701848623E-01 -0.14992855933E-02  0.16849088866E-01  0.00000000000E+00 0.  1.
     999901    1    3    3    0    0  0.86310370150E-01 -0.20176639454E-01 -0.95386379178E-01  0.88958143984E+00  0.88000000000E+00 0. -1.
        -11    1    4    4    0    0 -0.64515041981E-01  0.25798085870E-01  0.56734050640E-01  0.89703653768E-01  0.51100000000E-03 0.  1.
         11    1    4    4    0    0 -0.23436117887E-01  0.11080402207E-01  0.40151614130E-01  0.47795817526E-01  0.51100000000E-03 0. -1.
</event>
<event>
 8    1  0.1128298E+005  0.1043930E+01  0.7957747E-01            NaN
         13   -1    0    0    0    0  0.00000000000E+00  0.00000000000E+00  0.74505805969E-08  0.10566000000E+00  0.10566000000E+00 0. -1.
     999900   -1    0    0    0    0 -0.00000000000E+00 -0.00000000000E+00 -0.74505805969E-08  0.93827000000E+00  0.93827000000E+00 0.  1.
     999902    2    1    2    0    0  0.75665071842E-02 -0.10687703912E-01  0.17937148670E-01  0.10217214352E+01  0.10214800394E+01 0.  0.
     999903    2    3    3    0    0  0.26235712450E-01 -0.14229100684E-01 -0.12472219357E+00  0.13003047497E+00  0.21482991840E-01 0.  0.
         14    1    1    2    0    0 -0.75665071842E-02  0.10687703912E-01 -0.17937148670E-01  0.22208564751E-01  0.00000000000E+00 0.  1.
     999901    1    3    3    0    0 -0.18669205266E-01  0.35413967718E-02  0.14265934224E+00  0.89169096028E+00  0.88000000000E+00 0. -1.
        -11    1    4    4    0    0  0.23347986099E-02 -0.95205066137E-02 -0.17406428278E-01  0.19983398037E-01  0.51100000000E-03 0.  1.
         11    1    4    4    0    0  0.23900913840E-01 -0.47085940699E-02 -0.10731576529E+00  0.11004707693E+00  0.51100000000E-03 0. -1.
</event>
<event>
 8    1  0.1128298E+005  0.1043930E+01  0.7957747E-01            NaN
         13   -1    0    0    0    0  0.00000000000E+00  0.00000000000E+00  0.74505805969E-08  0.10566000000E+00  0.10566000000E+00 0.  1.
     999900   -1    0    0    0    0 -0.00000000000E+00 -0.00000000000E+00 -0.74505805969E-08  0.93827000000E+00  0.93827000000E+00 0. -1.
     999902    2    1    2    0    0  0.10385181637E-01 -0.25679899418E-01 -0.22939989504E-01  0.10079640112E+01  0.10073221409E+01 0.  0.
     999903    2    3    3    0    0  0.48477564763E-01 -0.93002990078E-03 -0.11064328396E+00  0.12243848726E+00  0.19957646051E-01 0.  0.
         14    1    1    2    0    0 -0.10385181637E-01  0.25679899418E-01  0.22939989504E-01  0.35965988797E-01  0.00000000000E+00 0. -1.
     999901    1    3    3    0    0 -0.38092383126E-01 -0.24749869517E-01  0.87703294459E-01  0.88552552394E+00  0.88000000000E+00 0.  1.
        -11    1    4    4    0    0  0.15583310995E-03  0.30669598355E-02 -0.27656671627E-02  0.41642000967E-02  0.51100000000E-03 0.  1.
         11    1    4    4    0    0  0.48321731653E-01 -0.39969897363E-02 -0.10787761680E+00  0.11827428716E+00  0.51100000000E-03 0. -1.
</event>
<event>
 8    1  0.1128298E+005  0.1043930E+01  0.7957747E-01            NaN
         13   -1    0    0    0    0  0.00000000000E+00  0.00000000000E+00  0.74505805969E-08  0.10566000000E+00  0.10566000000E+00 0.  1.
     999900   -1    0    0    0    0 -0.00000000000E+00 -0.00000000000E+00 -0.74505805969E-08  0.93827000000E+00  0.93827000000E+00 0.  1.
     999902    2    1    2    0    0  0.17385661604E-01 -0.65118634209E-02 -0.16252570864E-01  0.10192558910E+01  0.10189571923E+01 0.  0.
     999903    2    3    3    0    0  0.96689017232E-01 -0.50254375367E-01  0.69086318797E-01  0.13050105662E+00  0.19579020341E-01 0.  0.
         14    1    1    2    0    0 -0.17385661604E-01  0.65118634209E-02  0.16252570864E-01  0.24674108988E-01  0.00000000000E+00 0.  1.
     999901    1    3    3    0    0 -0.79303355628E-01  0.43742511946E-01 -0.85338889661E-01  0.88875483439E+00  0.88000000000E+00 0.  1.
        -11    1    4    4    0    0  0.26775313671E-01 -0.18650819471E-01  0.30281840203E-01  0.44519899553E-01  0.51100000000E-03 0.  1.
         11    1    4    4    0    0  0.69913703561E-01 -0.31603555896E-01  0.38804478594E-01  0.85981157068E-01  0.51100000000E-03 0. -1.
</event>
<event>
 8    1  0.1128298E+005  0.1043930E+01  0.7957747E-01            NaN
         13   -1    0    0    0    0  0.00000000000E+00  0.00000000000E+00  0.74505805969E-08  0.10566000000E+00  0.10566000000E+00 0. -1.
     999900   -1    0    0    0    0 -0.00000000000E+00 -0.00000000000E+00 -0.74505805969E-08  0.93827000000E+00  0.93827000000E+00 0. -1.
     999902    2    1    2    0    0  0.15475610656E-01 -0.12453144342E-01  0.12766980838E-01  0.10203170559E+01  0.10200437851E+01 0.  0.
     999903    2    3    3    0    0 -0.35018825015E-01 -0.35883162458E-01 -0.11717674483E+00  0.12903481911E+00  0.20141389244E-01 0.  0.
         14    1    1    2    0    0 -0.15475610656E-01  0.12453144342E-01 -0.12766980838E-01  0.23612944096E-01  0.00000000000E+00 0.  1.
     999901    1    3    3    0    0  0.50494435671E-01  0.23430018116E-01  0.12994372567E+00  0.89128223679E+00  0.88000000000E+00 0.  1.
        -11    1    4    4    0    0 -0.28214807116E-01 -0.34249413734E-01 -0.11151042158E+00  0.12001638606E+00  0.51100000000E-03 0.  1.
         11    1    4    4    0    0 -0.68040178990E-02 -0.16337487239E-02 -0.56663232493E-02  0.90184330473E-02  0.51100000000E-03 0. -1.
</event>
<event>
 8    1  0.1128298E+005  0.1043930E+01  0.7957747E-01            NaN
         13   -1    0    0    0    0  0.00000000000E+00  0.00000000000E+00  0.74505805969E-08  0.10566000000E+00  0.10566000000E+00 0. -1.
     999900   -1    0    0    0    0 -0.00000000000E+00 -0.00000000000E+00 -0.74505805969E-08  0.93827000000E+00  0.93827000000E+00 0.  1.
     999902    2    1    2    0    0  0.22979394973E-01  0.18857209582E-02 -0.54937043527E-02  0.10202279046E+01  0.10199525421E+01 0.  0.
     999903    2    3    3    0    0 -0.78917257202E-01 -0.49060344609E-01  0.86538168529E-01  0.12812460628E+00  0.17094128374E-01 0.  0.
         14    1    1    2    0    0 -0.22979394973E-01 -0.18857209582E-02  0.54937043527E-02  0.23702095358E-01  0.00000000000E+00 0.  1.
     999901    1    3    3    0    0  0.10189665217E+00  0.50946065567E-01 -0.92031872882E-01  0.89210329836E+00  0.88000000000E+00 0. -1.
        -11    1    4    4    0    0 -0.86114364479E-02 -0.12635932179E-01  0.14174171192E-01  0.20856458705E-01  0.51100000000E-03 0. -1.
         11    1    4    4    0    0 -0.70305820754E-01 -0.36424412429E-01  0.72363997338E-01  0.10726814758E+00  0.51100000000E-03 0.  1.
</event>
<event>
 8    1  0.1128298E+005  0.1043930E+01  0.7957747E-01            NaN
         13   -1    0    0    0    0  0.00000000000E+00  0.00000000000E+00  0.74505805969E-08  0.10566000000E+00  0.10566000000E+00 0.  1.
     999900   -1    0    0    0    0 -0.00000000000E+00 -0.00000000000E+00 -0.74505805969E-08  0.93827000000E+00  0.93827000000E+00 0. -1.
     999902    2    1    2    0    0  0.84800567658E-02 -0.21890937027E-01  0.89432114138E-02  0.10188081864E+01  0.10184984120E+01 0.  0.
     999903    2    3    3    0    0  0.32383168865E-01  0.11810312053E+00  0.27133070893E-01  0.12723622304E+00  0.21350321101E-01 0.  0.
         14    1    1    2    0    0 -0.84800567658E-02  0.21890937027E-01 -0.89432114138E-02  0.25121813570E-01  0.00000000000E+00 0. -1.
     999901    1    3    3    0    0 -0.23903112099E-01 -0.13999405756E+00 -0.18189859479E-01  0.89157196339E+00  0.88000000000E+00 0. -1.
        -11    1    4    4    0    0  0.72976530865E-02  0.71122315619E-02  0.47918962132E-02  0.11272221107E-01  0.51100000000E-03 0.  1.
         11    1    4    4    0    0  0.25085515778E-01  0.11099088897E+00  0.22341174679E-01  0.11596400193E+00  0.51100000000E-03 0. -1.
</event>
<event>
 8    1  0.1128298E+005  0.1043930E+01  0.7957747E-01            NaN
         13   -1    0    0    0    0  0.00000000000E+00  0.00000000000E+00  0.74505805969E-08  0.10566000000E+00  0.10566000000E+00 0. -1.
     999900   -1    0    0    0    0 -0.00000000000E+00 -0.00000000000E+00 -0.74505805969E-08  0.93827000000E+00  0.93827000000E+00 0.  1.
     999902    2    1    2    0    0 -0.12930662507E-01 -0.20663475943E-01  0.13721314590E-01  0.10159575896E+01  0.10155724337E+01 0.  0.
     999903    2    3    3    0    0 -0.10281561460E+00 -0.75595278163E-01  0.12818312275E-01  0.12967455187E+00  0.19117625054E-01 0.  0.
         14    1    1    2    0    0  0.12930662507E-01  0.20663475943E-01 -0.13721314590E-01  0.27972410425E-01  0.00000000000E+00 0.  1.
     999901    1    3    3    0    0  0.89884952092E-01  0.54931802220E-01  0.90300231511E-03  0.88628303770E+00  0.88000000000E+00 0. -1.
        -11    1    4    4    0    0 -0.22631981061E-01 -0.26539691780E-01  0.64530230913E-03  0.34888957315E-01  0.51100000000E-03 0.  1.
         11    1    4    4    0    0 -0.80183633538E-01 -0.49055586384E-01  0.12173009966E-01  0.94785594556E-01  0.51100000000E-03 0. -1.
</event>
<event>
 8    1  0.1128298E+005  0.1043930E+01  0.7957747E-01            NaN
         13   -1    0    0    0    0  0.00000000000E+00  0.00000000000E+00  0.74505805969E-08  0.10566000000E+00  0.10566000000E+00 0.  1.
     999900   -1    0    0    0    0 -0.00000000000E+00 -0.00000000000E+00 -0.74505805969E-08  0.93827000000E+00  0.93827000000E+00 0.  1.
     999902    2    1    2    0    0 -0.10071567126E-01 -0.15083104541E-01 -0.14706116205E-01  0.10205803456E+01  0.10203132046E+01 0.  0.
     999903    2    3    3    0    0  0.75420027997E-02  0.16493735383E-01 -0.12955426300E+00  0.13238136367E+00  0.20287761669E-01 0.  0.
         14    1    1    2    0    0  0.10071567126E-01  0.15083104541E-01  0.14706116205E-01  0.23349654404E-01  0.00000000000E+00 0. -1.
     999901    1    3    3    0    0 -0.17613569926E-01 -0.31576839924E-01  0.11484814680E+00  0.88819898192E+00  0.88000000000E+00 0. -1.
        -11    1    4    4    0    0 -0.35283165155E-02  0.15686073600E-01 -0.78762287845E-01  0.80388189617E-01  0.51100000000E-03 0. -1.
         11    1    4    4    0    0  0.11070319315E-01  0.80766178335E-03 -0.50791975155E-01  0.51993174056E-01  0.51100000000E-03 0.  1.
</event>
<event>
 8    1  0.1128298E+005  0.1043930E+01  0.7957747E-01            NaN
         13   -1    0    0    0    0  0.00000000000E+00  0.00000000000E+00  0.74505805969E-08  0.10566000000E+00  0.10566000000E+00 0. -1.
     999900   -1    0    0    0    0 -0.00000000000E+00 -0.00000000000E+00 -0.74505805969E-08  0.93827000000E+00  0.93827000000E+00 0. -1.
     999902    2    1    2    0    0  0.20745418450E-01 -0.67564010050E-02 -0.94611283245E-02  0.10201490351E+01  0.10198718153E+01 0.  0.
     999903    2    3    3    0    0 -0.60826265519E-01 -0.58305621098E-01  0.94781323318E-01  0.12875812736E+00  0.22266029808E-01 0.  0.
         14    1    1    2    0    0 -0.20745418450E-01  0.67564010050E-02  0.94611283245E-02  0.23780964874E-01  0.00000000000E+00 0.  1.
     999901    1    3    3    0    0  0.81571683969E-01  0.51549220093E-01 -0.10424245164E+00  0.89139090776E+00  0.88000000000E+00 0. -1.
        -11    1    4    4    0    0 -0.36290991433E-01 -0.42091545945E-01  0.74848440355E-01  0.93227058539E-01  0.51100000000E-03 0.  1.
         11    1    4    4    0    0 -0.24535274086E-01 -0.16214075153E-01  0.19932882963E-01  0.35531068824E-01  0.51100000000E-03 0. -1.
</event>
<event>
 8    1  0.1128298E+005  0.1043930E+01  0.7957747E-01            NaN
         13   -1    0    0    0    0  0.00000000000E+00  0.00000000000E+00  0.74505805969E-08  0.10566000000E+00  0.10566000000E+00 0.  1.
     999900   -1    0    0    0    0 -0.00000000000E+00 -0.00000000000E+00 -0.74505805969E-08  0.93827000000E+00  0.93827000000E+00 0.  1.
     999902    2    1    2    0    0  0.14547070346E-01 -0.69498912008E-02 -0.18028808252E-01  0.10197441328E+01  0.10194572773E+01 0.  0.
     999903    2    3    3    0    0 -0.92859076776E-01  0.85601557575E-01  0.68395139259E-02  0.12804895815E+00  0.19983041166E-01 0.  0.
         14    1    1    2    0    0 -0.14547070346E-01  0.69498912008E-02  0.18028808252E-01  0.24185867162E-01  0.00000000000E+00 0.  1.
     999901    1    3    3    0    0  0.10740614712E+00 -0.92551448776E-01 -0.24868322178E-01  0.89169517469E+00  0.88000000000E+00 0. -1.
        -11    1    4    4    0    0 -0.52502687187E-01  0.41111718081E-01  0.12008960605E-01  0.67758259875E-01  0.51100000000E-03 0. -1.
         11    1    4    4    0    0 -0.40356389588E-01  0.44489839494E-01 -0.51694466793E-02  0.60290698277E-01  0.51100000000E-03 0.  1.
</event>
<event>
 8    1  0.1128298E+005  0.1043930E+01  0.7957747E-01            NaN
         13   -1    0    0    0    0  0.00000000000E+00  0.00000000000E+00  0.74505805969E-08  0.10566000000E+00  0.10566000000E+00 0. -1.
     999900   -1    0    0    0    0 -0.00000000000E+00 -0.00000000000E+00 -0.74505805969E-08  0.93827000000E+00  0.93827000000E+00 0.  1.
     999902    2    1    2    0    0  0.17965774218E-01  0.21858532337E-02 -0.15638235271E-01  0.10200113587E+01  0.10197308814E+01 0.  0.
     999903    2    3    3    0    0  0.66024698955E-01 -0.15722494464E-01 -0.11293086680E+00  0.13316513457E+00  0.19316176741E-01 0.  0.
         14    1    1    2    0    0 -0.17965774218E-01 -0.21858532337E-02  0.15638235271E-01  0.23918641266E-01  0.00000000000E+00 0.  1.
     999901    1    3    3    0    0 -0.48058924737E-01  0.17908347698E-01  0.97292631531E-01  0.88684622416E+00  0.88000000000E+00 0. -1.
        -11    1    4    4    0    0  0.33945654329E-01 -0.11762162144E-01 -0.42378815311E-01  0.55559706751E-01  0.51100000000E-03 0.  1.
         11    1    4    4    0    0  0.32079044626E-01 -0.39603323204E-02 -0.70552051491E-01  0.77605427818E-01  0.51100000000E-03 0. -1.
</event>
<event>
 8    1  0.1128298E+005  0.1043930E+01  0.7957747E-01            NaN
         13   -1    0    0    0    0  0.00000000000E+00  0.00000000000E+00  0.74505805969E-08  0.10566000000E+00  0.10566000000E+00 0.  1.
     999900   -1    0    0    0    0 -0.00000000000E+00 -0.00000000000E+00 -0.74505805969E-08  0.93827000000E+00  0.93827000000E+00 0. -1.
     999902    2    1    2    0    0  0.14340718942E-03  0.16907937823E-01 -0.17399893512E-01  0.10196677820E+01  0.10193790907E+01 0.  0.
     999903    2    3    3    0    0  0.95352595446E-01  0.88374943748E-01 -0.17878096824E-02  0.13151460851E+00  0.19764813329E-01 0.  0.
         14    1    1    2    0    0 -0.14340718942E-03 -0.16907937823E-01  0.17399893512E-01  0.24262217979E-01  0.00000000000E+00 0.  1.
     999901    1    3    3    0    0 -0.95209188257E-01 -0.71467005925E-01 -0.15612083830E-01  0.88815317352E+00  0.88000000000E+00 0. -1.
        -11    1    4    4    0    0  0.58621260514E-01  0.54574408126E-01 -0.10701050700E-01  0.80805889721E-01  0.51100000000E-03 0. -1.
         11    1    4    4    0    0  0.36731334932E-01  0.33800535622E-01  0.89132410178E-02  0.50708718784E-01  0.51100000000E-03 0.  1.
</event>
<event>
 8    1  0.1128298E+005  0.1043930E+01  0.7957747E-01            NaN
         13   -1    0    0    0    0  0.00000000000E+00  0.00000000000E+00  0.74505805969E-08  0.10566000000E+00  0.10566000000E+00 0.  1.
     999900   -1    0    0    0    0 -0.00000000000E+00 -0.00000000000E+00 -0.74505805969E-08  0.93827000000E+00  0.93827000000E+00 0. -1.
     999902    2    1    2    0    0 -0.91774864968E-02 -0.14903662037E-01  0.16545784271E-01  0.10198445609E+01  0.10195601110E+01 0.  0.
     999903    2    3    3    0    0 -0.93360899324E-01  0.82915600413E-01  0.31385395120E-01  0.13030778865E+00  0.20095333815E-01 0.  0.
         14    1    1    2    0    0  0.91774864968E-02  0.14903662037E-01 -0.16545784271E-01  0.24085439121E-01  0.00000000000E+00 0.  1.
     999901    1    3    3    0    0  0.84183412827E-01 -0.97819262450E-01 -0.14839610850E-01  0.88953677223E+00  0.88000000000E+00 0. -1.
        -11    1    4    4    0    0 -0.33421555394E-01  0.19411335989E-01  0.14980689292E-01  0.41454583613E-01  0.51100000000E-03 0.  1.
         11    1    4    4    0    0 -0.59939343930E-01  0.63504264424E-01  0.16404705828E-01  0.88853205036E-01  0.51100000000E-03 0. -1.
</event>
<event>
 8    1  0.1128298E+005  0.1043930E+01  0.7957747E-01            NaN
         13   -1    0    0    0    0  0.00000000000E+00  0.00000000000E+00  0.74505805969E-08  0.10566000000E+00  0.10566000000E+00 0. -1.
     999900   -1    0    0    0    0 -0.00000000000E+00 -0.00000000000E+00 -0.74505805969E-08  0.93827000000E+00  0.93827000000E+00 0. -1.
     999902    2    1    2    0    0  0.13835866672E-02 -0.22722795510E-01 -0.10795558320E-01  0.10187350833E+01  0.10184234807E+01 0.  0.
     999903    2    3    3    0    0  0.26140965747E-01  0.37476907681E-01  0.11676614046E+00  0.12715843541E+00  0.21143969307E-01 0.  0.
         14    1    1    2    0    0 -0.13835866672E-02  0.22722795510E-01  0.10795558320E-01  0.25194916695E-01  0.00000000000E+00 0. -1.
     999901    1    3    3    0    0 -0.24757379080E-01 -0.60199703190E-01 -0.12756169878E+00  0.89157664790E+00  0.88000000000E+00 0. -1.
        -11    1    4    4    0    0  0.14408723153E-01  0.19924316887E-01  0.88625967514E-01  0.91975066975E-01  0.51100000000E-03 0.  1.
         11    1    4    4    0    0  0.11732242594E-01  0.17552590793E-01  0.28140172944E-01  0.35183368431E-01  0.51100000000E-03 0. -1.
</event>
<event>
 8    1  0.1128298E+005  0.1043930E+01  0.7957747E-01            NaN
         13   -1    0    0    0    0  0.00000000000E+00  0.00000000000E+00  0.74505805969E-08  0.10566000000E+00  0.10566000000E+00 0. -1.
     999900   -1    0    0    0    0 -0.00000000000E+00 -0.00000000000E+00 -0.74505805969E-08  0.93827000000E+00  0.93827000000E+00 0.  1.
     999902    2    1    2    0    0  0.58521454112E-02 -0.24182067869E-01  0.74220513648E-02  0.10179664321E+01  0.10176352736E+01 0.  0.
     999903    2    3    3    0    0 -0.19934667407E-01  0.12470194000E-01  0.12536907945E+00  0.12896707919E+00  0.19031677028E-01 0.  0.
         14    1    1    2    0    0 -0.58521454112E-02  0.24182067869E-01 -0.74220513648E-02  0.25963567914E-01  0.00000000000E+00 0.  1.
     999901    1    3    3    0    0  0.25786812818E-01 -0.36652261870E-01 -0.11794702808E+00  0.88899935290E+00  0.88000000000E+00 0.  1.
        -11    1    4    4    0    0 -0.18858709458E-01  0.24099543060E-02  0.63953285853E-01  0.66721381090E-01  0.51100000000E-03 0. -1.
         11    1    4    4    0    0 -0.10759579491E-02  0.10060239695E-01  0.61415793595E-01  0.62245698101E-01  0.51100000000E-03 0.  1.
</event>
<event>
 8    1  0.1128298E+005  0.1043930E+01  0.7957747E-01            NaN
         13   -1    0    0    0    0  0.00000000000E+00  0.00000000000E+00  0.74505805969E-08  0.10566000000E+00  0.10566000000E+00 0.  1.
     999900   -1    0    0    0    0 -0.00000000000E+00 -0.00000000000E+00 -0.74505805969E-08  0.93827000000E+00  0.93827000000E+00 0. -1.
     999902    2    1    2    0    0 -0.21158674800E-01 -0.20281631673E-01 -0.14783643441E-02  0.10145834557E+01  0.10141589466E+01 0.  0.
     999903    2    3    3    0    0  0.38979530769E-01 -0.11454115015E+00  0.32503677445E-01  0.12685813794E+00  0.19935375982E-01 0.  0.
         14    1    1    2    0    0  0.21158674800E-01  0.20281631673E-01  0.14783643441E-02  0.29346544323E-01  0.00000000000E+00 0. -1.
     999901    1    3    3    0    0 -0.60138205569E-01  0.94259518482E-01 -0.33982041789E-01  0.88772531774E+00  0.88000000000E+00 0. -1.
        -11    1    4    4    0    0  0.75208755200E-02 -0.44630292231E-01  0.55877333221E-02  0.45606035104E-01  0.51100000000E-03 0.  1.
         11    1    4    4    0    0  0.31458655249E-01 -0.69910857923E-01  0.26915944123E-01  0.81252102832E-01  0.51100000000E-03 0. -1.
</event>
<event>
 8    1  0.1128298E+005  0.1043930E+01  0.7957747E-01            NaN
         13   -1    0    0    0    0  0.00000000000E+00  0.00000000000E+00  0.74505805969E-08  0.10566000000E+00  0.10566000000E+00 0. -1.
     999900   -1    0    0    0    0 -0.00000000000E+00 -0.00000000000E+00 -0.74505805969E-08  0.93827000000E+00  0.93827000000E+00 0. -1.
     999902    2    1    2    0    0  0.47242393738E-02  0.20466982645E-01 -0.10926930841E-01  0.10202527190E+01  0.10199779395E+01 0.  0.
     999903    2    3    3    0    0 -0.15111009188E-01  0.12466253851E+00 -0.39931506700E-01  0.13340920614E+00  0.20842263497E-01 0.  0.
         14    1    1    2    0    0 -0.47242393738E-02 -0.20466982645E-01  0.10926930841E-01  0.23677280965E-01  0.00000000000E+00 0. -1.
     999901    1    3    3    0    0  0.19835248562E-01 -0.10419555587E+00  0.29004575859E-01  0.88684351290E+00  0.88000000000E+00 0.  1.
        -11    1    4    4    0    0 -0.81432765113E-02  0.64557774935E-01 -0.97749854972E-02  0.65801449219E-01  0.51100000000E-03 0. -1.
         11    1    4    4    0    0 -0.69677326764E-02  0.60104763579E-01 -0.30156521203E-01  0.67607756919E-01  0.51100000000E-03 0.  1.
</event>
<event>
 8    1  0.1128298E+005  0.1043930E+01  0.7957747E-01            NaN
         13   -1    0    0    0    0  0.00000000000E+00  0.00000000000E+00  0.74505805969E-08  0.10566000000E+00  0.10566000000E+00 0.  1.
     999900   -1    0    0    0    0 -0.00000000000E+00 -0.00000000000E+00 -0.74505805969E-08  0.93827000000E+00  0.93827000000E+00 0.  1.
     999902    2    1    2    0    0 -0.15334169735E-01  0.60807281142E-03 -0.18566516336E-01  0.10198422014E+01  0.10195576951E+01 0.  0.
     999903    2    3    3    0    0  0.68021800874E-01 -0.95837141673E-01 -0.51848699777E-01  0.13003458117E+00  0.20223291345E-01 0.  0.
         14    1    1    2    0    0  0.15334169735E-01 -0.60807281142E-03  0.18566516336E-01  0.24087798631E-01  0.00000000000E+00 0.  1.
     999901    1    3    3    0    0 -0.83355970610E-01  0.96445214484E-01  0.33282183440E-01  0.88980762020E+00  0.88000000000E+00 0.  1.
        -11    1    4    4    0    0  0.62599562085E-01 -0.75406602202E-01 -0.40575279127E-01  0.10607297123E+00  0.51100000000E-03 0. -1.
         11    1    4    4    0    0  0.54222387893E-02 -0.20430539471E-01 -0.11273420650E-01  0.23961609935E-01  0.51100000000E-03 0.  1.
</event>
<event>
 8    1  0.1128298E+005  0.1043930E+01  0.7957747E-01            NaN
         13   -1    0    0    0    0  0.00000000000E+00  0.00000000000E+00  0.74505805969E-08  0.10566000000E+00  0.10566000000E+00 0. -1.
     999900   -1    0    0    0    0 -0.00000000000E+00 -0.00000000000E+00 -0.74505805969E-08  0.93827000000E+00  0.93827000000E+00 0.  1.
     999902    2    1    2    0    0 -0.10502358239E-01  0.11333426798E-01  0.15687227982E-01  0.10219110261E+01  0.10216737786E+01 0.  0.
     999903    2    3    3    0    0 -0.62825235444E-01 -0.10752277135E+00 -0.33983435917E-01  0.13099483799E+00  0.22284907340E-01 0.  0.
         14    1    1    2    0    0  0.10502358239E-01 -0.11333426798E-01 -0.15687227982E-01  0.22018973939E-01  0.00000000000E+00 0.  1.
     999901    1    3    3    0    0  0.52322877204E-01  0.11885619815E+00  0.49670663899E-01  0.89091618807E+00  0.88000000000E+00 0.  1.
        -11    1    4    4    0    0 -0.47995239292E-01 -0.62065796705E-01 -0.24949535070E-01  0.82331321722E-01  0.51100000000E-03 0.  1.
         11    1    4    4    0    0 -0.14829996152E-01 -0.45456974646E-01 -0.90339008473E-02  0.48663516266E-01  0.51100000000E-03 0. -1.
</event>
<event>
 8    1  0.1128298E+005  0.1043930E+01  0.7957747E-01            NaN
         13   -1    0    0    0    0  0.00000000000E+00  0.00000000000E+00  0.74505805969E-08  0.10566000000E+00  0.10566000000E+00 0.  1.
     999900   -1    0    0    0    0 -0.00000000000E+00 -0.00000000000E+00 -0.74505805969E-08  0.93827000000E+00  0.93827000000E+00 0. -1.
     999902    2    1    2    0    0 -0.57532194402E-02  0.21590984401E-01  0.76109098905E-02  0.10203249986E+01  0.10200519137E+01 0.  0.
     999903    2    3    3    0    0 -0.10400732396E+00 -0.43509947897E-02  0.78067081793E-01  0.13167944075E+00  0.20212651099E-01 0.  0.
         14    1    1    2    0    0  0.57532194402E-02 -0.21590984401E-01 -0.76109098905E-02  0.23605001392E-01  0.00000000000E+00 0.  1.
     999901    1    3    3    0    0  0.98254104518E-01  0.25941979191E-01 -0.70456171902E-01  0.88864555786E+00  0.88000000000E+00 0. -1.
        -11    1    4    4    0    0 -0.58322126232E-01 -0.72442947458E-02  0.54665669519E-01  0.80265476760E-01  0.51100000000E-03 0. -1.
         11    1    4    4    0    0 -0.45685197726E-01  0.28932999561E-02  0.23401412274E-01  0.51413963991E-01  0.51100000000E-03 0.  1.
</event>
<event>
 8    1  0.1128298E+005  0.1043930E+01  0.7957747E-01            NaN
         13   -1    0    0    0    0  0.00000000000E+00  0.00000000000E+00  0.74505805969E-08  0.10566000000E+00  0.10566000000E+00 0.  1.
     999900   -1    0    0    0    0 -0.00000000000E+00 -0.00000000000E+00 -0.74505805969E-08  0.93827000000E+00  0.93827000000E+00 0. -1.
     999902    2    1    2    0    0  0.73444366558E-03 -0.20932284310E-01 -0.10471653572E-01  0.10205130091E+01  0.10202443072E+01 0.  0.
     999903    2    3    3    0    0  0.48331564886E-01 -0.68887112150E-01 -0.10179505764E+00  0.13321085336E+00  0.17364426547E-01 0.  0.
         14    1    1    2    0    0 -0.73444366558E-03  0.20932284310E-01  0.10471653572E-01  0.23416990893E-01  0.00000000000E+00 0.  1.
     999901    1    3    3    0    0 -0.47597121220E-01  0.47954827840E-01  0.91323404064E-01  0.88730215575E+00  0.88000000000E+00 0.  1.
        -11    1    4    4    0    0  0.30286456320E-01 -0.53208113889E-01 -0.64697052690E-01  0.89074926707E-01  0.51100000000E-03 0.  1.
         11    1    4    4    0    0  0.18045108566E-01 -0.15678998261E-01 -0.37098004946E-01  0.44135926654E-01  0.51100000000E-03 0. -1.
</event>
<event>
 8    1  0.1128298E+005  0.1043930E+01  0.7957747E-01            NaN
         13   -1    0    0    0    0  0.00000000000E+00  0.00000000000E+00  0.74505805969E-08  0.10566000000E+00  0.10566000000E+00 0.  1.
     999900   -1    0    0    0    0 -0.00000000000E+00 -0.00000000000E+00 -0.74505805969E-08  0.93827000000E+00  0.93827000000E+00 0. -1.
     999902    2    1    2    0    0 -0.22450448632E-01  0.67957479220E-02  0.94945504666E-03  0.10204543467E+01  0.10201842811E+01 0.  0.
     999903    2    3    3    0    0  0.12562417230E+00  0.28567692991E-03 -0.10638648264E-01  0.12798431440E+00  0.22029290044E-01 0.  0.
         14    1    1    2    0    0  0.22450448632E-01 -0.67957479220E-02 -0.94945504666E-03  0.23475653313E-01  0.00000000000E+00 0. -1.
     999901    1    3    3    0    0 -0.14807462093E+00  0.65100709921E-02  0.11588103310E-01  0.89247003228E+00  0.88000000000E+00 0. -1.
        -11    1    4    4    0    0  0.11051070307E+00  0.15333763733E-02 -0.20348353807E-02  0.11054125208E+00  0.51100000000E-03 0. -1.
         11    1    4    4    0    0  0.15113469226E-01 -0.12476994434E-02 -0.86038128829E-02  0.17443062319E-01  0.51100000000E-03 0.  1.
</event>
<event>
 8    1  0.1128298E+005  0.1043930E+01  0.7957747E-01            NaN
         13   -1    0    0    0    0  0.00000000000E+00  0.00000000000E+00  0.74505805969E-08  0.10566000000E+00  0.10566000000E+00 0.  1.
     999900   -1    0    0    0    0 -0.00000000000E+00 -0.00000000000E+00 -0.74505805969E-08  0.93827000000E+00  0.93827000000E+00 0.  1.
     999902    2    1    2    0    0  0.11831541727E-01 -0.39736926883E-02 -0.17589060711E-01  0.10223626481E+01  0.10221351346E+01 0.  0.
     999903    2    3    3    0    0 -0.94443466542E-01  0.86344263345E-01  0.18423784577E-01  0.13065157624E+00  0.18854663930E-01 0.  0.
         14    1    1    2    0    0 -0.11831541727E-01  0.39736926883E-02  0.17589060711E-01  0.21567351945E-01  0.00000000000E+00 0.  1.
     999901    1    3    3    0    0  0.10627500827E+00 -0.90317956033E-01 -0.36012845287E-01  0.89171107181E+00  0.88000000000E+00 0.  1.
        -11    1    4    4    0    0 -0.44358023897E-01  0.53125302256E-01  0.11316804407E-01  0.70130330149E-01  0.51100000000E-03 0.  1.
         11    1    4    4    0    0 -0.50085442645E-01  0.33218961089E-01  0.71069801693E-02  0.60521246096E-01  0.51100000000E-03 0. -1.
</event>
<event>
 8    1  0.1128298E+005  0.1043930E+01  0.7957747E-01            NaN
         13   -1    0    0    0    0  0.00000000000E+00  0.00000000000E+00  0.74505805969E-08  0.10566000000E+00  0.10566000000E+00 0. -1.
     999900   -1    0    0    0    0 -0.00000000000E+00 -0.00000000000E+00 -0.74505805969E-08  0.93827000000E+00  0.93827000000E+00 0.  1.
     999902    2    1    2    0    0 -0.22830561873E-01 -0.57490252222E-02 -0.18856046974E-02  0.10203113347E+01  0.10200379298E+01 0.  0.
     999903    2    3    3    0    0  0.65293528308E-01 -0.10783774938E+00 -0.22704472655E-01  0.12979385134E+00  0.20945780870E-01 0.  0.
         14    1    1    2    0    0  0.22830561873E-01  0.57490252222E-02  0.18856046974E-02  0.23618665320E-01  0.00000000000E+00 0.  1.
     999901    1    3    3    0    0 -0.88124090181E-01  0.10208872416E+00  0.20818867958E-01  0.89051748334E+00  0.88000000000E+00 0.  1.
        -11    1    4    4    0    0  0.59879066758E-01 -0.86932232936E-01 -0.23629584236E-01  0.10817270511E+00  0.51100000000E-03 0. -1.
         11    1    4    4    0    0  0.54144615501E-02 -0.20905516447E-01  0.92511158050E-03  0.21621146228E-01  0.51100000000E-03 0.  1.
</event>
<event>
 8    1  0.1128298E+005  0.1043930E+01  0.7957747E-01            NaN
         13   -1    0    0    0    0  0.00000000000E+00  0.00000000000E+00  0.74505805969E-08  0.10566000000E+00  0.10566000000E+00 0.  1.
     999900   -1    0    0    0    0 -0.00000000000E+00 -0.00000000000E+00 -0.74505805969E-08  0.93827000000E+00  0.93827000000E+00 0.  1.
     999902    2    1    2    0    0 -0.22518513031E-01  0.46685683439E-02  0.48250393444E-02  0.10204319157E+01  0.10201613278E+01 0.  0.
     999903    2    3    3    0    0  0.33524309265E-01  0.68765306980E-01  0.10374418568E+00  0.13080604642E+00  0.22244526603E-01 0.  0.
         14    1    1    2    0    0  0.22518513031E-01 -0.46685683439E-02 -0.48250393444E-02  0.23498084266E-01  0.00000000000E+00 0. -1.
     999901    1    3    3    0    0 -0.56042822296E-01 -0.64096738636E-01 -0.98919146331E-01  0.88962586931E+00  0.88000000000E+00 0.  1.
        -11    1    4    4    0    0  0.26575260818E-01  0.29182017439E-01  0.52189974442E-01  0.65436145841E-01  0.51100000000E-03 0. -1.
         11    1    4    4    0    0  0.69490484470E-02  0.39583289541E-01  0.51554211234E-01  0.65369900583E-01  0.51100000000E-03 0.  1.
</event>
<event>
 8    1  0.1128298E+005  0.1043930E+01  0.7957747E-01            NaN
         13   -1    0    0    0    0  0.00000000000E+00  0.00000000000E+00  0.74505805969E-08  0.10566000000E+00  0.10566000000E+00 0.  1.
     999900   -1    0    0    0    0 -0.00000000000E+00 -0.00000000000E+00 -0.74505805969E-08  0.93827000000E+00  0.93827000000E+00 0.  1.
     999902    2    1    2    0    0  0.19328938635E-01 -0.10142564990E-01  0.16079970734E-01  0.10168182875E+01  0.10164567797E+01 0.  0.
     999903    2    3    3    0    0  0.30272581029E-01 -0.85077115131E-01  0.92016182975E-01  0.13030756655E+00  0.18935133732E-01 0.  0.
         14    1    1    2    0    0 -0.19328938635E-01  0.10142564990E-01 -0.16079970734E-01  0.27111712453E-01  0.00000000000E+00 0. -1.
     999901    1    3    3    0    0 -0.10943642394E-01  0.74934550141E-01 -0.75936212242E-01  0.88651072100E+00  0.88000000000E+00 0.  1.
        -11    1    4    4    0    0  0.17793851938E-01 -0.61259527314E-01  0.53091176868E-01  0.82995692874E-01  0.51100000000E-03 0.  1.
         11    1    4    4    0    0  0.12478729091E-01 -0.23817587818E-01  0.38925006108E-01  0.47311873675E-01  0.51100000000E-03 0. -1.
</event>
<event>
 8    1  0.1128298E+005  0.1043930E+01  0.7957747E-01            NaN
         13   -1    0    0    0    0  0.00000000000E+00  0.00000000000E+00  0.74505805969E-08  0.10566000000E+00  0.10566000000E+00 0. -1.
     999900   -1    0    0    0    0 -0.00000000000E+00 -0.00000000000E+00 -0.74505805969E-08  0.93827000000E+00  0.93827000000E+00 0. -1.
     999902    2    1    2    0    0  0.73963458079E-02 -0.73379763824E-02 -0.16330721831E-01  0.10245587764E+01  0.10243756352E+01 0.  0.
     999903    2    3    3    0    0 -0.30669887632E-01  0.32326539968E-03 -0.12928605919E+00  0.13648972446E+00  0.31205981396E-01 0.  0.
         14    1    1    2    0    0 -0.73963458079E-02  0.73379763824E-02  0.16330721831E-01  0.19371223612E-01  0.00000000000E+00 0. -1.
     999901    1    3    3    0    0  0.38066233440E-01 -0.76612417820E-02  0.11295533736E+00  0.88806905193E+00  0.88000000000E+00 0.  1.
        -11    1    4    4    0    0  0.13156385306E-02 -0.87071337021E-02 -0.45574371375E-01  0.46420141418E-01  0.51100000000E-03 0.  1.
         11    1    4    4    0    0 -0.31985526162E-01  0.90303991018E-02 -0.83711687814E-01  0.90069583043E-01  0.51100000000E-03 0. -1.
</event>
<event>
 8    1  0.1128298E+005  0.1043930E+01  0.7957747E-01            NaN
         13   -1    0    0    0    0  0.00000000000E+00  0.00000000000E+00  0.74505805969E-08  0.10566000000E+00  0.10566000000E+00 0. -1.
     999900   -1    0    0    0    0 -0.00000000000E+00 -0.00000000000E+00 -0.74505805969E-08  0.93827000000E+00  0.93827000000E+00 0.  1.
     999902    2    1    2    0    0 -0.12581494733E-02 -0.91244425633E-02 -0.18082156356E-01  0.10236370758E+01  0.10234359092E+01 0.  0.
     999903    2    3    3    0    0 -0.64617192198E-01  0.10997826577E+00 -0.33023416432E-01  0.13323095240E+00  0.19731704811E-01 0.  0.
         14    1    1    2    0    0  0.12581494733E-02  0.91244425633E-02  0.18082156356E-01  0.20292924153E-01  0.00000000000E+00 0. -1.
     999901    1    3    3    0    0  0.63359042724E-01 -0.11910270833E+00  0.14941260076E-01  0.89040612345E+00  0.88000000000E+00 0. -1.
        -11    1    4    4    0    0 -0.32318395948E-01  0.42333232712E-01 -0.21274399385E-01  0.57353661598E-01  0.51100000000E-03 0. -1.
         11    1    4    4    0    0 -0.32298796249E-01  0.67645033056E-01 -0.11749017047E-01  0.75877290798E-01  0.51100000000E-03 0.  1.
</event>
<event>
 8    1  0.1128298E+005  0.1043930E+01  0.7957747E-01            NaN
         13   -1    0    0    0    0  0.00000000000E+00  0.00000000000E+00  0.74505805969E-08  0.10566000000E+00  0.10566000000E+00 0. -1.
     999900   -1    0    0    0    0 -0.00000000000E+00 -0.00000000000E+00 -0.74505805969E-08  0.93827000000E+00  0.93827000000E+00 0. -1.
     999902    2    1    2    0    0 -0.96726639208E-02  0.12307957832E-01 -0.17120974628E-01  0.10207314219E+01  0.10204677661E+01 0.  0.
     999903    2    3    3    0    0 -0.74085226147E-01  0.83086530330E-01 -0.71586823286E-01  0.13386891105E+00  0.20105218757E-01 0.  0.
         14    1    1    2    0    0  0.96726639208E-02 -0.12307957832E-01  0.17120974628E-01  0.23198578093E-01  0.00000000000E+00 0. -1.
     999901    1    3    3    0    0  0.64412562226E-01 -0.70778572499E-01  0.54465848658E-01  0.88686251086E+00  0.88000000000E+00 0. -1.
        -11    1    4    4    0    0 -0.21532948735E-01  0.36896694726E-01 -0.32857843808E-01  0.53897430214E-01  0.51100000000E-03 0.  1.
         11    1    4    4    0    0 -0.52552277412E-01  0.46189835604E-01 -0.38728979479E-01  0.79971480834E-01  0.51100000000E-03 0. -1.
</event>
<event>
 8    1  0.1128298E+005  0.1043930E+01  0.7957747E-01            NaN
         13   -1    0    0    0    0  0.00000000000E+00  0.00000000000E+00  0.74505805969E-08  0.10566000000E+00  0.10566000000E+00 0. -1.
     999900   -1    0    0    0    0 -0.00000000000E+00 -0.00000000000E+00 -0.74505805969E-08  0.93827000000E+00  0.93827000000E+00 0.  1.
     999902    2    1    2    0    0  0.95147499465E-03 -0.17857934714E-01 -0.15599688968E-01  0.10201989774E+01  0.10199229344E+01 0.  0.
     999903    2    3    3    0    0 -0.64090000071E-01  0.38286488798E-01 -0.10616807203E+00  0.13138784912E+00  0.20438298508E-01 0.  0.
         14    1    1    2    0    0 -0.95147499465E-03  0.17857934714E-01  0.15599688968E-01  0.23731022583E-01  0.00000000000E+00 0. -1.
     999901    1    3    3    0    0  0.65041475065E-01 -0.56144423513E-01  0.90568383058E-01  0.88881112829E+00  0.88000000000E+00 0. -1.
        -11    1    4    4    0    0 -0.10319528570E-01  0.14832556640E-01 -0.18192822617E-01  0.25646390041E-01  0.51100000000E-03 0. -1.
         11    1    4    4    0    0 -0.53770471501E-01  0.23453932158E-01 -0.87975249409E-01  0.10574145908E+00  0.51100000000E-03 0.  1.
</event>
<event>
 8    1  0.1128298E+005  0.1043930E+01  0.7957747E-01            NaN
         13   -1    0    0    0    0  0.00000000000E+00  0.00000000000E+00  0.74505805969E-08  0.10566000000E+00  0.10566000000E+00 0. -1.
     999900   -1    0    0    0    0 -0.00000000000E+00 -0.00000000000E+00 -0.74505805969E-08  0.93827000000E+00  0.93827000000E+00 0. -1.
     999902    2    1    2    0    0 -0.13865232078E-01  0.17454789265E-01 -0.76271566150E-02  0.10203696976E+01  0.10200976581E+01 0.  0.
     999903    2    3    3    0    0  0.35799484509E-01 -0.59786324681E-01  0.10596732999E+00  0.12832907013E+00  0.19577219013E-01 0.  0.
         14    1    1    2    0    0  0.13865232078E-01 -0.17454789265E-01  0.76271566150E-02  0.23560302352E-01  0.00000000000E+00 0.  1.
     999901    1    3    3    0    0 -0.49664716587E-01  0.77241113946E-01 -0.11359448661E+00  0.89204062752E+00  0.88000000000E+00 0. -1.
        -11    1    4    4    0    0  0.84147196319E-02 -0.29197245839E-01  0.55433722274E-01  0.63217445039E-01  0.51100000000E-03 0. -1.
         11    1    4    4    0    0  0.27384764877E-01 -0.30589078842E-01  0.50533607719E-01  0.65111625090E-01  0.51100000000E-03 0.  1.
</event>
<event>
 8    1  0.1128298E+005  0.1043930E+01  0.7957747E-01            NaN
         13   -1    0    0    0    0  0.00000000000E+00  0.00000000000E+00  0.74505805969E-08  0.10566000000E+00  0.10566000000E+00 0.  1.
     999900   -1    0    0    0    0 -0.00000000000E+00 -0.00000000000E+00 -0.74505805969E-08  0.93827000000E+00  0.93827000000E+00 0.  1.
     999902    2    1    2    0    0  0.18044655672E-01 -0.87256454306E-02  0.11668972219E-01  0.10207370830E+01  0.10204735573E+01 0.  0.
     999903    2    3    3    0    0 -0.84075620694E-01  0.65784962106E-01  0.71083623766E-01  0.12972053865E+00  0.19446473856E-01 0.  0.
         14    1    1    2    0    0 -0.18044655672E-01  0.87256454306E-02 -0.11668972219E-01  0.23192917004E-01  0.00000000000E+00 0.  1.
     999901    1    3    3    0    0  0.10212027637E+00 -0.74510607537E-01 -0.59414651547E-01  0.89101654435E+00  0.88000000000E+00 0.  1.
        -11    1    4    4    0    0 -0.69073200783E-01  0.57928682166E-01  0.51494389407E-01  0.10382086758E+00  0.51100000000E-03 0.  1.
         11    1    4    4    0    0 -0.15002419912E-01  0.78562799403E-02  0.19589234359E-01  0.25899671069E-01  0.51100000000E-03 0. -1.
</event>
<event>
 8    1  0.1128298E+005  0.1043930E+01  0.7957747E-01            NaN
         13   -1    0    0    0    0  0.00000000000E+00  0.00000000000E+00  0.74505805969E-08  0.10566000000E+00  0.10566000000E+00 0. -1.
     999900   -1    0    0    0    0 -0.00000000000E+00 -0.00000000000E+00 -0.74505805969E-08  0.93827000000E+00  0.93827000000E+00 0. -1.
     999902    2    1    2    0    0  0.10954709668E-01  0.18735702815E-02  0.21292606367E-01  0.10199114444E+01  0.10196285909E+01 0.  0.
     999903    2    3    3    0    0  0.12772565748E+00  0.22385818386E-01  0.13713759770E-01  0.13192853602E+00  0.20052505239E-01 0.  0.
         14    1    1    2    0    0 -0.10954709668E-01 -0.18735702815E-02 -0.21292606367E-01  0.24018555648E-01  0.00000000000E+00 0. -1.
     999901    1    3    3    0    0 -0.11677094781E+00 -0.20512248104E-01  0.75788465976E-02  0.88798290833E+00  0.88000000000E+00 0.  1.
        -11    1    4    4    0    0  0.26579628166E-01  0.12968992981E-01  0.15755525324E-02  0.29621190036E-01  0.51100000000E-03 0.  1.
         11    1    4    4    0    0  0.10114602931E+00  0.94168254049E-02  0.12138207237E-01  0.10230734598E+00  0.51100000000E-03 0. -1.
</event>
<event>
 8    1  0.1128298E+005  0.1043930E+01  0.7957747E-01            NaN
         13   -1    0    0    0    0  0.00000000000E+00  0.00000000000E+00  0.74505805969E-08  0.10566000000E+00  0.10566000000E+00 0.  1.
     999900   -1    0    0    0    0 -0.00000000000E+00 -0.00000000000E+00 -0.74505805969E-08  0.93827000000E+00  0.93827000000E+00 0. -1.
     999902    2    1    2    0    0 -0.49806261629E-02  0.19310557190E-01 -0.18594780677E-01  0.10166633514E+01  0.10162976434E+01 0.  0.
     999903    2    3    3    0    0 -0.46914343674E-01 -0.11383298804E+00 -0.15435525757E-01  0.12565514653E+00  0.19800393576E-01 0.  0.
         14    1    1    2    0    0  0.49806261629E-02 -0.19310557190E-01  0.18594780677E-01  0.27266648573E-01  0.00000000000E+00 0. -1.
     999901    1    3    3    0    0  0.41933717511E-01  0.13314354523E+00 -0.31592549207E-02  0.89100820490E+00  0.88000000000E+00 0. -1.
        -11    1    4    4    0    0  0.13189970397E-02 -0.68485277225E-02 -0.31112716886E-02  0.76539674469E-02  0.51100000000E-03 0. -1.
         11    1    4    4    0    0 -0.48233340714E-01 -0.10698446032E+00 -0.12324254068E-01  0.11800117908E+00  0.51100000000E-03 0.  1.
</event>
<event>
 8    1  0.1128298E+005  0.1043930E+01  0.7957747E-01            NaN
         13   -1    0    0    0    0  0.00000000000E+00  0.00000000000E+00  0.74505805969E-08  0.10566000000E+00  0.10566000000E+00 0.  1.
     999900   -1    0    0    0    0 -0.00000000000E+00 -0.00000000000E+00 -0.74505805969E-08  0.93827000000E+00  0.93827000000E+00 0. -1.
     999902    2    1    2    0    0  0.12982190333E-02  0.56279090286E-02 -0.22990609714E-01  0.10202250033E+01  0.10199495725E+01 0.  0.
     999903    2    3    3    0    0 -0.55724294112E-01 -0.78485821703E-01  0.82047001889E-01  0.12817142502E+00  0.20760118252E-01 0.  0.
         14    1    1    2    0    0 -0.12982190333E-02 -0.56279090286E-02  0.22990609714E-01  0.23704996682E-01  0.00000000000E+00 0.  1.
     999901    1    3    3    0    0  0.57022513146E-01  0.84113730731E-01 -0.10503761160E+00  0.89205357830E+00  0.88000000000E+00 0. -1.
        -11    1    4    4    0    0 -0.30212095001E-01 -0.59239071557E-01  0.56122567650E-01  0.87017481025E-01  0.51100000000E-03 0.  1.
         11    1    4    4    0    0 -0.25512199112E-01 -0.19246750145E-01  0.25924434239E-01  0.41153943994E-01  0.51100000000E-03 0. -1.
</event>
<event>
 8    1  0.1128298E+005  0.1043930E+01  0.7957747E-01            NaN
         13   -1    0    0    0    0  0.00000000000E+00  0.00000000000E+00  0.74505805969E-08  0.10566000000E+00  0.10566000000E+00 0. -1.
     999900   -1    0    0    0    0 -0.00000000000E+00 -0.00000000000E+00 -0.74505805969E-08  0.93827000000E+00  0.93827000000E+00 0.  1.
     999902    2    1    2    0    0  0.30007211861E-02 -0.74580064069E-02  0.24059908201E-01  0.10185625924E+01  0.10182466544E+01 0.  0.
     999903    2    3    3    0    0  0.40750746306E-01 -0.12142241833E+00 -0.74595370784E-02  0.12985205062E+00  0.20047028721E-01 0.  0.
         14    1    1    2    0    0 -0.30007211861E-02  0.74580064069E-02 -0.24059908201E-01  0.25367407630E-01  0.00000000000E+00 0.  1.
     999901    1    3    3    0    0 -0.37750025120E-01  0.11396441192E+00  0.31519445280E-01  0.88871054175E+00  0.88000000000E+00 0. -1.
        -11    1    4    4    0    0  0.31733088469E-01 -0.91018392917E-01  0.30436064527E-02  0.96440973731E-01  0.51100000000E-03 0. -1.
         11    1    4    4    0    0  0.90176578367E-02 -0.30404025411E-01 -0.10503143531E-01  0.33411076892E-01  0.51100000000E-03 0.  1.
</event>
<event>
 8    1  0.1128298E+005  0.1043930E+01  0.7957747E-01            NaN
         13   -1    0    0    0    0  0.00000000000E+00  0.00000000000E+00  0.74505805969E-08  0.10566000000E+00  0.10566000000E+00 0. -1.
     999900   -1    0    0    0    0 -0.00000000000E+00 -0.00000000000E+00 -0.74505805969E-08  0.93827000000E+00  0.93827000000E+00 0. -1.
     999902    2    1    2    0    0  0.26097612151E-02  0.21617075828E-01  0.11129110055E-01  0.10194766585E+01  0.10191833453E+01 0.  0.
     999903    2    3    3    0    0  0.12143287540E-01  0.10311799413E+00  0.80463110526E-01  0.13294381000E+00  0.20468617821E-01 0.  0.
         14    1    1    2    0    0 -0.26097612151E-02 -0.21617075828E-01 -0.11129110055E-01  0.24453341521E-01  0.00000000000E+00 0.  1.
     999901    1    3    3    0    0 -0.95335263253E-02 -0.81500918307E-01 -0.69334000471E-01  0.88653284848E+00  0.88000000000E+00 0. -1.
        -11    1    4    4    0    0  0.95485253221E-02  0.19933272583E-01  0.22342171434E-01  0.31431567525E-01  0.51100000000E-03 0. -1.
         11    1    4    4    0    0  0.25947622183E-02  0.83184721552E-01  0.58120939091E-01  0.10151224248E+00  0.51100000000E-03 0.  1.
</event>
<event>
 8    1  0.1128298E+005  0.1043930E+01  0.7957747E-01            NaN
         13   -1    0    0    0    0  0.00000000000E+00  0.00000000000E+00  0.74505805969E-08  0.10566000000E+00  0.10566000000E+00 0. -1.
     999900   -1    0    0    0    0 -0.00000000000E+00 -0.00000000000E+00 -0.74505805969E-08  0.93827000000E+00  0.93827000000E+00 0.  1.
     999902    2    1    2    0    0  0.76503910460E-02  0.19214116564E-01 -0.12810597443E-01  0.10196026046E+01  0.10193123413E+01 0.  0.
     999903    2    3    3    0    0  0.71040800747E-01  0.82674689857E-01 -0.73438300563E-01  0.13296778308E+00  0.20133246980E-01 0.  0.
         14    1    1    2    0    0 -0.76503910460E-02 -0.19214116564E-01  0.12810597443E-01  0.24327395367E-01  0.00000000000E+00 0. -1.
     999901    1    3    3    0    0 -0.63390409701E-01 -0.63460573293E-01  0.60627703120E-01  0.88663482155E+00  0.88000000000E+00 0. -1.
        -11    1    4    4    0    0  0.33072265574E-01  0.30420474319E-01 -0.20233986096E-01  0.49283418330E-01  0.51100000000E-03 0. -1.
         11    1    4    4    0    0  0.37968535173E-01  0.52254215538E-01 -0.53204314467E-01  0.83684364750E-01  0.51100000000E-03 0.  1.
</event>
<event>
 8    1  0.1146998E+005  0.1043930E+01  0.7957747E-01            NaN
         13   -1    0    0    0    0  0.00000000000E+00  0.00000000000E+00  0.74505805969E-08  0.10566000000E+00  0.10566000000E+00 0.  1.
     999900   -1    0    0    0    0 -0.00000000000E+00 -0.00000000000E+00 -0.74505805969E-08  0.93827000000E+00  0.93827000000E+00 0. -1.
     999902    2    1    2    0    0  0.25881574127E-01  0.11046951953E-01  0.17021587093E-01  0.10110419254E+01  0.10105068774E+01 0.  0.
     999903    2    3    3    0    0 -0.61981943799E-01 -0.21229875850E-01  0.10125140317E+00  0.12207822907E+00  0.18941446192E-01 0.  0.
         14    1    1    2    0    0 -0.25881574127E-01 -0.11046951953E-01 -0.17021587093E-01  0.32888074646E-01  0.00000000000E+00 0. -1.
     999901    1    3    3    0    0  0.87863517926E-01  0.32276827803E-01 -0.84229816074E-01  0.88896369628E+00  0.88000000000E+00 0. -1.
        -11    1    4    4    0    0 -0.37805460627E-01 -0.30685939632E-02  0.57959525092E-01  0.69269306276E-01  0.51100000000E-03 0.  1.
         11    1    4    4    0    0 -0.24176483172E-01 -0.18161281887E-01  0.43291878075E-01  0.52808922793E-01  0.51100000000E-03 0. -1.
</event>
<event>
 8    1  0.1128298E+005  0.1043930E+01  0.7957747E-01            NaN
         13   -1    0    0    0    0  0.00000000000E+00  0.00000000000E+00  0.74505805969E-08  0.10566000000E+00  0.10566000000E+00 0. -1.
     999900   -1    0    0    0    0 -0.00000000000E+00 -0.00000000000E+00 -0.74505805969E-08  0.93827000000E+00  0.93827000000E+00 0. -1.
     999902    2    1    2    0    0 -0.22187069038E-01 -0.97405747441E-03 -0.10384015751E-01  0.10194138298E+01  0.10191189890E+01 0.  0.
     999903    2    3    3    0    0  0.10831088622E+00 -0.54961409722E-02  0.62139547509E-01  0.12682779312E+00  0.21506048086E-01 0.  0.
         14    1    1    2    0    0  0.22187069038E-01  0.97405747441E-03  0.10384015751E-01  0.24516170247E-01  0.00000000000E+00 0. -1.
     999901    1    3    3    0    0 -0.13049795526E+00  0.45220834978E-02 -0.72523563260E-01  0.89258603663E+00  0.88000000000E+00 0. -1.
        -11    1    4    4    0    0  0.38035640259E-01 -0.85103142581E-03  0.10427213180E-01  0.39451515562E-01  0.51100000000E-03 0. -1.
         11    1    4    4    0    0  0.70275245958E-01 -0.46451095464E-02  0.51712334329E-01  0.87376277558E-01  0.51100000000E-03 0.  1.
</event>
<event>
 8    1  0.1128298E+005  0.1043930E+01  0.7957747E-01            NaN
         13   -1    0    0    0    0  0.00000000000E+00  0.00000000000E+00  0.74505805969E-08  0.10566000000E+00  0.10566000000E+00 0. -1.
     999900   -1    0    0    0    0 -0.00000000000E+00 -0.00000000000E+00 -0.74505805969E-08  0.93827000000E+00  0.93827000000E+00 0. -1.
     999902    2    1    2    0    0 -0.54545672917E-02  0.20950145030E-01  0.11281198130E-01  0.10195183980E+01  0.10192260974E+01 0.  0.
     999903    2    3    3    0    0 -0.40905042850E-02  0.12528256413E+00  0.34642832391E-01  0.13304624373E+00  0.28084231045E-01 0.  0.
         14    1    1    2    0    0  0.54545672917E-02 -0.20950145030E-01 -0.11281198130E-01  0.24411602003E-01  0.00000000000E+00 0. -1.
     999901    1    3    3    0    0 -0.13640630067E-02 -0.10433241910E+00 -0.23361634261E-01  0.88647215427E+00  0.88000000000E+00 0.  1.
        -11    1    4    4    0    0  0.11041386982E-01  0.35129789798E-01  0.64988391214E-02  0.37396662801E-01  0.51100000000E-03 0. -1.
         11    1    4    4    0    0 -0.15131891267E-01  0.90152774331E-01  0.28143993270E-01  0.95649580925E-01  0.51100000000E-03 0.  1.
</event>
<event>
 8    1  0.1128298E+005  0.1043930E+01  0.7957747E-01            NaN
         13   -1    0    0    0    0  0.00000000000E+00  0.00000000000E+00  0.74505805969E-08  0.10566000000E+00  0.10566000000E+00 0.  1.
     999900   -1    0    0    0    0 -0.00000000000E+00 -0.00000000000E+00 -0.74505805969E-08  0.93827000000E+00  0.93827000000E+00 0. -1.
     999902    2    1    2    0    0  0.12837048511E-01  0.17246200871E-01 -0.10345833427E-01  0.10200708817E+01  0.10197918151E+01 0.  0.
     999903    2    3    3    0    0 -0.85071769829E-01 -0.87747367208E-01 -0.32668319782E-01  0.12815828535E+00  0.20506596815E-01 0.  0.
         14    1    1    2    0    0 -0.12837048511E-01 -0.17246200871E-01  0.10345833427E-01  0.23859118346E-01  0.00000000000E+00 0.  1.
     999901    1    3    3    0    0  0.97908818340E-01  0.10499356808E+00  0.22322486355E-01  0.89191259630E+00  0.88000000000E+00 0.  1.
        -11    1    4    4    0    0 -0.52298732763E-01 -0.42484418911E-01 -0.24408697715E-01  0.71666791082E-01  0.51100000000E-03 0. -1.
         11    1    4    4    0    0 -0.32773037066E-01 -0.45262948297E-01 -0.82596220672E-02  0.56491494270E-01  0.51100000000E-03 0.  1.
</event>
<event>
 8    1  0.1128298E+005  0.1043930E+01  0.7957747E-01            NaN
         13   -1    0    0    0    0  0.00000000000E+00  0.00000000000E+00  0.74505805969E-08  0.10566000000E+00  0.10566000000E+00 0.  1.
     999900   -1    0    0    0    0 -0.00000000000E+00 -0.00000000000E+00 -0.74505805969E-08  0.93827000000E+00  0.93827000000E+00 0.  1.
     999902    2    1    2    0    0  0.39631072313E-02  0.22024341726E-01 -0.74202099849E-02  0.10203537967E+01  0.10200813855E+01 0.  0.
     999903    2    3    3    0    0  0.89259458412E-01  0.80861721274E-01 -0.50472323001E-01  0.13322878338E+00  0.26392886345E-01 0.  0.
         14    1    1    2    0    0 -0.39631072313E-02 -0.22024341726E-01  0.74202099849E-02  0.23576203333E-01  0.00000000000E+00 0. -1.
     999901    1    3    3    0    0 -0.85296351180E-01 -0.58837379548E-01  0.43052113016E-01  0.88712501328E+00  0.88000000000E+00 0.  1.
        -11    1    4    4    0    0  0.71500588482E-01  0.66195728522E-01 -0.28818100926E-01  0.10161177437E+00  0.51100000000E-03 0. -1.
         11    1    4    4    0    0  0.17758869930E-01  0.14665992752E-01 -0.21654222076E-01  0.31617009018E-01  0.51100000000E-03 0.  1.
</event>
<event>
 8    1  0.1128298E+005  0.1043930E+01  0.7957747E-01            NaN
         13   -1    0    0    0    0  0.00000000000E+00  0.00000000000E+00  0.74505805969E-08  0.10566000000E+00  0.10566000000E+00 0. -1.
     999900   -1    0    0    0    0 -0.00000000000E+00 -0.00000000000E+00 -0.74505805969E-08  0.93827000000E+00  0.93827000000E+00 0.  1.
     999902    2    1    2    0    0 -0.36217069309E-02 -0.21043838455E-01 -0.54533041430E-02  0.10218914333E+01  0.10216537588E+01 0.  0.
     999903    2    3    3    0    0  0.97815013343E-01 -0.46819770471E-01  0.73098654924E-01  0.13221496557E+00  0.19429771626E-01 0.  0.
         14    1    1    2    0    0  0.36217069309E-02  0.21043838455E-01  0.54533041430E-02  0.22038566743E-01  0.00000000000E+00 0.  1.
     999901    1    3    3    0    0 -0.10143672027E+00  0.25775932017E-01 -0.78551959067E-01  0.88967646769E+00  0.88000000000E+00 0.  1.
        -11    1    4    4    0    0  0.67281663768E-01 -0.41513060849E-01  0.55194583265E-01  0.96420224243E-01  0.51100000000E-03 0.  1.
         11    1    4    4    0    0  0.30533349576E-01 -0.53067096223E-02  0.17904071659E-01  0.35794741322E-01  0.51100000000E-03 0. -1.
</event>
<event>
 8    1  0.1128298E+005  0.1043930E+01  0.7957747E-01            NaN
         13   -1    0    0    0    0  0.00000000000E+00  0.00000000000E+00  0.74505805969E-08  0.10566000000E+00  0.10566000000E+00 0. -1.
     999900   -1    0    0    0    0 -0.00000000000E+00 -0.00000000000E+00 -0.74505805969E-08  0.93827000000E+00  0.93827000000E+00 0. -1.
     999902    2    1    2    0    0 -0.10553874150E-01  0.73937935270E-02 -0.15598900931E-01  0.10236969045E+01  0.10234969341E+01 0.  0.
     999903    2    3    3    0    0 -0.11893482864E+00 -0.40612463243E-01 -0.44946592638E-01  0.13526439781E+00  0.21940726751E-01 0.  0.
         14    1    1    2    0    0  0.10553874150E-01 -0.73937935270E-02  0.15598900931E-01  0.20233095476E-01  0.00000000000E+00 0. -1.
     999901    1    3    3    0    0  0.10838095449E+00  0.48006256770E-01  0.29347691706E-01  0.88843250672E+00  0.88000000000E+00 0.  1.
        -11    1    4    4    0    0 -0.37666489518E-01 -0.20431152173E-01 -0.23278017599E-01  0.48768059588E-01  0.51100000000E-03 0. -1.
         11    1    4    4    0    0 -0.81268339120E-01 -0.20181311070E-01 -0.21668575039E-01  0.86496338217E-01  0.51100000000E-03 0.  1.
</event>
<event>
 8    1  0.1128298E+005  0.1043930E+01  0.7957747E-01            NaN
         13   -1    0    0    0    0  0.00000000000E+00  0.00000000000E+00  0.74505805969E-08  0.10566000000E+00  0.10566000000E+00 0. -1.
     999900   -1    0    0    0    0 -0.00000000000E+00 -0.00000000000E+00 -0.74505805969E-08  0.93827000000E+00  0.93827000000E+00 0. -1.
     999902    2    1    2    0    0 -0.93670821325E-02 -0.16606367740E-01  0.55206910577E-02  0.10240807757E+01  0.10238883940E+01 0.  0.
     999903    2    3    3    0    0 -0.10166254356E+00  0.66905875710E-01 -0.51206414593E-01  0.13351314121E+00  0.19798813418E-01 0.  0.
         14    1    1    2    0    0  0.93670821325E-02  0.16606367740E-01 -0.55206910577E-02  0.19849224341E-01  0.00000000000E+00 0.  1.
     999901    1    3    3    0    0  0.92295461431E-01 -0.83512243450E-01  0.56727105650E-01  0.89056763445E+00  0.88000000000E+00 0.  1.
        -11    1    4    4    0    0 -0.28800258934E-01  0.88550504946E-02 -0.11930762469E-01  0.32410971105E-01  0.51100000000E-03 0.  1.
         11    1    4    4    0    0 -0.72862284630E-01  0.58050825216E-01 -0.39275652124E-01  0.10110217011E+00  0.51100000000E-03 0. -1.
</event>
<event>
 8    1  0.1128298E+005  0.1043930E+01  0.7957747E-01            NaN
         13   -1    0    0    0    0  0.00000000000E+00  0.00000000000E+00  0.74505805969E-08  0.10566000000E+00  0.10566000000E+00 0. -1.
     999900   -1    0    0    0    0 -0.00000000000E+00 -0.00000000000E+00 -0.74505805969E-08  0.93827000000E+00  0.93827000000E+00 0.  1.
     999902    2    1    2    0    0 -0.15811318178E-01 -0.15779789209E-01 -0.88192133309E-02  0.10199137960E+01  0.10196309986E+01 0.  0.
     999903    2    3    3    0    0 -0.79814681125E-01  0.10061787176E+00  0.74147171989E-03  0.12989342959E+00  0.19427141593E-01 0.  0.
         14    1    1    2    0    0  0.15811318178E-01  0.15779789209E-01  0.88192133309E-02  0.24016203983E-01  0.00000000000E+00 0. -1.
     999901    1    3    3    0    0  0.64003362947E-01 -0.11639766097E+00 -0.95606850508E-02  0.89002036642E+00  0.88000000000E+00 0.  1.
        -11    1    4    4    0    0 -0.30973023180E-01  0.50088539171E-01  0.71403251740E-02  0.59324828577E-01  0.51100000000E-03 0.  1.
         11    1    4    4    0    0 -0.48841657945E-01  0.50529332592E-01 -0.63988534541E-02  0.70568601017E-01  0.51100000000E-03 0. -1.
</event>
<event>
 8    1  0.1128298E+005  0.1043930E+01  0.7957747E-01            NaN
         13   -1    0    0    0    0  0.00000000000E+00  0.00000000000E+00  0.74505805969E-08  0.10566000000E+00  0.10566000000E+00 0.  1.
     999900   -1    0    0    0    0 -0.00000000000E+00 -0.00000000000E+00 -0.74505805969E-08  0.93827000000E+00  0.93827000000E+00 0. -1.
     999902    2    1    2    0    0 -0.10976445936E-01 -0.10612056982E-01 -0.18093383284E-01  0.10202557812E+01  0.10199810735E+01 0.  0.
     999903    2    3    3    0    0  0.22929259947E-01  0.46748798703E-01  0.11492035740E+00  0.12776907546E+00  0.20175404745E-01 0.  0.
         14    1    1    2    0    0  0.10976445936E-01  0.10612056982E-01  0.18093383284E-01  0.23674218835E-01  0.00000000000E+00 0.  1.
     999901    1    3    3    0    0 -0.33905705883E-01 -0.57360855685E-01 -0.13301374068E+00  0.89248670571E+00  0.88000000000E+00 0. -1.
        -11    1    4    4    0    0  0.20332534709E-01  0.23405817979E-01  0.78795685304E-01  0.84677419814E-01  0.51100000000E-03 0.  1.
         11    1    4    4    0    0  0.25967252386E-02  0.23342980724E-01  0.36124672094E-01  0.43091655642E-01  0.51100000000E-03 0. -1.
</event>
<event>
 8    1  0.1128298E+005  0.1043930E+01  0.7957747E-01            NaN
         13   -1    0    0    0    0  0.00000000000E+00  0.00000000000E+00  0.74505805969E-08  0.10566000000E+00  0.10566000000E+00 0. -1.
     999900   -1    0    0    0    0 -0.00000000000E+00 -0.00000000000E+00 -0.74505805969E-08  0.93827000000E+00  0.93827000000E+00 0. -1.
     999902    2    1    2    0    0 -0.78348341729E-03  0.87098028997E-02  0.19170046335E-01  0.10228595185E+01  0.10226424739E+01 0.  0.
     999903    2    3    3    0    0  0.63164074094E-01 -0.93023708048E-01 -0.63679983384E-01  0.13083758787E+00  0.20499356094E-01 0.  0.
         14    1    1    2    0    0  0.78348341729E-03 -0.87098028997E-02 -0.19170046335E-01  0.21070481468E-01  0.00000000000E+00 0.  1.
     999901    1    3    3    0    0 -0.63947557511E-01  0.10173351095E+00  0.82850029718E-01  0.89202193066E+00  0.88000000000E+00 0.  1.
        -11    1    4    4    0    0  0.23260498159E-01 -0.51832941109E-01 -0.28596763338E-01  0.63606136127E-01  0.51100000000E-03 0. -1.
         11    1    4    4    0    0  0.39903575935E-01 -0.41190766939E-01 -0.35083220046E-01  0.67231451741E-01  0.51100000000E-03 0.  1.
</event>
<event>
 8    1  0.1128298E+005  0.1043930E+01  0.7957747E-01            NaN
         13   -1    0    0    0    0  0.00000000000E+00  0.00000000000E+00  0.74505805969E-08  0.10566000000E+00  0.10566000000E+00 0.  1.
     999900   -1    0    0    0    0 -0.00000000000E+00 -0.00000000000E+00 -0.74505805969E-08  0.93827000000E+00  0.93827000000E+00 0.  1.
     999902    2    1    2    0    0 -0.21107532571E-01 -0.54124945570E-02 -0.95214972524E-02  0.10201501359E+01  0.10198729420E+01 0.  0.
     999903    2    3    3    0    0 -0.29666233754E-01 -0.88782719529E-01 -0.91526664465E-01  0.13237274641E+00  0.19569286419E-01 0.  0.
         14    1    1    2    0    0  0.21107532571E-01  0.54124945570E-02  0.95214972524E-02  0.23779864139E-01  0.00000000000E+00 0.  1.
     999901    1    3    3    0    0  0.85587011835E-02  0.83370224972E-01  0.82005167212E-01  0.88777738945E+00  0.88000000000E+00 0. -1.
        -11    1    4    4    0    0 -0.27409201892E-01 -0.76508397084E-01 -0.87082367556E-01  0.11911506636E+00  0.51100000000E-03 0. -1.
         11    1    4    4    0    0 -0.22570318618E-02 -0.12274322445E-01 -0.44442969087E-02  0.13257680051E-01  0.51100000000E-03 0.  1.
</event>
<event>
 8    1  0.1128298E+005  0.1043930E+01  0.7957747E-01            NaN
         13   -1    0    0    0    0  0.00000000000E+00  0.00000000000E+00  0.74505805969E-08  0.10566000000E+00  0.10566000000E+00 0. -1.
     999900   -1    0    0    0    0 -0.00000000000E+00 -0.00000000000E+00 -0.74505805969E-08  0.93827000000E+00  0.93827000000E+00 0. -1.
     999902    2    1    2    0    0 -0.13209819415E-01  0.18087333311E-01  0.79453125776E-02  0.10201649217E+01  0.10198880765E+01 0.  0.
     999903    2    3    3    0    0 -0.99596736024E-01 -0.38239627457E-01 -0.72440627281E-01  0.13050356746E+00  0.20043894464E-01 0.  0.
         14    1    1    2    0    0  0.13209819415E-01 -0.18087333311E-01 -0.79453125776E-02  0.23765078313E-01  0.00000000000E+00 0.  1.
     999901    1    3    3    0    0  0.86386916608E-01  0.56326960768E-01  0.80385939859E-01  0.88966135422E+00  0.88000000000E+00 0.  1.
        -11    1    4    4    0    0 -0.43389377001E-01 -0.23964835393E-01 -0.42191374584E-01  0.65094735442E-01  0.51100000000E-03 0.  1.
         11    1    4    4    0    0 -0.56207359022E-01 -0.14274792065E-01 -0.30249252697E-01  0.65408832022E-01  0.51100000000E-03 0. -1.
</event>
<event>
 8    1  0.1128298E+005  0.1043930E+01  0.7957747E-01            NaN
         13   -1    0    0    0    0  0.00000000000E+00  0.00000000000E+00  0.74505805969E-08  0.10566000000E+00  0.10566000000E+00 0. -1.
     999900   -1    0    0    0    0 -0.00000000000E+00 -0.00000000000E+00 -0.74505805969E-08  0.93827000000E+00  0.93827000000E+00 0. -1.
     999902    2    1    2    0    0 -0.14353884644E-01  0.78590500703E-02 -0.17108859097E-01  0.10202548710E+01  0.10199801420E+01 0.  0.
     999903    2    3    3    0    0  0.11094281352E-01 -0.11990319721E-03  0.12608861144E+00  0.12828133531E+00  0.20848635402E-01 0.  0.
         14    1    1    2    0    0  0.14353884644E-01 -0.78590500703E-02  0.17108859097E-01  0.23675128975E-01  0.00000000000E+00 0. -1.
     999901    1    3    3    0    0 -0.25448165996E-01  0.79789532675E-02 -0.14319747054E+00  0.89197353572E+00  0.88000000000E+00 0. -1.
        -11    1    4    4    0    0 -0.23636017054E-02  0.35510976027E-03  0.85083806237E-01  0.85118904602E-01  0.51100000000E-03 0.  1.
         11    1    4    4    0    0  0.13457883057E-01 -0.47501295747E-03  0.41004805204E-01  0.43162430707E-01  0.51100000000E-03 0. -1.
</event>
<event>
 8    1  0.1128298E+005  0.1043930E+01  0.7957747E-01            NaN
         13   -1    0    0    0    0  0.00000000000E+00  0.00000000000E+00  0.74505805969E-08  0.10566000000E+00  0.10566000000E+00 0. -1.
     999900   -1    0    0    0    0 -0.00000000000E+00 -0.00000000000E+00 -0.74505805969E-08  0.93827000000E+00  0.93827000000E+00 0.  1.
     999902    2    1    2    0    0  0.22708405170E-01 -0.50804276167E-02 -0.48884949102E-02  0.10201522837E+01  0.10198751405E+01 0.  0.
     999903    2    3    3    0    0 -0.11332496698E+00  0.38535075250E-01  0.38429965327E-01  0.12758078548E+00  0.21736936830E-01 0.  0.
         14    1    1    2    0    0 -0.22708405170E-01  0.50804276167E-02  0.48884949102E-02  0.23777716304E-01  0.00000000000E+00 0.  1.
     999901    1    3    3    0    0  0.13603337215E+00 -0.43615502867E-01 -0.43318460237E-01  0.89257149822E+00  0.88000000000E+00 0. -1.
        -11    1    4    4    0    0 -0.39141150029E-01  0.16437029363E-01  0.33246222069E-02  0.42585441100E-01  0.51100000000E-03 0.  1.
         11    1    4    4    0    0 -0.74183816953E-01  0.22098045887E-01  0.35105343120E-01  0.84995344380E-01  0.51100000000E-03 0. -1.
</event>
<event>
 8    1  0.1128298E+005  0.1043930E+01  0.7957747E-01            NaN
         13   -1    0    0    0    0  0.00000000000E+00  0.00000000000E+00  0.74505805969E-08  0.10566000000E+00  0.10566000000E+00 0.  1.
     999900   -1    0    0    0    0 -0.00000000000E+00 -0.00000000000E+00 -0.74505805969E-08  0.93827000000E+00  0.93827000000E+00 0. -1.
     999902    2    1    2    0    0 -0.14173048538E-01  0.16860276870E-01 -0.10073658277E-01  0.10197097021E+01  0.10194220194E+01 0.  0.
     999903    2    3    3    0    0  0.11224765741E+00 -0.55671526495E-01 -0.16141739605E-01  0.12770080132E+00  0.18656994524E-01 0.  0.
         14    1    1    2    0    0  0.14173048538E-01 -0.16860276870E-01  0.10073658277E-01  0.24220297935E-01  0.00000000000E+00 0.  1.
     999901    1    3    3    0    0 -0.12642070595E+00  0.72531803364E-01  0.60680813283E-02  0.89200890074E+00  0.88000000000E+00 0.  1.
        -11    1    4    4    0    0  0.34446001550E-01 -0.88311031856E-02 -0.84957899074E-02  0.36564394886E-01  0.51100000000E-03 0. -1.
         11    1    4    4    0    0  0.77801655860E-01 -0.46840423309E-01 -0.76459496980E-02  0.91136406436E-01  0.51100000000E-03 0.  1.
</event>
<event>
 8    1  0.1128298E+005  0.1043930E+01  0.7957747E-01            NaN
         13   -1    0    0    0    0  0.00000000000E+00  0.00000000000E+00  0.74505805969E-08  0.10566000000E+00  0.10566000000E+00 0.  1.
     999900   -1    0    0    0    0 -0.00000000000E+00 -0.00000000000E+00 -0.74505805969E-08  0.93827000000E+00  0.93827000000E+00 0.  1.
     999902    2    1    2    0    0 -0.13435667020E-01 -0.17473711033E-01  0.78100005565E-02  0.10205453077E+01  0.10202773550E+01 0.  0.
     999903    2    3    3    0    0 -0.10723342682E+00 -0.16902061002E-01 -0.71956083644E-01  0.13197287130E+00  0.21318379197E-01 0.  0.
         14    1    1    2    0    0  0.13435667020E-01  0.17473711033E-01 -0.78100005565E-02  0.23384692306E-01  0.00000000000E+00 0.  1.
     999901    1    3    3    0    0  0.93797759804E-01 -0.57165003099E-03  0.79766084200E-01  0.88857243639E+00  0.88000000000E+00 0. -1.
        -11    1    4    4    0    0 -0.44998036081E-01 -0.10063892584E-01 -0.18644647309E-01  0.49739211689E-01  0.51100000000E-03 0.  1.
         11    1    4    4    0    0 -0.62235390743E-01 -0.68381684180E-02 -0.53311436335E-01  0.82233659613E-01  0.51100000000E-03 0. -1.
</event>
<event>
 8    1  0.1128298E+005  0.1043930E+01  0.7957747E-01            NaN
         13   -1    0    0    0    0  0.00000000000E+00  0.00000000000E+00  0.74505805969E-08  0.10566000000E+00  0.10566000000E+00 0.  1.
     999900   -1    0    0    0    0 -0.00000000000E+00 -0.00000000000E+00 -0.74505805969E-08  0.93827000000E+00  0.93827000000E+00 0. -1.
     999902    2    1    2    0    0  0.43237239932E-02  0.40825640961E-02  0.23130434107E-01  0.10200473933E+01  0.10197677705E+01 0.  0.
     999903    2    3    3    0    0 -0.44611422440E-01 -0.16177880085E-01 -0.11637385235E+00  0.12748558591E+00  0.21396221333E-01 0.  0.
         14    1    1    2    0    0 -0.43237239932E-02 -0.40825640961E-02 -0.23130434107E-01  0.23882606657E-01  0.00000000000E+00 0. -1.
     999901    1    3    3    0    0  0.48935146433E-01  0.20260444181E-01  0.13950428646E+00  0.89256180744E+00  0.88000000000E+00 0.  1.
        -11    1    4    4    0    0 -0.34447927128E-01 -0.12787536440E-01 -0.62071415048E-01  0.72133920306E-01  0.51100000000E-03 0. -1.
         11    1    4    4    0    0 -0.10163495312E-01 -0.33903436446E-02 -0.54302437300E-01  0.55351665600E-01  0.51100000000E-03 0.  1.
</event>
<event>
 8    1  0.1128298E+005  0.1043930E+01  0.7957747E-01            NaN
         13   -1    0    0    0    0  0.00000000000E+00  0.00000000000E+00  0.74505805969E-08  0.10566000000E+00  0.10566000000E+00 0.  1.
     999900   -1    0    0    0    0 -0.00000000000E+00 -0.00000000000E+00 -0.74505805969E-08  0.93827000000E+00  0.93827000000E+00 0.  1.
     999902    2    1    2    0    0  0.24898566027E-02  0.22486223823E-01 -0.57189306441E-02  0.10205947088E+01  0.10203279001E+01 0.  0.
     999903    2    3    3    0    0  0.49325947279E-01 -0.11088535055E+00 -0.37819069196E-01  0.12873596711E+00  0.20348395286E-01 0.  0.
         14    1    1    2    0    0 -0.24898566027E-02 -0.22486223823E-01  0.57189306441E-02  0.23335291201E-01  0.00000000000E+00 0. -1.
     999901    1    3    3    0    0 -0.46836090677E-01  0.13337157437E+00  0.32100138552E-01  0.89185874169E+00  0.88000000000E+00 0.  1.
        -11    1    4    4    0    0  0.79817248063E-02 -0.19414900683E-01 -0.14967362576E-01  0.25786224285E-01  0.51100000000E-03 0. -1.
         11    1    4    4    0    0  0.41344222473E-01 -0.91470449865E-01 -0.22851706620E-01  0.10294974282E+00  0.51100000000E-03 0.  1.
</event>
<event>
 8    1  0.1128298E+005  0.1043930E+01  0.7957747E-01            NaN
         13   -1    0    0    0    0  0.00000000000E+00  0.00000000000E+00  0.74505805969E-08  0.10566000000E+00  0.10566000000E+00 0.  1.
     999900   -1    0    0    0    0 -0.00000000000E+00 -0.00000000000E+00 -0.74505805969E-08  0.93827000000E+00  0.93827000000E+00 0. -1.
     999902    2    1    2    0    0  0.41548281212E-02  0.22653962355E-01 -0.90996478938E-02  0.10191657476E+01  0.10188648354E+01 0.  0.
     999903    2    3    3    0    0  0.61863287978E-01  0.11531151785E+00 -0.26958931917E-03  0.13237735180E+00  0.19996950795E-01 0.  0.
         14    1    1    2    0    0 -0.41548281212E-02 -0.22653962355E-01  0.90996478938E-02  0.24764252439E-01  0.00000000000E+00 0.  1.
     999901    1    3    3    0    0 -0.57708459857E-01 -0.92657555497E-01 -0.88300585746E-02  0.88678839577E+00  0.88000000000E+00 0. -1.
        -11    1    4    4    0    0  0.42559719200E-01  0.83245297252E-01 -0.90418542313E-02  0.93931493450E-01  0.51100000000E-03 0. -1.
         11    1    4    4    0    0  0.19303568779E-01  0.32066220600E-01  0.87722649121E-02  0.38445858345E-01  0.51100000000E-03 0.  1.
</event>
<event>
 8    1  0.1128298E+005  0.1043930E+01  0.7957747E-01            NaN
         13   -1    0    0    0    0  0.00000000000E+00  0.00000000000E+00  0.74505805969E-08  0.10566000000E+00  0.10566000000E+00 0. -1.
     999900   -1    0    0    0    0 -0.00000000000E+00 -0.00000000000E+00 -0.74505805969E-08  0.93827000000E+00  0.93827000000E+00 0. -1.
     999902    2    1    2    0    0  0.68720493059E-02  0.98211788469E-03  0.22507726022E-01  0.10203760757E+01  0.10201041852E+01 0.  0.
     999903    2    3    3    0    0  0.30265276775E-01 -0.46709318494E-01  0.11946730506E+00  0.13345844926E+00  0.20999363989E-01 0.  0.
         14    1    1    2    0    0 -0.68720493059E-02 -0.98211788469E-03 -0.22507726022E-01  0.23553924257E-01  0.00000000000E+00 0.  1.
     999901    1    3    3    0    0 -0.23393227469E-01  0.47691436379E-01 -0.96959579041E-01  0.88691762648E+00  0.88000000000E+00 0. -1.
        -11    1    4    4    0    0  0.30415350406E-01 -0.45659321837E-01  0.10088289415E+00  0.11483678272E+00  0.51100000000E-03 0. -1.
         11    1    4    4    0    0 -0.15007363111E-03 -0.10499966578E-02  0.18584410910E-01  0.18621666546E-01  0.51100000000E-03 0.  1.
</event>
<event>
 8    1  0.1128298E+005  0.1043930E+01  0.7957747E-01            NaN
         13   -1    0    0    0    0  0.00000000000E+00  0.00000000000E+00  0.74505805969E-08  0.10566000000E+00  0.10566000000E+00 0.  1.
     999900   -1    0    0    0    0 -0.00000000000E+00 -0.00000000000E+00 -0.74505805969E-08  0.93827000000E+00  0.93827000000E+00 0.  1.
     999902    2    1    2    0    0  0.22474546840E-01  0.58299693206E-02 -0.62334428127E-02  0.10198894175E+01  0.10196060388E+01 0.  0.
     999903    2    3    3    0    0 -0.95261991580E-01  0.24284223857E-01  0.78971201969E-01  0.12777827897E+00  0.20646240997E-01 0.  0.
         14    1    1    2    0    0 -0.22474546840E-01 -0.58299693206E-02  0.62334428127E-02  0.24040582506E-01  0.00000000000E+00 0.  1.
     999901    1    3    3    0    0  0.11773653842E+00 -0.18454254536E-01 -0.85204644782E-01  0.89211113853E+00  0.88000000000E+00 0.  1.
        -11    1    4    4    0    0 -0.26570192896E-01  0.76308948030E-02  0.11127468538E-01  0.29804150434E-01  0.51100000000E-03 0. -1.
         11    1    4    4    0    0 -0.68691798684E-01  0.16653329054E-01  0.67843733431E-01  0.97974128534E-01  0.51100000000E-03 0.  1.
</event>
<event>
 8    1  0.1128298E+005  0.1043930E+01  0.7957747E-01            NaN
         13   -1    0    0    0    0  0.00000000000E+00  0.00000000000E+00  0.74505805969E-08  0.10566000000E+00  0.10566000000E+00 0.  1.
     999900   -1    0    0    0    0 -0.00000000000E+00 -0.00000000000E+00 -0.74505805969E-08  0.93827000000E+00  0.93827000000E+00 0.  1.
     999902    2    1    2    0    0 -0.11194776763E-01 -0.14559110419E-01 -0.14837181387E-01  0.10203199878E+01  0.10200467856E+01 0.  0.
     999903    2    3    3    0    0 -0.49251950829E-02 -0.50440688610E-01 -0.12141874535E+00  0.13314107404E+00  0.20384142332E-01 0.  0.
         14    1    1    2    0    0  0.11194776763E-01  0.14559110419E-01  0.14837181387E-01  0.23610012166E-01  0.00000000000E+00 0.  1.
     999901    1    3    3    0    0 -0.62695816800E-02  0.35881578191E-01  0.10658156397E+00  0.88717891380E+00  0.88000000000E+00 0. -1.
        -11    1    4    4    0    0 -0.87533173417E-02 -0.15006253410E-01 -0.56088749426E-01  0.58719818963E-01  0.51100000000E-03 0.  1.
         11    1    4    4    0    0  0.38281222588E-02 -0.35434435200E-01 -0.65329995928E-01  0.74421255075E-01  0.51100000000E-03 0. -1.
</event>
<event>
 8    1  0.1503919E+005  0.1043930E+01  0.7957747E-01            NaN
         13   -1    0    0    0    0  0.00000000000E+00  0.00000000000E+00  0.74505805969E-08  0.10566000000E+00  0.10566000000E+00 0. -1.
     999900   -1    0    0    0    0 -0.00000000000E+00 -0.00000000000E+00 -0.74505805969E-08  0.93827000000E+00  0.93827000000E+00 0.  1.
     999902    2    1    2    0    0 -0.15054992761E-01 -0.12545409888E-01  0.12670829100E-01  0.10205935473E+01  0.10203267117E+01 0.  0.
     999903    2    3    3    0    0 -0.84128513112E-01 -0.49587378896E-01  0.89190000319E-01  0.13380245448E+00  0.20291027640E-01 0.  0.
         14    1    1    2    0    0  0.15054992761E-01  0.12545409888E-01 -0.12670829100E-01  0.23336452738E-01  0.00000000000E+00 0.  1.
     999901    1    3    3    0    0  0.69073520350E-01  0.37041969008E-01 -0.76519171219E-01  0.88679109279E+00  0.88000000000E+00 0.  1.
        -11    1    4    4    0    0 -0.50560000052E-01 -0.40630226961E-01  0.54791642403E-01  0.84908857879E-01  0.51100000000E-03 0.  1.
         11    1    4    4    0    0 -0.33568513060E-01 -0.89571519355E-02  0.34398357916E-01  0.48893596596E-01  0.51100000000E-03 0. -1.
</event>
<event>
 8    1  0.1128298E+005  0.1043930E+01  0.7957747E-01            NaN
         13   -1    0    0    0    0  0.00000000000E+00  0.00000000000E+00  0.74505805969E-08  0.10566000000E+00  0.10566000000E+00 0.  1.
     999900   -1    0    0    0    0 -0.00000000000E+00 -0.00000000000E+00 -0.74505805969E-08  0.93827000000E+00  0.93827000000E+00 0. -1.
     999902    2    1    2    0    0 -0.17193221019E-01  0.14977013206E-01 -0.14749565058E-01  0.10167736482E+01  0.10164109328E+01 0.  0.
     999903    2    3    3    0    0 -0.79726216645E-01 -0.58604364106E-01  0.76801992889E-01  0.12677011878E+00  0.19528845071E-01 0.  0.
         14    1    1    2    0    0  0.17193221019E-01 -0.14977013206E-01  0.14749565058E-01  0.27156351798E-01  0.00000000000E+00 0. -1.
     999901    1    3    3    0    0  0.62532995626E-01  0.73581377312E-01 -0.91551557947E-01  0.89000352943E+00  0.88000000000E+00 0. -1.
        -11    1    4    4    0    0 -0.43506364532E-01 -0.23523701336E-01  0.46803969364E-01  0.68095821815E-01  0.51100000000E-03 0.  1.
         11    1    4    4    0    0 -0.36219852113E-01 -0.35080662770E-01  0.29998023524E-01  0.58674296961E-01  0.51100000000E-03 0. -1.
</event>
<event>
 8    1  0.1128298E+005  0.1043930E+01  0.7957747E-01            NaN
         13   -1    0    0    0    0  0.00000000000E+00  0.00000000000E+00  0.74505805969E-08  0.10566000000E+00  0.10566000000E+00 0.  1.
     999900   -1    0    0    0    0 -0.00000000000E+00 -0.00000000000E+00 -0.74505805969E-08  0.93827000000E+00  0.93827000000E+00 0. -1.
     999902    2    1    2    0    0 -0.15020113182E-01  0.87765199276E-03  0.15337052773E-01  0.10224451388E+01  0.10222193809E+01 0.  0.
     999903    2    3    3    0    0  0.68170693277E-01  0.40513454211E-01 -0.99881505087E-01  0.13016321969E+00  0.26030084663E-01 0.  0.
         14    1    1    2    0    0  0.15020113182E-01 -0.87765199276E-03 -0.15337052773E-01  0.21484861200E-01  0.00000000000E+00 0. -1.
     999901    1    3    3    0    0 -0.83190806458E-01 -0.39635802218E-01  0.11521855786E+00  0.89228191911E+00  0.88000000000E+00 0.  1.
        -11    1    4    4    0    0  0.61542711746E-01  0.41002627932E-01 -0.78861222116E-01  0.10811139783E+00  0.51100000000E-03 0.  1.
         11    1    4    4    0    0  0.66279815308E-02 -0.48917372085E-03 -0.21020282970E-01  0.22051821858E-01  0.51100000000E-03 0. -1.
</event>
<event>
 8    1  0.1128298E+005  0.1043930E+01  0.7957747E-01            NaN
         13   -1    0    0    0    0  0.00000000000E+00  0.00000000000E+00  0.74505805969E-08  0.10566000000E+00  0.10566000000E+00 0.  1.
     999900   -1    0    0    0    0 -0.00000000000E+00 -0.00000000000E+00 -0.74505805969E-08  0.93827000000E+00  0.93827000000E+00 0. -1.
     999902    2    1    2    0    0  0.39110056999E-02  0.11111880527E-01  0.19628477516E-01  0.10210379275E+01  0.10207812706E+01 0.  0.
     999903    2    3    3    0    0 -0.37919295175E-01 -0.12218566532E+00 -0.58174963633E-02  0.12965388714E+00  0.20225662648E-01 0.  0.
         14    1    1    2    0    0 -0.39110056999E-02 -0.11111880527E-01 -0.19628477516E-01  0.22892072515E-01  0.00000000000E+00 0. -1.
     999901    1    3    3    0    0  0.41830300875E-01  0.13329754585E+00  0.25445973879E-01  0.89138404035E+00  0.88000000000E+00 0.  1.
        -11    1    4    4    0    0 -0.12050762757E-01 -0.61185986210E-01 -0.10445970532E-01  0.63232311463E-01  0.51100000000E-03 0. -1.
         11    1    4    4    0    0 -0.25868532418E-01 -0.60999679110E-01  0.46284741682E-02  0.66421575675E-01  0.51100000000E-03 0.  1.
</event>
<event>
 8    1  0.1128298E+005  0.1043930E+01  0.7957747E-01            NaN
         13   -1    0    0    0    0  0.00000000000E+00  0.00000000000E+00  0.74505805969E-08  0.10566000000E+00  0.10566000000E+00 0.  1.
     999900   -1    0    0    0    0 -0.00000000000E+00 -0.00000000000E+00 -0.74505805969E-08  0.93827000000E+00  0.93827000000E+00 0.  1.
     999902    2    1    2    0    0 -0.15955212036E-01 -0.19948431107E-01 -0.79814482225E-02  0.10171678586E+01  0.10168157357E+01 0.  0.
     999903    2    3    3    0    0  0.61486421576E-01  0.10462330044E+00 -0.22033840911E-01  0.12491632871E+00  0.19798585768E-01 0.  0.
         14    1    1    2    0    0  0.15955212036E-01  0.19948431107E-01  0.79814482225E-02  0.26762141366E-01  0.00000000000E+00 0.  1.
     999901    1    3    3    0    0 -0.77441633613E-01 -0.12457173155E+00  0.14052392688E-01  0.89225152993E+00  0.88000000000E+00 0.  1.
        -11    1    4    4    0    0  0.37740403957E-01  0.76863604302E-01 -0.21880616990E-01  0.88381979374E-01  0.51100000000E-03 0. -1.
         11    1    4    4    0    0  0.23746017619E-01  0.27759696141E-01 -0.15322392072E-03  0.36534349333E-01  0.51100000000E-03 0.  1.
</event>
<event>
 8    1  0.1128298E+005  0.1043930E+01  0.7957747E-01            NaN
         13   -1    0    0    0    0  0.00000000000E+00  0.00000000000E+00  0.74505805969E-08  0.10566000000E+00  0.10566000000E+00 0.  1.
     999900   -1    0    0    0    0 -0.00000000000E+00 -0.00000000000E+00 -0.74505805969E-08  0.93827000000E+00  0.93827000000E+00 0.  1.
     999902    2    1    2    0    0 -0.18876763819E-01  0.57198278944E-02  0.13469510842E-01  0.10200453529E+01  0.10197656817E+01 0.  0.
     999903    2    3    3    0    0  0.46176851607E-01  0.11323055639E+00  0.41459906361E-01  0.13067816674E+00  0.20109671869E-01 0.  0.
         14    1    1    2    0    0  0.18876763819E-01 -0.57198278944E-02 -0.13469510842E-01  0.23884647072E-01  0.00000000000E+00 0. -1.
     999901    1    3    3    0    0 -0.65053615426E-01 -0.10751072850E+00 -0.27990395518E-01  0.88936718619E+00  0.88000000000E+00 0. -1.
        -11    1    4    4    0    0  0.25592158226E-01  0.40094716178E-01  0.20959992254E-01  0.51981989423E-01  0.51100000000E-03 0.  1.
         11    1    4    4    0    0  0.20584693380E-01  0.73135840214E-01  0.20499914107E-01  0.78696177320E-01  0.51100000000E-03 0. -1.
</event>
<event>
 8    1  0.1128298E+005  0.1043930E+01  0.7957747E-01            NaN
         13   -1    0    0    0    0  0.00000000000E+00  0.00000000000E+00  0.74505805969E-08  0.10566000000E+00  0.10566000000E+00 0. -1.
     999900   -1    0    0    0    0 -0.00000000000E+00 -0.00000000000E+00 -0.74505805969E-08  0.93827000000E+00  0.93827000000E+00 0.  1.
     999902    2    1    2    0    0  0.85688838216E-02  0.30487656547E-02 -0.23727239632E-01  0.10185193203E+01  0.10182022899E+01 0.  0.
     999903    2    3    3    0    0 -0.74972957972E-01  0.33792215721E-01  0.93731004479E-01  0.12626328185E+00  0.19850865782E-01 0.  0.
         14    1    1    2    0    0 -0.85688838216E-02 -0.30487656547E-02  0.23727239632E-01  0.25410679695E-01  0.00000000000E+00 0. -1.
     999901    1    3    3    0    0  0.83541841793E-01 -0.30743450066E-01 -0.11745824411E+00  0.89225603846E+00  0.88000000000E+00 0.  1.
        -11    1    4    4    0    0 -0.24270952160E-01  0.19148152108E-01  0.43770728072E-01  0.53589818108E-01  0.51100000000E-03 0.  1.
         11    1    4    4    0    0 -0.50702005812E-01  0.14644063613E-01  0.49960276406E-01  0.72673463741E-01  0.51100000000E-03 0. -1.
</event>
<event>
 8    1  0.1128298E+005  0.1043930E+01  0.7957747E-01            NaN
         13   -1    0    0    0    0  0.00000000000E+00  0.00000000000E+00  0.74505805969E-08  0.10566000000E+00  0.10566000000E+00 0.  1.
     999900   -1    0    0    0    0 -0.00000000000E+00 -0.00000000000E+00 -0.74505805969E-08  0.93827000000E+00  0.93827000000E+00 0.  1.
     999902    2    1    2    0    0  0.11536609055E-01  0.54599768754E-02 -0.20591299132E-01  0.10197038510E+01  0.10194160276E+01 0.  0.
     999903    2    3    3    0    0 -0.27198674235E-01  0.14480712303E-01 -0.12755938996E+00  0.13233472357E+00  0.17076949019E-01 0.  0.
         14    1    1    2    0    0 -0.11536609055E-01 -0.54599768754E-02  0.20591299132E-01  0.24226149011E-01  0.00000000000E+00 0.  1.
     999901    1    3    3    0    0  0.38735283290E-01 -0.90207354275E-02  0.10696809082E+00  0.88736912742E+00  0.88000000000E+00 0. -1.
        -11    1    4    4    0    0 -0.29521455451E-01  0.12361670496E-01 -0.11759283325E+00  0.12187150111E+00  0.51100000000E-03 0. -1.
         11    1    4    4    0    0  0.23227812157E-02  0.21190418071E-02 -0.99665567080E-02  0.10463222466E-01  0.51100000000E-03 0.  1.
</event>
<event>
 8    1  0.1128298E+005  0.1043930E+01  0.7957747E-01            NaN
         13   -1    0    0    0    0  0.00000000000E+00  0.00000000000E+00  0.74505805969E-08  0.10566000000E+00  0.10566000000E+00 0.  1.
     999900   -1    0    0    0    0 -0.00000000000E+00 -0.00000000000E+00 -0.74505805969E-08  0.93827000000E+00  0.93827000000E+00 0. -1.
     999902    2    1    2    0    0 -0.21613143973E-01 -0.27329448367E-02  0.92751430246E-02  0.10202524736E+01  0.10199776883E+01 0.  0.
     999903    2    3    3    0    0 -0.53107767545E-01 -0.94501175990E-01 -0.71073717619E-01  0.13128157473E+00  0.20795944108E-01 0.  0.
         14    1    1    2    0    0  0.21613143973E-01  0.27329448367E-02 -0.92751430246E-02  0.23677526433E-01  0.00000000000E+00 0. -1.
     999901    1    3    3    0    0  0.31494623572E-01  0.91768231154E-01  0.80348860644E-01  0.88897089883E+00  0.88000000000E+00 0. -1.
        -11    1    4    4    0    0 -0.14538555152E-01 -0.44390198322E-01 -0.24528418218E-01  0.52761384689E-01  0.51100000000E-03 0. -1.
         11    1    4    4    0    0 -0.38569212393E-01 -0.50110977668E-01 -0.46545299401E-01  0.78520190046E-01  0.51100000000E-03 0.  1.
</event>
<event>
 8    1  0.1128298E+005  0.1043930E+01  0.7957747E-01            NaN
         13   -1    0    0    0    0  0.00000000000E+00  0.00000000000E+00  0.74505805969E-08  0.10566000000E+00  0.10566000000E+00 0.  1.
     999900   -1    0    0    0    0 -0.00000000000E+00 -0.00000000000E+00 -0.74505805969E-08  0.93827000000E+00  0.93827000000E+00 0.  1.
     999902    2    1    2    0    0 -0.61513571321E-02  0.23823579520E-01 -0.27841030201E-02  0.10191680662E+01  0.10188672111E+01 0.  0.
     999903    2    3    3    0    0 -0.78823025534E-01 -0.97231429774E-01 -0.15739820574E-01  0.12781889933E+00  0.20564746164E-01 0.  0.
         14    1    1    2    0    0  0.61513571321E-02 -0.23823579520E-01  0.27841030201E-02  0.24761933796E-01  0.00000000000E+00 0. -1.
     999901    1    3    3    0    0  0.72671668402E-01  0.12105500929E+00  0.12955717554E-01  0.89134916687E+00  0.88000000000E+00 0.  1.
        -11    1    4    4    0    0 -0.54212549511E-01 -0.64786591996E-01 -0.92865052391E-03  0.84483291483E-01  0.51100000000E-03 0.  1.
         11    1    4    4    0    0 -0.24610476023E-01 -0.32444837777E-01 -0.14811170050E-01  0.43335607850E-01  0.51100000000E-03 0. -1.
</event>
<event>
 8    1  0.1128298E+005  0.1043930E+01  0.7957747E-01            NaN
         13   -1    0    0    0    0  0.00000000000E+00  0.00000000000E+00  0.74505805969E-08  0.10566000000E+00  0.10566000000E+00 0.  1.
     999900   -1    0    0    0    0 -0.00000000000E+00 -0.00000000000E+00 -0.74505805969E-08  0.93827000000E+00  0.93827000000E+00 0. -1.
     999902    2    1    2    0    0  0.71459948927E-02 -0.56797730676E-02 -0.21849932760E-01  0.10202499530E+01  0.10199751085E+01 0.  0.
     999903    2    3    3    0    0 -0.58574101595E-01  0.81952672050E-01  0.76636491705E-01  0.12800662725E+00  0.19114887499E-01 0.  0.
         14    1    1    2    0    0 -0.71459948927E-02  0.56797730676E-02  0.21849932760E-01  0.23680047017E-01  0.00000000000E+00 0.  1.
     999901    1    3    3    0    0  0.65720096488E-01 -0.87632445118E-01 -0.98486424465E-01  0.89224332574E+00  0.88000000000E+00 0. -1.
        -11    1    4    4    0    0 -0.15844337601E-01  0.31599308210E-01  0.17911140009E-01  0.39631166660E-01  0.51100000000E-03 0. -1.
         11    1    4    4    0    0 -0.42729763994E-01  0.50353363840E-01  0.58725351695E-01  0.88375460585E-01  0.51100000000E-03 0.  1.
</event>
<event>
 8    1  0.1128298E+005  0.1043930E+01  0.7957747E-01            NaN
         13   -1    0    0    0    0  0.00000000000E+00  0.00000000000E+00  0.74505805969E-08  0.10566000000E+00  0.10566000000E+00 0.  1.
     999900   -1    0    0    0    0 -0.00000000000E+00 -0.00000000000E+00 -0.74505805969E-08  0.93827000000E+00  0.93827000000E+00 0.  1.
     999902    2    1    2    0    0 -0.63544786686E-02 -0.23542702312E-02 -0.20323240119E-01  0.10225067398E+01  0.10222822883E+01 0.  0.
     999903    2    3    3    0    0  0.26973385750E-04 -0.13074023965E+00 -0.17039806559E-01  0.13316177807E+00  0.18673326923E-01 0.  0.
         14    1    1    2    0    0  0.63544786686E-02  0.23542702312E-02  0.20323240119E-01  0.21423260172E-01  0.00000000000E+00 0.  1.
     999901    1    3    3    0    0 -0.63814520544E-02  0.12838596942E+00 -0.32834335597E-02  0.88934496176E+00  0.88000000000E+00 0. -1.
        -11    1    4    4    0    0 -0.81777988616E-02 -0.80429088325E-01 -0.14378240667E-01  0.82114003487E-01  0.51100000000E-03 0. -1.
         11    1    4    4    0    0  0.82047722473E-02 -0.50311151327E-01 -0.26615658919E-02  0.51047774579E-01  0.51100000000E-03 0.  1.
</event>
<event>
 8    1  0.1128298E+005  0.1043930E+01  0.7957747E-01            NaN
         13   -1    0    0    0    0  0.00000000000E+00  0.00000000000E+00  0.74505805969E-08  0.10566000000E+00  0.10566000000E+00 0.  1.
     999900   -1    0    0    0    0 -0.00000000000E+00 -0.00000000000E+00 -0.74505805969E-08  0.93827000000E+00  0.93827000000E+00 0.  1.
     999902    2    1    2    0    0 -0.94912692632E-02  0.21498219426E-01  0.70092777139E-02  0.10194067946E+01  0.10191117825E+01 0.  0.
     999903    2    3    3    0    0  0.10238023204E+00 -0.71671048247E-01  0.10598243212E-01  0.12743783439E+00  0.22574937565E-01 0.  0.
         14    1    1    2    0    0  0.94912692632E-02 -0.21498219426E-01 -0.70092777139E-02  0.24523205434E-01  0.00000000000E+00 0. -1.
     999901    1    3    3    0    0 -0.11187150130E+00  0.93169267672E-01 -0.35889654977E-02  0.89196896017E+00  0.88000000000E+00 0.  1.
        -11    1    4    4    0    0  0.36228270324E-01 -0.38920304658E-01  0.38949810805E-02  0.53317067473E-01  0.51100000000E-03 0.  1.
         11    1    4    4    0    0  0.66151961714E-01 -0.32750743589E-01  0.67032621311E-02  0.74120766918E-01  0.51100000000E-03 0. -1.
</event>
<event>
 8    1  0.1128298E+005  0.1043930E+01  0.7957747E-01            NaN
         13   -1    0    0    0    0  0.00000000000E+00  0.00000000000E+00  0.74505805969E-08  0.10566000000E+00  0.10566000000E+00 0. -1.
     999900   -1    0    0    0    0 -0.00000000000E+00 -0.00000000000E+00 -0.74505805969E-08  0.93827000000E+00  0.93827000000E+00 0. -1.
     999902    2    1    2    0    0 -0.13380136811E-02 -0.11453404286E-01  0.20562658067E-01  0.10203547236E+01  0.10200823341E+01 0.  0.
     999903    2    3    3    0    0  0.69609504568E-01 -0.49917259633E-01  0.10015546869E+00  0.13308473425E+00  0.18525999153E-01 0.  0.
         14    1    1    2    0    0  0.13380136811E-02  0.11453404286E-01 -0.20562658067E-01  0.23575276395E-01  0.00000000000E+00 0.  1.
     999901    1    3    3    0    0 -0.70947518249E-01  0.38463855347E-01 -0.79592810627E-01  0.88726998936E+00  0.88000000000E+00 0. -1.
        -11    1    4    4    0    0  0.50645105939E-02 -0.11252823404E-01  0.12655805093E-01  0.17683490201E-01  0.51100000000E-03 0.  1.
         11    1    4    4    0    0  0.64544993974E-01 -0.38664436228E-01  0.87499663601E-01  0.11540124405E+00  0.51100000000E-03 0. -1.
</event>
<event>
 8    1  0.1128298E+005  0.1043930E+01  0.7957747E-01            NaN
         13   -1    0    0    0    0  0.00000000000E+00  0.00000000000E+00  0.74505805969E-08  0.10566000000E+00  0.10566000000E+00 0. -1.
     999900   -1    0    0    0    0 -0.00000000000E+00 -0.00000000000E+00 -0.74505805969E-08  0.93827000000E+00  0.93827000000E+00 0. -1.
     999902    2    1    2    0    0 -0.35785421978E-02 -0.94049313531E-03  0.22815325711E-01  0.10208165931E+01  0.10205548918E+01 0.  0.
     999903    2    3    3    0    0 -0.68946632577E-01 -0.92928116991E-01  0.61901827105E-01  0.13274989246E+00  0.20035585281E-01 0.  0.
         14    1    1    2    0    0  0.35785421978E-02  0.94049313531E-03 -0.22815325711E-01  0.23113406908E-01  0.00000000000E+00 0.  1.
     999901    1    3    3    0    0  0.65368090379E-01  0.91987623856E-01 -0.39086501395E-01  0.88806670063E+00  0.88000000000E+00 0. -1.
        -11    1    4    4    0    0 -0.25847960218E-01 -0.22508347393E-01  0.24357533907E-01  0.42051079996E-01  0.51100000000E-03 0.  1.
         11    1    4    4    0    0 -0.43098672359E-01 -0.70419769599E-01  0.37544293199E-01  0.90698812463E-01  0.51100000000E-03 0. -1.
</event>
<event>
 8    1  0.1128298E+005  0.1043930E+01  0.7957747E-01            NaN
         13   -1    0    0    0    0  0.00000000000E+00  0.00000000000E+00  0.74505805969E-08  0.10566000000E+00  0.10566000000E+00 0.  1.
     999900   -1    0    0    0    0 -0.00000000000E+00 -0.00000000000E+00 -0.74505805969E-08  0.93827000000E+00  0.93827000000E+00 0.  1.
     999902    2    1    2    0    0  0.17436091706E-01  0.45184362929E-02  0.13667136066E-01  0.10213197331E+01  0.10210694262E+01 0.  0.
     999903    2    3    3    0    0  0.85771044707E-01  0.95227686712E-01  0.33491461027E-01  0.13380024726E+00  0.18863821915E-01 0.  0.
         14    1    1    2    0    0 -0.17436091706E-01 -0.45184362929E-02 -0.13667136066E-01  0.22610266888E-01  0.00000000000E+00 0. -1.
     999901    1    3    3    0    0 -0.68334953001E-01 -0.90709250419E-01 -0.19824324961E-01  0.88751948586E+00  0.88000000000E+00 0.  1.
        -11    1    4    4    0    0  0.58261268263E-01  0.58772098542E-01  0.29871839185E-01  0.87983651004E-01  0.51100000000E-03 0.  1.
         11    1    4    4    0    0  0.27509776444E-01  0.36455588170E-01  0.36196218423E-02  0.45816596252E-01  0.51100000000E-03 0. -1.
</event>
<event>
 8    1  0.1128298E+005  0.1043930E+01  0.7957747E-01            NaN
         13   -1    0    0    0    0  0.00000000000E+00  0.00000000000E+00  0.74505805969E-08  0.10566000000E+00  0.10566000000E+00 0. -1.
     999900   -1    0    0    0    0 -0.00000000000E+00 -0.00000000000E+00 -0.74505805969E-08  0.93827000000E+00  0.93827000000E+00 0. -1.
     999902    2    1    2    0    0  0.12024666871E-01  0.90912246074E-02  0.18808661657E-01  0.10198258773E+01  0.10195409807E+01 0.  0.
     999903    2    3    3    0    0 -0.24084554164E-01 -0.36625024870E-03 -0.12337150652E+00  0.12763278166E+00  0.22122351702E-01 0.  0.
         14    1    1    2    0    0 -0.12024666871E-01 -0.90912246074E-02 -0.18808661657E-01  0.24104122709E-01  0.00000000000E+00 0.  1.
     999901    1    3    3    0    0  0.36109221035E-01  0.94574748561E-02  0.14218016817E+00  0.89219309563E+00  0.88000000000E+00 0.  1.
        -11    1    4    4    0    0 -0.12638175919E-03  0.73543729225E-02 -0.23061177571E-01  0.24211191738E-01  0.51100000000E-03 0.  1.
         11    1    4    4    0    0 -0.23958172405E-01 -0.77206231712E-02 -0.10031032895E+00  0.10342158992E+00  0.51100000000E-03 0. -1.
</event>
<event>
 8    1  0.1128298E+005  0.1043930E+01  0.7957747E-01            NaN
         13   -1    0    0    0    0  0.00000000000E+00  0.00000000000E+00  0.74505805969E-08  0.10566000000E+00  0.10566000000E+00 0. -1.
     999900   -1    0    0    0    0 -0.00000000000E+00 -0.00000000000E+00 -0.74505805969E-08  0.93827000000E+00  0.93827000000E+00 0.  1.
     999902    2    1    2    0    0  0.75853933483E-02 -0.73334023448E-02  0.21182512717E-01  0.10202653465E+01  0.10199908634E+01 0.  0.
     999903    2    3    3    0    0  0.52839115542E-01 -0.78294172175E-01  0.92355186219E-01  0.13338943649E+00  0.18474626331E-01 0.  0.
         14    1    1    2    0    0 -0.75853933483E-02  0.73334023448E-02 -0.21182512717E-01  0.23664653541E-01  0.00000000000E+00 0.  1.
     999901    1    3    3    0    0 -0.45253722194E-01  0.70960769830E-01 -0.71172673502E-01  0.88687590997E+00  0.88000000000E+00 0. -1.
        -11    1    4    4    0    0  0.22511931714E-01 -0.49343855369E-01  0.54722981662E-01  0.77048484574E-01  0.51100000000E-03 0.  1.
         11    1    4    4    0    0  0.30327183828E-01 -0.28950316806E-01  0.37632204557E-01  0.56340951917E-01  0.51100000000E-03 0. -1.
</event>
<event>
 8    1  0.1128298E+005  0.1043930E+01  0.7957747E-01            NaN
         13   -1    0    0    0    0  0.00000000000E+00  0.00000000000E+00  0.74505805969E-08  0.10566000000E+00  0.10566000000E+00 0.  1.
     999900   -1    0    0    0    0 -0.00000000000E+00 -0.00000000000E+00 -0.74505805969E-08  0.93827000000E+00  0.93827000000E+00 0. -1.
     999902    2    1    2    0    0  0.17519961977E-01  0.14207351205E-01 -0.65820304118E-02  0.10204327444E+01  0.10201621758E+01 0.  0.
     999903    2    3    3    0    0  0.57811190335E-01  0.26767438522E-01 -0.11488332285E+00  0.13278962422E+00  0.19397859090E-01 0.  0.
         14    1    1    2    0    0 -0.17519961977E-01 -0.14207351205E-01  0.65820304118E-02  0.23497255590E-01  0.00000000000E+00 0. -1.
     999901    1    3    3    0    0 -0.40291228358E-01 -0.12560087317E-01  0.10830129244E+00  0.88764312019E+00  0.88000000000E+00 0.  1.
        -11    1    4    4    0    0  0.60417950535E-02  0.38323038886E-02 -0.29332259048E-01  0.30196562428E-01  0.51100000000E-03 0.  1.
         11    1    4    4    0    0  0.51769395281E-01  0.22935134633E-01 -0.85551063807E-01  0.10259306179E+00  0.51100000000E-03 0. -1.
</event>
<event>
 8    1  0.1128298E+005  0.1043930E+01  0.7957747E-01            NaN
         13   -1    0    0    0    0  0.00000000000E+00  0.00000000000E+00  0.74505805969E-08  0.10566000000E+00  0.10566000000E+00 0. -1.
     999900   -1    0    0    0    0 -0.00000000000E+00 -0.00000000000E+00 -0.74505805969E-08  0.93827000000E+00  0.93827000000E+00 0.  1.
     999902    2    1    2    0    0 -0.14922343170E-01 -0.12144392959E-01 -0.13553208712E-01  0.10203959380E+01  0.10201245112E+01 0.  0.
     999903    2    3    3    0    0 -0.15404384562E-01 -0.63108568915E-01 -0.11438096964E+00  0.13317340847E+00  0.20788553955E-01 0.  0.
         14    1    1    2    0    0  0.14922343170E-01  0.12144392959E-01  0.13553208712E-01  0.23534061961E-01  0.00000000000E+00 0. -1.
     999901    1    3    3    0    0  0.48204139202E-03  0.50964175956E-01  0.10082776092E+00  0.88722252957E+00  0.88000000000E+00 0. -1.
        -11    1    4    4    0    0  0.91786666019E-03 -0.18462957488E-02 -0.15948030415E-01  0.16088880704E-01  0.51100000000E-03 0.  1.
         11    1    4    4    0    0 -0.16322251222E-01 -0.61262273166E-01 -0.98432939221E-01  0.11708452777E+00  0.51100000000E-03 0. -1.
</event>
<event>
 8    1  0.1128298E+005  0.1043930E+01  0.7957747E-01            NaN
         13   -1    0    0    0    0  0.00000000000E+00  0.00000000000E+00  0.74505805969E-08  0.10566000000E+00  0.10566000000E+00 0. -1.
     999900   -1    0    0    0    0 -0.00000000000E+00 -0.00000000000E+00 -0.74505805969E-08  0.93827000000E+00  0.93827000000E+00 0.  1.
     999902    2    1    2    0    0 -0.10827925400E-01 -0.19127341129E-01  0.98538585971E-02  0.10198427072E+01  0.10195582130E+01 0.  0.
     999903    2    3    3    0    0  0.83405949656E-01 -0.83436521221E-01  0.54394589699E-01  0.13136109757E+00  0.19461784469E-01 0.  0.
         14    1    1    2    0    0  0.10827925400E-01  0.19127341129E-01 -0.98538585971E-02  0.24087292840E-01  0.00000000000E+00 0.  1.
     999901    1    3    3    0    0 -0.94233875056E-01  0.64309180092E-01 -0.44540731102E-01  0.88848160959E+00  0.88000000000E+00 0. -1.
        -11    1    4    4    0    0  0.36782615114E-01 -0.39420356658E-01  0.35346008366E-01  0.64471130920E-01  0.51100000000E-03 0.  1.
         11    1    4    4    0    0  0.46623334542E-01 -0.44016164563E-01  0.19048581333E-01  0.66889966650E-01  0.51100000000E-03 0. -1.
</event>
<event>
 8    1  0.1128298E+005  0.1043930E+01  0.7957747E-01            NaN
         13   -1    0    0    0    0  0.00000000000E+00  0.00000000000E+00  0.74505805969E-08  0.10566000000E+00  0.10566000000E+00 0. -1.
     999900   -1    0    0    0    0 -0.00000000000E+00 -0.00000000000E+00 -0.74505805969E-08  0.93827000000E+00  0.93827000000E+00 0. -1.
     999902    2    1    2    0    0  0.16350084196E-01 -0.60213385300E-02 -0.15855325485E-01  0.10203721326E+01  0.10201001499E+01 0.  0.
     999903    2    3    3    0    0 -0.71084263194E-01  0.13991004634E-01  0.10301643603E+00  0.12786120567E+00  0.22076710278E-01 0.  0.
         14    1    1    2    0    0 -0.16350084196E-01  0.60213385300E-02  0.15855325485E-01  0.23557867415E-01  0.00000000000E+00 0. -1.
     999901    1    3    3    0    0  0.87434347389E-01 -0.20012343164E-01 -0.11887176152E+00  0.89251092692E+00  0.88000000000E+00 0. -1.
        -11    1    4    4    0    0 -0.55087065713E-01  0.76866972043E-02  0.61503954218E-01  0.82925675326E-01  0.51100000000E-03 0.  1.
         11    1    4    4    0    0 -0.15997197481E-01  0.63043074302E-02  0.41512481817E-01  0.44935530340E-01  0.51100000000E-03 0. -1.
</event>
<event>
 8    1  0.1128298E+005  0.1043930E+01  0.7957747E-01            NaN
         13   -1    0    0    0    0  0.00000000000E+00  0.00000000000E+00  0.74505805969E-08  0.10566000000E+00  0.10566000000E+00 0. -1.
     999900   -1    0    0    0    0 -0.00000000000E+00 -0.00000000000E+00 -0.74505805969E-08  0.93827000000E+00  0.93827000000E+00 0.  1.
     999902    2    1    2    0    0 -0.22574414838E-02  0.21595769535E-01 -0.10075732131E-01  0.10199927136E+01  0.10197117936E+01 0.  0.
     999903    2    3    3    0    0 -0.46030310078E-01  0.73616735584E-01 -0.98647940995E-01  0.13293731444E+00  0.20067389072E-01 0.  0.
         14    1    1    2    0    0  0.22574414838E-02 -0.21595769535E-01  0.10075732131E-01  0.23937286435E-01  0.00000000000E+00 0. -1.
     999901    1    3    3    0    0  0.43772868594E-01 -0.52020966048E-01  0.88572208864E-01  0.88705539912E+00  0.88000000000E+00 0. -1.
        -11    1    4    4    0    0 -0.16203110920E-01  0.26775359537E-01 -0.50620975662E-01  0.59516426134E-01  0.51100000000E-03 0. -1.
         11    1    4    4    0    0 -0.29827199158E-01  0.46841376047E-01 -0.48026965333E-01  0.73420888306E-01  0.51100000000E-03 0.  1.
</event>
<event>
 8    1  0.1128298E+005  0.1043930E+01  0.7957747E-01            NaN
         13   -1    0    0    0    0  0.00000000000E+00  0.00000000000E+00  0.74505805969E-08  0.10566000000E+00  0.10566000000E+00 0. -1.
     999900   -1    0    0    0    0 -0.00000000000E+00 -0.00000000000E+00 -0.74505805969E-08  0.93827000000E+00  0.93827000000E+00 0. -1.
     999902    2    1    2    0    0 -0.57013932338E-02  0.23012066442E-01  0.13288467612E-02  0.10201849601E+01  0.10199085870E+01 0.  0.
     999903    2    3    3    0    0  0.59282712543E-01  0.70977607726E-01 -0.91588387449E-01  0.13161462547E+00  0.19537556557E-01 0.  0.
         14    1    1    2    0    0  0.57013932338E-02 -0.23012066442E-01 -0.13288467612E-02  0.23745039913E-01  0.00000000000E+00 0.  1.
     999901    1    3    3    0    0 -0.64984105777E-01 -0.47965541284E-01  0.92917234211E-01  0.88857033462E+00  0.88000000000E+00 0.  1.
        -11    1    4    4    0    0  0.11248122841E-02  0.10209097194E-01 -0.12144202923E-01  0.15913316871E-01  0.51100000000E-03 0.  1.
         11    1    4    4    0    0  0.58157900259E-01  0.60768510532E-01 -0.79444184526E-01  0.11570130860E+00  0.51100000000E-03 0. -1.
</event>
<event>
 8    1  0.1128298E+005  0.1043930E+01  0.7957747E-01            NaN
         13   -1    0    0    0    0  0.00000000000E+00  0.00000000000E+00  0.74505805969E-08  0.10566000000E+00  0.10566000000E+00 0.  1.
     999900   -1    0    0    0    0 -0.00000000000E+00 -0.00000000000E+00 -0.74505805969E-08  0.93827000000E+00  0.93827000000E+00 0. -1.
     999902    2    1    2    0    0 -0.67648415073E-02  0.94177850905E-02 -0.19779057974E-01  0.10210025298E+01  0.10207450695E+01 0.  0.
     999903    2    3    3    0    0 -0.15658305563E-01 -0.11015865678E+00 -0.67753813458E-01  0.13157619987E+00  0.18482557681E-01 0.  0.
         14    1    1    2    0    0  0.67648415073E-02 -0.94177850905E-02  0.19779057974E-01  0.22927470226E-01  0.00000000000E+00 0.  1.
     999901    1    3    3    0    0  0.88934640557E-02  0.11957644187E+00  0.47974755484E-01  0.88942632990E+00  0.88000000000E+00 0.  1.
        -11    1    4    4    0    0 -0.18727674630E-01 -0.74356043353E-01 -0.49492663087E-01  0.91265172989E-01  0.51100000000E-03 0. -1.
         11    1    4    4    0    0  0.30693690674E-02 -0.35802613428E-01 -0.18261150372E-01  0.40311026886E-01  0.51100000000E-03 0.  1.
</event>
<event>
 8    1  0.1128298E+005  0.1043930E+01  0.7957747E-01            NaN
         13   -1    0    0    0    0  0.00000000000E+00  0.00000000000E+00  0.74505805969E-08  0.10566000000E+00  0.10566000000E+00 0. -1.
     999900   -1    0    0    0    0 -0.00000000000E+00 -0.00000000000E+00 -0.74505805969E-08  0.93827000000E+00  0.93827000000E+00 0. -1.
     999902    2    1    2    0    0  0.39086820096E-02  0.21535790406E-01 -0.93739936410E-02  0.10201195019E+01  0.10198415849E+01 0.  0.
     999903    2    3    3    0    0 -0.25081616182E-01  0.11833567542E+00  0.49906965868E-01  0.13235552014E+00  0.19871057384E-01 0.  0.
         14    1    1    2    0    0 -0.39086820096E-02 -0.21535790406E-01  0.93739936410E-02  0.23810498110E-01  0.00000000000E+00 0. -1.
     999901    1    3    3    0    0  0.28990298192E-01 -0.96799885018E-01 -0.59280959509E-01  0.88776398175E+00  0.88000000000E+00 0. -1.
        -11    1    4    4    0    0 -0.46056577236E-03  0.29763693947E-01  0.19222656950E-01  0.35438132843E-01  0.51100000000E-03 0. -1.
         11    1    4    4    0    0 -0.24621050410E-01  0.88571981477E-01  0.30684308918E-01  0.96917387299E-01  0.51100000000E-03 0.  1.
</event>
<event>
 8    1  0.1128298E+005  0.1043930E+01  0.7957747E-01            NaN
         13   -1    0    0    0    0  0.00000000000E+00  0.00000000000E+00  0.74505805969E-08  0.10566000000E+00  0.10566000000E+00 0. -1.
     999900   -1    0    0    0    0 -0.00000000000E+00 -0.00000000000E+00 -0.74505805969E-08  0.93827000000E+00  0.93827000000E+00 0. -1.
     999902    2    1    2    0    0 -0.21529171962E-01  0.54503712907E-02 -0.62426385692E-03  0.10217128558E+01  0.10214712713E+01 0.  0.
     999903    2    3    3    0    0  0.12180395261E+00  0.21277925539E-02  0.38258899552E-01  0.12926267535E+00  0.20108840633E-01 0.  0.
         14    1    1    2    0    0  0.21529171962E-01 -0.54503712907E-02  0.62426385692E-03  0.22217144235E-01  0.00000000000E+00 0.  1.
     999901    1    3    3    0    0 -0.14333312457E+00  0.33225787367E-02 -0.38883163409E-01  0.89245018042E+00  0.88000000000E+00 0.  1.
        -11    1    4    4    0    0  0.48222043132E-01 -0.10833126591E-02  0.51549949772E-02  0.48511587321E-01  0.51100000000E-03 0.  1.
         11    1    4    4    0    0  0.73581909475E-01  0.32111052130E-02  0.33103904575E-01  0.80751088028E-01  0.51100000000E-03 0. -1.
</event>
<event>
 8    1  0.1128298E+005  0.1043930E+01  0.7957747E-01            NaN
         13   -1    0    0    0    0  0.00000000000E+00  0.00000000000E+00  0.74505805969E-08  0.10566000000E+00  0.10566000000E+00 0.  1.
     999900   -1    0    0    0    0 -0.00000000000E+00 -0.00000000000E+00 -0.74505805969E-08  0.93827000000E+00  0.93827000000E+00 0.  1.
     999902    2    1    2    0    0  0.98241682860E-02  0.50479363129E-02 -0.21068858056E-01  0.10201415002E+01  0.10198641026E+01 0.  0.
     999903    2    3    3    0    0  0.58723909784E-01  0.94202773457E-01 -0.70494608305E-01  0.13290834341E+00  0.19299684966E-01 0.  0.
         14    1    1    2    0    0 -0.98241682860E-02 -0.50479363129E-02  0.21068858056E-01  0.23788499812E-01  0.00000000000E+00 0.  1.
     999901    1    3    3    0    0 -0.48899741498E-01 -0.89154837144E-01  0.49425750249E-01  0.88723315678E+00  0.88000000000E+00 0.  1.
        -11    1    4    4    0    0  0.83677927912E-02  0.29286892779E-01 -0.17310796436E-01  0.35038076989E-01  0.51100000000E-03 0. -1.
         11    1    4    4    0    0  0.50356116992E-01  0.64915880678E-01 -0.53183811868E-01  0.97870266418E-01  0.51100000000E-03 0.  1.
</event>
<event>
 8    1  0.1128298E+005  0.1043930E+01  0.7957747E-01            NaN
         13   -1    0    0    0    0  0.00000000000E+00  0.00000000000E+00  0.74505805969E-08  0.10566000000E+00  0.10566000000E+00 0.  1.
     999900   -1    0    0    0    0 -0.00000000000E+00 -0.00000000000E+00 -0.74505805969E-08  0.93827000000E+00  0.93827000000E+00 0. -1.
     999902    2    1    2    0    0 -0.16504296700E-01 -0.95268633837E-02  0.13336412971E-01  0.10206703171E+01  0.10204052545E+01 0.  0.
     999903    2    3    3    0    0 -0.22785543474E-01  0.36944782774E-01 -0.12024253614E+00  0.12935533152E+00  0.19759461796E-01 0.  0.
         14    1    1    2    0    0  0.16504296700E-01  0.95268633837E-02 -0.13336412971E-01  0.23259682853E-01  0.00000000000E+00 0. -1.
     999901    1    3    3    0    0  0.62812467736E-02 -0.46471646158E-01  0.13357894911E+00  0.89131498563E+00  0.88000000000E+00 0.  1.
        -11    1    4    4    0    0 -0.89720151164E-02  0.91796156847E-02 -0.15575731672E-01  0.20189773092E-01  0.51100000000E-03 0.  1.
         11    1    4    4    0    0 -0.13813528357E-01  0.27765167090E-01 -0.10466680446E+00  0.10916555843E+00  0.51100000000E-03 0. -1.
</event>
<event>
 8    1  0.1128298E+005  0.1043930E+01  0.7957747E-01            NaN
         13   -1    0    0    0    0  0.00000000000E+00  0.00000000000E+00  0.74505805969E-08  0.10566000000E+00  0.10566000000E+00 0. -1.
     999900   -1    0    0    0    0 -0.00000000000E+00 -0.00000000000E+00 -0.74505805969E-08  0.93827000000E+00  0.93827000000E+00 0. -1.
     999902    2    1    2    0    0 -0.17398230776E-01  0.10289961060E-01  0.11418987707E-01  0.10207141646E+01  0.10204501119E+01 0.  0.
     999903    2    3    3    0    0  0.12482814563E+00  0.56858444731E-02  0.25638236740E-01  0.12916959080E+00  0.20324104820E-01 0.  0.
         14    1    1    2    0    0  0.17398230776E-01 -0.10289961060E-01 -0.11418987707E-01  0.23215835394E-01  0.00000000000E+00 0.  1.
     999901    1    3    3    0    0 -0.14222637640E+00  0.46041165872E-02 -0.14219249033E-01  0.89154457380E+00  0.88000000000E+00 0.  1.
        -11    1    4    4    0    0  0.54298890103E-01 -0.72661420360E-02  0.13698931808E-01  0.56472012008E-01  0.51100000000E-03 0. -1.
         11    1    4    4    0    0  0.70529255525E-01  0.12951986509E-01  0.11939304932E-01  0.72697578796E-01  0.51100000000E-03 0.  1.
</event>
<event>
 8    1  0.1128298E+005  0.1043930E+01  0.7957747E-01            NaN
         13   -1    0    0    0    0  0.00000000000E+00  0.00000000000E+00  0.74505805969E-08  0.10566000000E+00  0.10566000000E+00 0.  1.
     999900   -1    0    0    0    0 -0.00000000000E+00 -0.00000000000E+00 -0.74505805969E-08  0.93827000000E+00  0.93827000000E+00 0.  1.
     999902    2    1    2    0    0  0.10595699412E-01  0.54549359433E-02  0.20658220903E-01  0.10200807387E+01  0.10198019054E+01 0.  0.
     999903    2    3    3    0    0  0.81412388986E-01 -0.93256865720E-01 -0.34819008782E-01  0.13000391827E+00  0.19074467455E-01 0.  0.
         14    1    1    2    0    0 -0.10595699412E-01 -0.54549359433E-02 -0.20658220903E-01  0.23849261268E-01  0.00000000000E+00 0. -1.
     999901    1    3    3    0    0 -0.70816689573E-01  0.98711801663E-01  0.55477229685E-01  0.89007682046E+00  0.88000000000E+00 0.  1.
        -11    1    4    4    0    0  0.30151591353E-01 -0.48174313527E-01 -0.19022179730E-01  0.59933191035E-01  0.51100000000E-03 0. -1.
         11    1    4    4    0    0  0.51260797632E-01 -0.45082552193E-01 -0.15796829052E-01  0.70070727235E-01  0.51100000000E-03 0.  1.
</event>
<event>
 8    1  0.1128298E+005  0.1043930E+01  0.7957747E-01            NaN
         13   -1    0    0    0    0  0.00000000000E+00  0.00000000000E+00  0.74505805969E-08  0.10566000000E+00  0.10566000000E+00 0.  1.
     999900   -1    0    0    0    0 -0.00000000000E+00 -0.00000000000E+00 -0.74505805969E-08  0.93827000000E+00  0.93827000000E+00 0.  1.
     999902    2    1    2    0    0  0.52241262227E-02  0.13824804374E-01  0.17151805145E-01  0.10212893037E+01  0.10210383150E+01 0.  0.
     999903    2    3    3    0    0 -0.90062557684E-01 -0.72111207665E-01  0.57953632503E-01  0.13104813443E+00  0.22443249510E-01 0.  0.
         14    1    1    2    0    0 -0.52241262227E-02 -0.13824804374E-01 -0.17151805145E-01  0.22640696334E-01  0.00000000000E+00 0. -1.
     999901    1    3    3    0    0  0.95286683907E-01  0.85936012039E-01 -0.40801827358E-01  0.89024116924E+00  0.88000000000E+00 0. -1.
        -11    1    4    4    0    0 -0.37296907312E-01 -0.16242483230E-01  0.19506170319E-01  0.45117949400E-01  0.51100000000E-03 0.  1.
         11    1    4    4    0    0 -0.52765650372E-01 -0.55868724435E-01  0.38447462184E-01  0.85930185026E-01  0.51100000000E-03 0. -1.
</event>
<event>
 8    1  0.1128298E+005  0.1043930E+01  0.7957747E-01            NaN
         13   -1    0    0    0    0  0.00000000000E+00  0.00000000000E+00  0.74505805969E-08  0.10566000000E+00  0.10566000000E+00 0.  1.
     999900   -1    0    0    0    0 -0.00000000000E+00 -0.00000000000E+00 -0.74505805969E-08  0.93827000000E+00  0.93827000000E+00 0.  1.
     999902    2    1    2    0    0  0.10997391670E-01 -0.16301874157E-01 -0.12867843397E-01  0.10204294656E+01  0.10201588205E+01 0.  0.
     999903    2    3    3    0    0 -0.96734383411E-02  0.90844310019E-01 -0.90696170212E-01  0.13028069349E+00  0.20024977697E-01 0.  0.
         14    1    1    2    0    0 -0.10997391670E-01  0.16301874157E-01  0.12867843397E-01  0.23500534425E-01  0.00000000000E+00 0.  1.
     999901    1    3    3    0    0  0.20670830011E-01 -0.10714618418E+00  0.77828326815E-01  0.89014877209E+00  0.88000000000E+00 0. -1.
        -11    1    4    4    0    0 -0.92591445425E-02  0.62316640790E-01 -0.74126206624E-01  0.97283354725E-01  0.51100000000E-03 0.  1.
         11    1    4    4    0    0 -0.41429379863E-03  0.28527669229E-01 -0.16569963588E-01  0.32997338761E-01  0.51100000000E-03 0. -1.
</event>
<event>
 8    1  0.1128298E+005  0.1043930E+01  0.7957747E-01            NaN
         13   -1    0    0    0    0  0.00000000000E+00  0.00000000000E+00  0.74505805969E-08  0.10566000000E+00  0.10566000000E+00 0.  1.
     999900   -1    0    0    0    0 -0.00000000000E+00 -0.00000000000E+00 -0.74505805969E-08  0.93827000000E+00  0.93827000000E+00 0.  1.
     999902    2    1    2    0    0  0.53614626072E-02 -0.18342041168E-01  0.10683448666E-01  0.10220368086E+01  0.10218022931E+01 0.  0.
     999903    2    3    3    0    0  0.45853506838E-01 -0.26498915860E-02 -0.12166743813E+00  0.13108080156E+00  0.16420871512E-01 0.  0.
         14    1    1    2    0    0 -0.53614626072E-02  0.18342041168E-01 -0.10683448666E-01  0.21893191428E-01  0.00000000000E+00 0. -1.
     999901    1    3    3    0    0 -0.40492044231E-01 -0.15692149582E-01  0.13235088679E+00  0.89095600702E+00  0.88000000000E+00 0. -1.
        -11    1    4    4    0    0  0.10245831149E-01  0.25586682590E-02 -0.47234837944E-01  0.48403665933E-01  0.51100000000E-03 0. -1.
         11    1    4    4    0    0  0.35607675689E-01 -0.52085598451E-02 -0.74432600183E-01  0.82677135622E-01  0.51100000000E-03 0.  1.
</event>
<event>
 8    1  0.1128298E+005  0.1043930E+01  0.7957747E-01            NaN
         13   -1    0    0    0    0  0.00000000000E+00  0.00000000000E+00  0.74505805969E-08  0.10566000000E+00  0.10566000000E+00 0. -1.
     999900   -1    0    0    0    0 -0.00000000000E+00 -0.00000000000E+00 -0.74505805969E-08  0.93827000000E+00  0.93827000000E+00 0. -1.
     999902    2    1    2    0    0  0.27600852361E-02  0.21425999395E-01 -0.46216732847E-02  0.10218381150E+01  0.10215992765E+01 0.  0.
     999903    2    3    3    0    0 -0.58515902161E-01 -0.81256052865E-01  0.79981208840E-01  0.12973049917E+00  0.20158167446E-01 0.  0.
         14    1    1    2    0    0 -0.27600852361E-02 -0.21425999395E-01  0.46216732847E-02  0.22091885038E-01  0.00000000000E+00 0. -1.
     999901    1    3    3    0    0  0.61275987397E-01  0.10268205226E+00 -0.84602882124E-01  0.89210761579E+00  0.88000000000E+00 0.  1.
        -11    1    4    4    0    0 -0.24732361153E-01 -0.47761956701E-01  0.50382226213E-01  0.73698874044E-01  0.51100000000E-03 0. -1.
         11    1    4    4    0    0 -0.33783541008E-01 -0.33494096164E-01  0.29598982626E-01  0.56031625127E-01  0.51100000000E-03 0.  1.
</event>
<event>
 8    1  0.1128298E+005  0.1043930E+01  0.7957747E-01            NaN
         13   -1    0    0    0    0  0.00000000000E+00  0.00000000000E+00  0.74505805969E-08  0.10566000000E+00  0.10566000000E+00 0.  1.
     999900   -1    0    0    0    0 -0.00000000000E+00 -0.00000000000E+00 -0.74505805969E-08  0.93827000000E+00  0.93827000000E+00 0.  1.
     999902    2    1    2    0    0  0.48505469125E-02 -0.14190620769E-01 -0.15053894388E-01  0.10226809704E+01  0.10224601928E+01 0.  0.
     999903    2    3    3    0    0 -0.12752011636E+00  0.90299597640E-02 -0.28558184886E-01  0.13237565550E+00  0.19100366349E-01 0.  0.
         14    1    1    2    0    0 -0.48505469125E-02  0.14190620769E-01  0.15053894388E-01  0.21249029611E-01  0.00000000000E+00 0.  1.
     999901    1    3    3    0    0  0.13237066328E+00 -0.23220580533E-01  0.13504290498E-01  0.89030531489E+00  0.88000000000E+00 0. -1.
        -11    1    4    4    0    0 -0.27866321650E-01  0.79952812772E-02 -0.11855433410E-01  0.31325210731E-01  0.51100000000E-03 0.  1.
         11    1    4    4    0    0 -0.99653794713E-01  0.10346784868E-02 -0.16702751476E-01  0.10105044477E+00  0.51100000000E-03 0. -1.
</event>
<event>
 8    1  0.1128298E+005  0.1043930E+01  0.7957747E-01            NaN
         13   -1    0    0    0    0  0.00000000000E+00  0.00000000000E+00  0.74505805969E-08  0.10566000000E+00  0.10566000000E+00 0. -1.
     999900   -1    0    0    0    0 -0.00000000000E+00 -0.00000000000E+00 -0.74505805969E-08  0.93827000000E+00  0.93827000000E+00 0. -1.
     999902    2    1    2    0    0  0.11984044721E-01  0.16621838860E-01 -0.14420565987E-01  0.10188729535E+01  0.10185647941E+01 0.  0.
     999903    2    3    3    0    0 -0.15427116722E-01 -0.10218011532E+00  0.70077864687E-01  0.12645754527E+00  0.20045741217E-01 0.  0.
         14    1    1    2    0    0 -0.11984044721E-01 -0.16621838860E-01  0.14420565987E-01  0.25057046481E-01  0.00000000000E+00 0. -1.
     999901    1    3    3    0    0  0.27411161442E-01  0.11880195418E+00 -0.84498430673E-01  0.89241540825E+00  0.88000000000E+00 0. -1.
        -11    1    4    4    0    0 -0.12635882102E-01 -0.72299663601E-01  0.38465779453E-01  0.82866061710E-01  0.51100000000E-03 0.  1.
         11    1    4    4    0    0 -0.27912346195E-02 -0.29880451716E-01  0.31612085234E-01  0.43591483564E-01  0.51100000000E-03 0. -1.
</event>
<event>
 8    1  0.1128298E+005  0.1043930E+01  0.7957747E-01            NaN
         13   -1    0    0    0    0  0.00000000000E+00  0.00000000000E+00  0.74505805969E-08  0.10566000000E+00  0.10566000000E+00 0.  1.
     999900   -1    0    0    0    0 -0.00000000000E+00 -0.00000000000E+00 -0.74505805969E-08  0.93827000000E+00  0.93827000000E+00 0. -1.
     999902    2    1    2    0    0  0.76401739897E-02  0.82128364091E-02 -0.20229379747E-01  0.10207988361E+01  0.10205367279E+01 0.  0.
     999903    2    3    3    0    0  0.58292295795E-01 -0.96473203365E-02  0.11296070494E+00  0.12915752852E+00  0.20748102935E-01 0.  0.
         14    1    1    2    0    0 -0.76401739897E-02 -0.82128364091E-02  0.20229379747E-01  0.23131163944E-01  0.00000000000E+00 0.  1.
     999901    1    3    3    0    0 -0.50652121805E-01  0.17860156746E-01 -0.13319008468E+00  0.89164130753E+00  0.88000000000E+00 0. -1.
        -11    1    4    4    0    0  0.17779951391E-01 -0.11731316823E-01  0.48768583296E-01  0.53220168203E-01  0.51100000000E-03 0. -1.
         11    1    4    4    0    0  0.40512344404E-01  0.20839964868E-02  0.64192121641E-01  0.75937360319E-01  0.51100000000E-03 0.  1.
</event>
<event>
 8    1  0.1128298E+005  0.1043930E+01  0.7957747E-01            NaN
         13   -1    0    0    0    0  0.00000000000E+00  0.00000000000E+00  0.74505805969E-08  0.10566000000E+00  0.10566000000E+00 0. -1.
     999900   -1    0    0    0    0 -0.00000000000E+00 -0.00000000000E+00 -0.74505805969E-08  0.93827000000E+00  0.93827000000E+00 0. -1.
     999902    2    1    2    0    0  0.44867916952E-02  0.20757458342E-01 -0.10867348599E-01  0.10200741277E+01  0.10197951380E+01 0.  0.
     999903    2    3    3    0    0  0.35061397783E-01 -0.12150716941E+00 -0.71262692091E-02  0.12811671477E+00  0.19230576130E-01 0.  0.
         14    1    1    2    0    0 -0.44867916952E-02 -0.20757458342E-01  0.10867348599E-01  0.23855872277E-01  0.00000000000E+00 0.  1.
     999901    1    3    3    0    0 -0.30574606088E-01  0.14226462775E+00 -0.37410793899E-02  0.89195741295E+00  0.88000000000E+00 0. -1.
        -11    1    4    4    0    0  0.21552161166E-01 -0.42368511041E-01 -0.50436769563E-02  0.47804666896E-01  0.51100000000E-03 0. -1.
         11    1    4    4    0    0  0.13509236617E-01 -0.79138658368E-01 -0.20825922528E-02  0.80312047874E-01  0.51100000000E-03 0.  1.
</event>
<event>
 8    1  0.1128298E+005  0.1043930E+01  0.7957747E-01            NaN
         13   -1    0    0    0    0  0.00000000000E+00  0.00000000000E+00  0.74505805969E-08  0.10566000000E+00  0.10566000000E+00 0. -1.
     999900   -1    0    0    0    0 -0.00000000000E+00 -0.00000000000E+00 -0.74505805969E-08  0.93827000000E+00  0.93827000000E+00 0. -1.
     999902    2    1    2    0    0  0.23179449103E-01 -0.75572323473E-02  0.20100375658E-02  0.10194669897E+01  0.10191734417E+01 0.  0.
     999903    2    3    3    0    0  0.12319692752E+00  0.18473830587E-01 -0.40325920277E-01  0.13240811593E+00  0.19671399279E-01 0.  0.
         14    1    1    2    0    0 -0.23179449103E-01  0.75572323473E-02 -0.20100375658E-02  0.24463010291E-01  0.00000000000E+00 0. -1.
     999901    1    3    3    0    0 -0.10001747842E+00 -0.26031062934E-01  0.42335957843E-01  0.88705887378E+00  0.88000000000E+00 0. -1.
        -11    1    4    4    0    0  0.52779645627E-01  0.16099838844E-01 -0.23433136905E-01  0.59952221223E-01  0.51100000000E-03 0. -1.
         11    1    4    4    0    0  0.70417281897E-01  0.23739917428E-02 -0.16892783372E-01  0.72455894706E-01  0.51100000000E-03 0.  1.
</event>
<event>
 8    1  0.1128298E+005  0.1043930E+01  0.7957747E-01            NaN
         13   -1    0    0    0    0  0.00000000000E+00  0.00000000000E+00  0.74505805969E-08  0.10566000000E+00  0.10566000000E+00 0.  1.
     999900   -1    0    0    0    0 -0.00000000000E+00 -0.00000000000E+00 -0.74505805969E-08  0.93827000000E+00  0.93827000000E+00 0.  1.
     999902    2    1    2    0    0 -0.52524769083E-03 -0.23536359931E-01 -0.23500999891E-02  0.10202707715E+01  0.10199964157E+01 0.  0.
     999903    2    3    3    0    0 -0.25549965407E-01 -0.82464651121E-01 -0.99147806140E-01  0.13265115931E+00  0.17686808295E-01 0.  0.
         14    1    1    2    0    0  0.52524769083E-03  0.23536359931E-01  0.23500999891E-02  0.23659228514E-01  0.00000000000E+00 0. -1.
     999901    1    3    3    0    0  0.25024717716E-01  0.58928291190E-01  0.96797706151E-01  0.88761961217E+00  0.88000000000E+00 0. -1.
        -11    1    4    4    0    0 -0.25014914621E-01 -0.75363281058E-01 -0.82350740575E-01  0.11439963147E+00  0.51100000000E-03 0.  1.
         11    1    4    4    0    0 -0.53505078637E-03 -0.71013700627E-02 -0.16797065566E-01  0.18251527846E-01  0.51100000000E-03 0. -1.
</event>
<event>
 8    1  0.1128298E+005  0.1043930E+01  0.7957747E-01            NaN
         13   -1    0    0    0    0  0.00000000000E+00  0.00000000000E+00  0.74505805969E-08  0.10566000000E+00  0.10566000000E+00 0. -1.
     999900   -1    0    0    0    0 -0.00000000000E+00 -0.00000000000E+00 -0.74505805969E-08  0.93827000000E+00  0.93827000000E+00 0. -1.
     999902    2    1    2    0    0  0.12160593287E-01 -0.17758542002E-01 -0.10242636021E-01  0.10200939467E+01  0.10198154258E+01 0.  0.
     999903    2    3    3    0    0  0.20806305286E-01  0.11191938917E+00 -0.58209676167E-01  0.12925616626E+00  0.18972034789E-01 0.  0.
         14    1    1    2    0    0 -0.12160593287E-01  0.17758542002E-01  0.10242636021E-01  0.23836053276E-01  0.00000000000E+00 0.  1.
     999901    1    3    3    0    0 -0.86457119992E-02 -0.12967793117E+00  0.47967040145E-01  0.89083778047E+00  0.88000000000E+00 0.  1.
        -11    1    4    4    0    0  0.66135117588E-02  0.71167228318E-01 -0.28948256416E-01  0.77115339555E-01  0.51100000000E-03 0.  1.
         11    1    4    4    0    0  0.14192793527E-01  0.40752160852E-01 -0.29261419751E-01  0.52140826701E-01  0.51100000000E-03 0. -1.
</event>
<event>
 8    1  0.1128298E+005  0.1043930E+01  0.7957747E-01            NaN
         13   -1    0    0    0    0  0.00000000000E+00  0.00000000000E+00  0.74505805969E-08  0.10566000000E+00  0.10566000000E+00 0.  1.
     999900   -1    0    0    0    0 -0.00000000000E+00 -0.00000000000E+00 -0.74505805969E-08  0.93827000000E+00  0.93827000000E+00 0.  1.
     999902    2    1    2    0    0 -0.19619758244E-01  0.10386930590E-01  0.55945347256E-02  0.10210362878E+01  0.10207795937E+01 0.  0.
     999903    2    3    3    0    0  0.20965143318E-01 -0.55374687647E-01  0.11528016227E+00  0.13086626943E+00  0.18181622463E-01 0.  0.
         14    1    1    2    0    0  0.19619758244E-01 -0.10386930590E-01 -0.55945347256E-02  0.22893712225E-01  0.00000000000E+00 0. -1.
     999901    1    3    3    0    0 -0.40584901562E-01  0.65761618238E-01 -0.10968562755E+00  0.89017001834E+00  0.88000000000E+00 0.  1.
        -11    1    4    4    0    0  0.12772976526E-01 -0.12364197213E-01  0.27120976831E-01  0.32431941158E-01  0.51100000000E-03 0. -1.
         11    1    4    4    0    0  0.81921667921E-02 -0.43010490434E-01  0.88159185440E-01  0.98434328273E-01  0.51100000000E-03 0.  1.
</event>
<event>
 8    1  0.1128298E+005  0.1043930E+01  0.7957747E-01            NaN
         13   -1    0    0    0    0  0.00000000000E+00  0.00000000000E+00  0.74505805969E-08  0.10566000000E+00  0.10566000000E+00 0. -1.
     999900   -1    0    0    0    0 -0.00000000000E+00 -0.00000000000E+00 -0.74505805969E-08  0.93827000000E+00  0.93827000000E+00 0.  1.
     999902    2    1    2    0    0  0.54071552749E-02 -0.22104977369E-02  0.22714677262E-01  0.10204762116E+01  0.10202066547E+01 0.  0.
     999903    2    3    3    0    0  0.71556527736E-01  0.10768762114E+00  0.27608267178E-03  0.13089382273E+00  0.20399906839E-01 0.  0.
         14    1    1    2    0    0 -0.54071552749E-02  0.22104977369E-02 -0.22714677262E-01  0.23453788425E-01  0.00000000000E+00 0.  1.
     999901    1    3    3    0    0 -0.66149372461E-01 -0.10989811888E+00  0.22438594590E-01  0.88958238884E+00  0.88000000000E+00 0. -1.
        -11    1    4    4    0    0  0.44412403380E-01  0.82992655213E-01 -0.16268409236E-02  0.94144304797E-01  0.51100000000E-03 0.  1.
         11    1    4    4    0    0  0.27144124356E-01  0.24694965929E-01  0.19029235954E-02  0.36749517936E-01  0.51100000000E-03 0. -1.
</event>
<event>
 8    1  0.1128298E+005  0.1043930E+01  0.7957747E-01            NaN
         13   -1    0    0    0    0  0.00000000000E+00  0.00000000000E+00  0.74505805969E-08  0.10566000000E+00  0.10566000000E+00 0.  1.
     999900   -1    0    0    0    0 -0.00000000000E+00 -0.00000000000E+00 -0.74505805969E-08  0.93827000000E+00  0.93827000000E+00 0.  1.
     999902    2    1    2    0    0 -0.58012554050E-02  0.19853419578E-01  0.12655342551E-01  0.10196818964E+01  0.10193935449E+01 0.  0.
     999903    2    3    3    0    0  0.11698422286E+00  0.36312597868E-01 -0.34450438366E-01  0.12975710586E+00  0.25419690293E-01 0.  0.
         14    1    1    2    0    0  0.58012554050E-02 -0.19853419578E-01 -0.12655342551E-01  0.24248103602E-01  0.00000000000E+00 0.  1.
     999901    1    3    3    0    0 -0.12278547827E+00 -0.16459178290E-01  0.47105780917E-01  0.88992479054E+00  0.88000000000E+00 0. -1.
        -11    1    4    4    0    0  0.55975253830E-01  0.19319643378E-01 -0.29693547746E-01  0.66245343688E-01  0.51100000000E-03 0. -1.
         11    1    4    4    0    0  0.61008969031E-01  0.16992954490E-01 -0.47568906204E-02  0.63511762170E-01  0.51100000000E-03 0.  1.
</event>
<event>
 8    1  0.1128298E+005  0.1043930E+01  0.7957747E-01            NaN
         13   -1    0    0    0    0  0.00000000000E+00  0.00000000000E+00  0.74505805969E-08  0.10566000000E+00  0.10566000000E+00 0. -1.
     999900   -1    0    0    0    0 -0.00000000000E+00 -0.00000000000E+00 -0.74505805969E-08  0.93827000000E+00  0.93827000000E+00 0.  1.
     999902    2    1    2    0    0  0.62629640227E-02  0.22185642095E-01  0.31311875472E-02  0.10206656116E+01  0.10204004405E+01 0.  0.
     999903    2    3    3    0    0  0.49708939692E-01 -0.10070215718E+00  0.60460358646E-01  0.12921982081E+00  0.20746179798E-01 0.  0.
         14    1    1    2    0    0 -0.62629640227E-02 -0.22185642095E-01 -0.31311875472E-02  0.23264388429E-01  0.00000000000E+00 0. -1.
     999901    1    3    3    0    0 -0.43445975669E-01  0.12288779927E+00 -0.57329171099E-01  0.89144579076E+00  0.88000000000E+00 0.  1.
        -11    1    4    4    0    0  0.27985892334E-01 -0.33979716743E-01  0.24038296681E-01  0.50159068453E-01  0.51100000000E-03 0. -1.
         11    1    4    4    0    0  0.21723047357E-01 -0.66722440435E-01  0.36422061965E-01  0.79060752355E-01  0.51100000000E-03 0.  1.
</event>
<event>
 8    1  0.1128298E+005  0.1043930E+01  0.7957747E-01            NaN
         13   -1    0    0    0    0  0.00000000000E+00  0.00000000000E+00  0.74505805969E-08  0.10566000000E+00  0.10566000000E+00 0. -1.
     999900   -1    0    0    0    0 -0.00000000000E+00 -0.00000000000E+00 -0.74505805969E-08  0.93827000000E+00  0.93827000000E+00 0.  1.
     999902    2    1    2    0    0 -0.80901014612E-02 -0.23834276183E-01 -0.42450406337E-02  0.10184046629E+01  0.10180847286E+01 0.  0.
     999903    2    3    3    0    0 -0.12387288575E+00  0.27070425283E-01  0.14327374648E-01  0.12916798106E+00  0.20044797754E-01 0.  0.
         14    1    1    2    0    0  0.80901014612E-02  0.23834276183E-01  0.42450406337E-02  0.25525337075E-01  0.00000000000E+00 0. -1.
     999901    1    3    3    0    0  0.11578278429E+00 -0.50904701466E-01 -0.18572415282E-01  0.88923668187E+00  0.88000000000E+00 0.  1.
        -11    1    4    4    0    0 -0.86130244097E-01  0.96415552590E-02  0.12351566939E-01  0.87545421713E-01  0.51100000000E-03 0.  1.
         11    1    4    4    0    0 -0.37742641653E-01  0.17428870024E-01  0.19758077090E-02  0.41622559344E-01  0.51100000000E-03 0. -1.
</event>
<event>
 8    1  0.1128298E+005  0.1043930E+01  0.7957747E-01            NaN
         13   -1    0    0    0    0  0.00000000000E+00  0.00000000000E+00  0.74505805969E-08  0.10566000000E+00  0.10566000000E+00 0.  1.
     999900   -1    0    0    0    0 -0.00000000000E+00 -0.00000000000E+00 -0.74505805969E-08  0.93827000000E+00  0.93827000000E+00 0. -1.
     999902    2    1    2    0    0  0.55420610298E-02  0.22716637272E-01 -0.42531173419E-02  0.10201634467E+01  0.10198865667E+01 0.  0.
     999903    2    3    3    0    0  0.52700153643E-01  0.60066919224E-01  0.10268346637E+00  0.13165100322E+00  0.20068667219E-01 0.  0.
         14    1    1    2    0    0 -0.55420610298E-02 -0.22716637272E-01  0.42531173419E-02  0.23766553317E-01  0.00000000000E+00 0.  1.
     999901    1    3    3    0    0 -0.47158092613E-01 -0.37350281951E-01 -0.10693658371E+00  0.88851244347E+00  0.88000000000E+00 0. -1.
        -11    1    4    4    0    0  0.31939272180E-01  0.41672631632E-01  0.52154671637E-01  0.74007406582E-01  0.51100000000E-03 0. -1.
         11    1    4    4    0    0  0.20760881463E-01  0.18394287592E-01  0.50528794729E-01  0.57643596634E-01  0.51100000000E-03 0.  1.
</event>
<event>
 8    1  0.1128298E+005  0.1043930E+01  0.7957747E-01            NaN
         13   -1    0    0    0    0  0.00000000000E+00  0.00000000000E+00  0.74505805969E-08  0.10566000000E+00  0.10566000000E+00 0. -1.
     999900   -1    0    0    0    0 -0.00000000000E+00 -0.00000000000E+00 -0.74505805969E-08  0.93827000000E+00  0.93827000000E+00 0. -1.
     999902    2    1    2    0    0 -0.79224976507E-02 -0.11623511737E-01 -0.18312358445E-01  0.10208385629E+01  0.10205773646E+01 0.  0.
     999903    2    3    3    0    0 -0.39926177940E-01  0.50078870228E-01 -0.11418661006E+00  0.13290653196E+00  0.22881682484E-01 0.  0.
         14    1    1    2    0    0  0.79224976507E-02  0.11623511737E-01  0.18312358445E-01  0.23091437070E-01  0.00000000000E+00 0.  1.
     999901    1    3    3    0    0  0.32003680290E-01 -0.61702381965E-01  0.95874251616E-01  0.88793203097E+00  0.88000000000E+00 0.  1.
        -11    1    4    4    0    0 -0.35180107875E-01  0.33653316372E-01 -0.97651812177E-01  0.10911609980E+00  0.51100000000E-03 0. -1.
         11    1    4    4    0    0 -0.47460700658E-02  0.16425553856E-01 -0.16534797884E-01  0.23790432165E-01  0.51100000000E-03 0.  1.
</event>
<event>
 8    1  0.1128298E+005  0.1043930E+01  0.7957747E-01            NaN
         13   -1    0    0    0    0  0.00000000000E+00  0.00000000000E+00  0.74505805969E-08  0.10566000000E+00  0.10566000000E+00 0. -1.
     999900   -1    0    0    0    0 -0.00000000000E+00 -0.00000000000E+00 -0.74505805969E-08  0.93827000000E+00  0.93827000000E+00 0. -1.
     999902    2    1    2    0    0 -0.21285988426E-01  0.35666602367E-02  0.91956241044E-02  0.10204699516E+01  0.10202002491E+01 0.  0.
     999903    2    3    3    0    0 -0.94569858848E-01 -0.17677275563E-01  0.90381131674E-01  0.13344519596E+00  0.19568522883E-01 0.  0.
         14    1    1    2    0    0  0.21285988426E-01 -0.35666602367E-02 -0.91956241044E-02  0.23460048405E-01  0.00000000000E+00 0. -1.
     999901    1    3    3    0    0  0.73283870422E-01  0.21243935800E-01 -0.81185507570E-01  0.88702475564E+00  0.88000000000E+00 0. -1.
        -11    1    4    4    0    0 -0.11431346000E-01 -0.50941509829E-02  0.20901169058E-01  0.24366904493E-01  0.51100000000E-03 0. -1.
         11    1    4    4    0    0 -0.83138512848E-01 -0.12583124580E-01  0.69479962617E-01  0.10907829147E+00  0.51100000000E-03 0.  1.
</event>
<event>
 8    1  0.1128298E+005  0.1043930E+01  0.7957747E-01            NaN
         13   -1    0    0    0    0  0.00000000000E+00  0.00000000000E+00  0.74505805969E-08  0.10566000000E+00  0.10566000000E+00 0.  1.
     999900   -1    0    0    0    0 -0.00000000000E+00 -0.00000000000E+00 -0.74505805969E-08  0.93827000000E+00  0.93827000000E+00 0. -1.
     999902    2    1    2    0    0  0.62044966108E-02 -0.17229089071E-01 -0.16088458110E-01  0.10195542790E+01  0.10192628474E+01 0.  0.
     999903    2    3    3    0    0  0.35076627009E-01 -0.12589423711E+00 -0.58878332720E-02  0.13234192167E+00  0.19999723736E-01 0.  0.
         14    1    1    2    0    0 -0.62044966108E-02  0.17229089071E-01  0.16088458110E-01  0.24375720969E-01  0.00000000000E+00 0.  1.
     999901    1    3    3    0    0 -0.28872130398E-01  0.10866514804E+00 -0.10200624838E-01  0.88721235736E+00  0.88000000000E+00 0. -1.
        -11    1    4    4    0    0  0.26765766325E-01 -0.11341789284E+00 -0.94757119187E-02  0.11691909554E+00  0.51100000000E-03 0. -1.
         11    1    4    4    0    0  0.83108606844E-02 -0.12476344267E-01  0.35878786467E-02  0.15422826128E-01  0.51100000000E-03 0.  1.
</event>
<event>
 8    1  0.1128298E+005  0.1043930E+01  0.7957747E-01            NaN
         13   -1    0    0    0    0  0.00000000000E+00  0.00000000000E+00  0.74505805969E-08  0.10566000000E+00  0.10566000000E+00 0.  1.
     999900   -1    0    0    0    0 -0.00000000000E+00 -0.00000000000E+00 -0.74505805969E-08  0.93827000000E+00  0.93827000000E+00 0. -1.
     999902    2    1    2    0    0  0.16496863222E-01 -0.15368903002E-01 -0.95197401561E-02  0.10194560316E+01  0.10191622174E+01 0.  0.
     999903    2    3    3    0    0 -0.73125709120E-01  0.31713191074E-01  0.97153414289E-01  0.12725196811E+00  0.20029519682E-01 0.  0.
         14    1    1    2    0    0 -0.16496863222E-01  0.15368903002E-01  0.95197401561E-02  0.24473968380E-01  0.00000000000E+00 0.  1.
     999901    1    3    3    0    0  0.89622572342E-01 -0.47082094076E-01 -0.10667315444E+00  0.89220406351E+00  0.88000000000E+00 0. -1.
        -11    1    4    4    0    0 -0.24220449283E-01  0.20725239992E-01  0.33758420537E-01  0.46433369621E-01  0.51100000000E-03 0. -1.
         11    1    4    4    0    0 -0.48905259837E-01  0.10987951082E-01  0.63394993752E-01  0.80818598494E-01  0.51100000000E-03 0.  1.
</event>
<event>
 8    1  0.1128298E+005  0.1043930E+01  0.7957747E-01            NaN
         13   -1    0    0    0    0  0.00000000000E+00  0.00000000000E+00  0.74505805969E-08  0.10566000000E+00  0.10566000000E+00 0.  1.
     999900   -1    0    0    0    0 -0.00000000000E+00 -0.00000000000E+00 -0.74505805969E-08  0.93827000000E+00  0.93827000000E+00 0.  1.
     999902    2    1    2    0    0  0.11137873440E-01  0.20809826511E-01 -0.19129639416E-02  0.10202496171E+01  0.10199747647E+01 0.  0.
     999903    2    3    3    0    0 -0.62683211269E-01 -0.84751980128E-01  0.69873615008E-01  0.12797938868E+00  0.19604049137E-01 0.  0.
         14    1    1    2    0    0 -0.11137873440E-01 -0.20809826511E-01  0.19129639416E-02  0.23680382920E-01  0.00000000000E+00 0. -1.
     999901    1    3    3    0    0  0.73821084710E-01  0.10556180664E+00 -0.71786578949E-01  0.89227022840E+00  0.88000000000E+00 0.  1.
        -11    1    4    4    0    0 -0.47801674505E-01 -0.50985046677E-01  0.51065057426E-01  0.86558513626E-01  0.51100000000E-03 0.  1.
         11    1    4    4    0    0 -0.14881536764E-01 -0.33766933451E-01  0.18808557581E-01  0.41420875056E-01  0.51100000000E-03 0. -1.
</event>
<event>
 8    1  0.1128298E+005  0.1043930E+01  0.7957747E-01            NaN
         13   -1    0    0    0    0  0.00000000000E+00  0.00000000000E+00  0.74505805969E-08  0.10566000000E+00  0.10566000000E+00 0. -1.
     999900   -1    0    0    0    0 -0.00000000000E+00 -0.00000000000E+00 -0.74505805969E-08  0.93827000000E+00  0.93827000000E+00 0. -1.
     999902    2    1    2    0    0 -0.18265875621E-01 -0.10549621762E-01  0.10950768460E-01  0.10201632993E+01  0.10198864158E+01 0.  0.
     999903    2    3    3    0    0  0.51245589178E-01 -0.80097114017E-01 -0.85723259339E-01  0.12942508577E+00  0.18992565684E-01 0.  0.
         14    1    1    2    0    0  0.18265875621E-01  0.10549621762E-01 -0.10950768460E-01  0.23766700683E-01  0.00000000000E+00 0.  1.
     999901    1    3    3    0    0 -0.69511464799E-01  0.69547492255E-01  0.96674027799E-01  0.89073821354E+00  0.88000000000E+00 0. -1.
        -11    1    4    4    0    0  0.63076315319E-02 -0.85508372913E-02 -0.27095460798E-02  0.10977513147E-01  0.51100000000E-03 0. -1.
         11    1    4    4    0    0  0.44937957646E-01 -0.71546276726E-01 -0.83013713260E-01  0.11844757263E+00  0.51100000000E-03 0.  1.
</event>
<event>
 8    1  0.1128298E+005  0.1043930E+01  0.7957747E-01            NaN
         13   -1    0    0    0    0  0.00000000000E+00  0.00000000000E+00  0.74505805969E-08  0.10566000000E+00  0.10566000000E+00 0. -1.
     999900   -1    0    0    0    0 -0.00000000000E+00 -0.00000000000E+00 -0.74505805969E-08  0.93827000000E+00  0.93827000000E+00 0. -1.
     999902    2    1    2    0    0  0.10064463474E-01 -0.15971420463E-01  0.14370944900E-01  0.10202044072E+01  0.10199284920E+01 0.  0.
     999903    2    3    3    0    0  0.13115599727E-02 -0.13100179171E+00 -0.18324976143E-02  0.13252701581E+00  0.19921401852E-01 0.  0.
         14    1    1    2    0    0 -0.10064463474E-01  0.15971420463E-01 -0.14370944900E-01  0.23725592805E-01  0.00000000000E+00 0.  1.
     999901    1    3    3    0    0  0.87529035016E-02  0.11503037124E+00  0.16203442515E-01  0.88767739139E+00  0.88000000000E+00 0.  1.
        -11    1    4    4    0    0 -0.89199173287E-02 -0.79519881481E-01 -0.68047952797E-03  0.80023125715E-01  0.51100000000E-03 0.  1.
         11    1    4    4    0    0  0.10231477301E-01 -0.51481910226E-01 -0.11520180863E-02  0.52503890094E-01  0.51100000000E-03 0. -1.
</event>
<event>
 8    1  0.1128298E+005  0.1043930E+01  0.7957747E-01            NaN
         13   -1    0    0    0    0  0.00000000000E+00  0.00000000000E+00  0.74505805969E-08  0.10566000000E+00  0.10566000000E+00 0. -1.
     999900   -1    0    0    0    0 -0.00000000000E+00 -0.00000000000E+00 -0.74505805969E-08  0.93827000000E+00  0.93827000000E+00 0. -1.
     999902    2    1    2    0    0 -0.15925644563E-01 -0.17067917282E-01 -0.52859883464E-02  0.10199950543E+01  0.10197141899E+01 0.  0.
     999903    2    3    3    0    0  0.63984843132E-01 -0.47122103191E-01 -0.10162743407E+00  0.13062976693E+00  0.20529196083E-01 0.  0.
         14    1    1    2    0    0  0.15925644563E-01  0.17067917282E-01  0.52859883464E-02  0.23934945746E-01  0.00000000000E+00 0. -1.
     999901    1    3    3    0    0 -0.79910487695E-01  0.30054185909E-01  0.96341445726E-01  0.88936528733E+00  0.88000000000E+00 0.  1.
        -11    1    4    4    0    0  0.30031882657E-01 -0.32119057846E-01 -0.45005086744E-01  0.62922705017E-01  0.51100000000E-03 0.  1.
         11    1    4    4    0    0  0.33952960476E-01 -0.15003045345E-01 -0.56622347329E-01  0.67707061912E-01  0.51100000000E-03 0. -1.
</event>
<event>
 8    1  0.1128298E+005  0.1043930E+01  0.7957747E-01            NaN
         13   -1    0    0    0    0  0.00000000000E+00  0.00000000000E+00  0.74505805969E-08  0.10566000000E+00  0.10566000000E+00 0. -1.
     999900   -1    0    0    0    0 -0.00000000000E+00 -0.00000000000E+00 -0.74505805969E-08  0.93827000000E+00  0.93827000000E+00 0. -1.
     999902    2    1    2    0    0 -0.15116210854E-01  0.18529163960E-01 -0.20744426527E-02  0.10199272281E+01  0.10196447506E+01 0.  0.
     999903    2    3    3    0    0  0.11395775086E+00 -0.31052912696E-01  0.44772816263E-01  0.12789968613E+00  0.20076659815E-01 0.  0.
         14    1    1    2    0    0  0.15116210854E-01 -0.18529163960E-01  0.20744426527E-02  0.24002771922E-01  0.00000000000E+00 0.  1.
     999901    1    3    3    0    0 -0.12907396171E+00  0.49582076656E-01 -0.46847258915E-01  0.89202754194E+00  0.88000000000E+00 0.  1.
        -11    1    4    4    0    0  0.10187979870E+00 -0.31121946579E-01  0.34326212760E-01  0.11192237911E+00  0.51100000000E-03 0. -1.
         11    1    4    4    0    0  0.12077952160E-01  0.69033882876E-04  0.10446603503E-01  0.15977307026E-01  0.51100000000E-03 0.  1.
</event>
<event>
 8    1  0.1128298E+005  0.1043930E+01  0.7957747E-01            NaN
         13   -1    0    0    0    0  0.00000000000E+00  0.00000000000E+00  0.74505805969E-08  0.10566000000E+00  0.10566000000E+00 0. -1.
     999900   -1    0    0    0    0 -0.00000000000E+00 -0.00000000000E+00 -0.74505805969E-08  0.93827000000E+00  0.93827000000E+00 0. -1.
     999902    2    1    2    0    0  0.19106419923E-01  0.11667012941E-01 -0.68010159770E-02  0.10205328145E+01  0.10202645721E+01 0.  0.
     999903    2    3    3    0    0  0.68734932199E-01 -0.10944719287E+00 -0.49580554132E-02  0.13085026625E+00  0.19850212370E-01 0.  0.
         14    1    1    2    0    0 -0.19106419923E-01 -0.11667012941E-01  0.68010159770E-02  0.23397185548E-01  0.00000000000E+00 0.  1.
     999901    1    3    3    0    0 -0.49628512275E-01  0.12111420581E+00 -0.18429605638E-02  0.88968254821E+00  0.88000000000E+00 0. -1.
        -11    1    4    4    0    0  0.44313683223E-01 -0.52816110356E-01  0.36382301569E-03  0.68946628069E-01  0.51100000000E-03 0.  1.
         11    1    4    4    0    0  0.24421248976E-01 -0.56631082516E-01 -0.53218784289E-02  0.61903638176E-01  0.51100000000E-03 0. -1.
</event>
<event>
 8    1  0.1128298E+005  0.1043930E+01  0.7957747E-01            NaN
         13   -1    0    0    0    0  0.00000000000E+00  0.00000000000E+00  0.74505805969E-08  0.10566000000E+00  0.10566000000E+00 0. -1.
     999900   -1    0    0    0    0 -0.00000000000E+00 -0.00000000000E+00 -0.74505805969E-08  0.93827000000E+00  0.93827000000E+00 0.  1.
     999902    2    1    2    0    0 -0.14243960506E-01 -0.22548058743E-01  0.13812566947E-01  0.10138951474E+01  0.10134501851E+01 0.  0.
     999903    2    3    3    0    0  0.69772478285E-01  0.75789296731E-01  0.65429522828E-01  0.12294435888E+00  0.14902237984E-01 0.  0.
         14    1    1    2    0    0  0.14243960506E-01  0.22548058743E-01 -0.13812566947E-01  0.30034852582E-01  0.00000000000E+00 0. -1.
     999901    1    3    3    0    0 -0.84016438791E-01 -0.98337355474E-01 -0.51616955881E-01  0.89095078854E+00  0.88000000000E+00 0.  1.
        -11    1    4    4    0    0  0.43376754263E-01  0.37235460491E-01  0.32275441183E-01  0.65650495451E-01  0.51100000000E-03 0. -1.
         11    1    4    4    0    0  0.26395724021E-01  0.38553836240E-01  0.33154081645E-01  0.57293863425E-01  0.51100000000E-03 0.  1.
</event>
<event>
 8    1  0.1128298E+005  0.1043930E+01  0.7957747E-01            NaN
         13   -1    0    0    0    0  0.00000000000E+00  0.00000000000E+00  0.74505805969E-08  0.10566000000E+00  0.10566000000E+00 0. -1.
     999900   -1    0    0    0    0 -0.00000000000E+00 -0.00000000000E+00 -0.74505805969E-08  0.93827000000E+00  0.93827000000E+00 0. -1.
     999902    2    1    2    0    0 -0.13181415189E-01 -0.14329334214E-01  0.13085620751E-01  0.10204712491E+01  0.10202015767E+01 0.  0.
     999903    2    3    3    0    0  0.60720844164E-01 -0.10011612780E+00 -0.54422748269E-01  0.13065199900E+00  0.19946161280E-01 0.  0.
         14    1    1    2    0    0  0.13181415189E-01  0.14329334214E-01 -0.13085620751E-01  0.23458750943E-01  0.00000000000E+00 0. -1.
     999901    1    3    3    0    0 -0.73902259353E-01  0.85786793591E-01  0.67508369019E-01  0.88981925006E+00  0.88000000000E+00 0.  1.
        -11    1    4    4    0    0  0.10204795416E-01 -0.13479941157E-01 -0.15911841750E-01  0.23222715000E-01  0.51100000000E-03 0.  1.
         11    1    4    4    0    0  0.50516048748E-01 -0.86636186647E-01 -0.38510906518E-01  0.10742928400E+00  0.51100000000E-03 0. -1.
</event>
<event>
 8    1  0.1128298E+005  0.1043930E+01  0.7957747E-01            NaN
         13   -1    0    0    0    0  0.00000000000E+00  0.00000000000E+00  0.74505805969E-08  0.10566000000E+00  0.10566000000E+00 0.  1.
     999900   -1    0    0    0    0 -0.00000000000E+00 -0.00000000000E+00 -0.74505805969E-08  0.93827000000E+00  0.93827000000E+00 0.  1.
     999902    2    1    2    0    0  0.97003346251E-02  0.13765670655E-01 -0.17858383484E-01  0.10193838793E+01  0.10190883089E+01 0.  0.
     999903    2    3    3    0    0  0.91752749377E-01 -0.64201380835E-01 -0.64722685095E-01  0.13089768209E+00  0.20119465469E-01 0.  0.
         14    1    1    2    0    0 -0.97003346251E-02 -0.13765670655E-01  0.17858383484E-01  0.24546120693E-01  0.00000000000E+00 0.  1.
     999901    1    3    3    0    0 -0.82052414751E-01  0.77967051489E-01  0.46864301611E-01  0.88848619722E+00  0.88000000000E+00 0.  1.
        -11    1    4    4    0    0  0.45077510462E-01 -0.25563525387E-01 -0.39948476996E-01  0.65434071515E-01  0.51100000000E-03 0. -1.
         11    1    4    4    0    0  0.46675238914E-01 -0.38637855447E-01 -0.24774208098E-01  0.65463610572E-01  0.51100000000E-03 0.  1.
</event>
<event>
 8    1  0.1128298E+005  0.1043930E+01  0.7957747E-01            NaN
         13   -1    0    0    0    0  0.00000000000E+00  0.00000000000E+00  0.74505805969E-08  0.10566000000E+00  0.10566000000E+00 0.  1.
     999900   -1    0    0    0    0 -0.00000000000E+00 -0.00000000000E+00 -0.74505805969E-08  0.93827000000E+00  0.93827000000E+00 0.  1.
     999902    2    1    2    0    0  0.10653232811E-01 -0.69070139067E-02  0.20300491356E-01  0.10199861457E+01  0.10197050697E+01 0.  0.
     999903    2    3    3    0    0  0.10663407116E+00 -0.71760657326E-01  0.24170520409E-01  0.13238640846E+00  0.20531196113E-01 0.  0.
         14    1    1    2    0    0 -0.10653232811E-01  0.69070139067E-02 -0.20300491356E-01  0.23943854320E-01  0.00000000000E+00 0. -1.
     999901    1    3    3    0    0 -0.95980838354E-01  0.64853643420E-01 -0.38700290531E-02  0.88759973722E+00  0.88000000000E+00 0. -1.
        -11    1    4    4    0    0  0.31762302033E-01 -0.26957065773E-01  0.16442574126E-01  0.44790027801E-01  0.51100000000E-03 0.  1.
         11    1    4    4    0    0  0.74871769132E-01 -0.44803591553E-01  0.77279462824E-02  0.87596380654E-01  0.51100000000E-03 0. -1.
</event>
<event>
 8    1  0.1128298E+005  0.1043930E+01  0.7957747E-01            NaN
         13   -1    0    0    0    0  0.00000000000E+00  0.00000000000E+00  0.74505805969E-08  0.10566000000E+00  0.10566000000E+00 0.  1.
     999900   -1    0    0    0    0 -0.00000000000E+00 -0.00000000000E+00 -0.74505805969E-08  0.93827000000E+00  0.93827000000E+00 0. -1.
     999902    2    1    2    0    0  0.21746425664E-01  0.11130310813E-01 -0.11942636612E-02  0.10194715227E+01  0.10191780847E+01 0.  0.
     999903    2    3    3    0    0 -0.90882614005E-01 -0.22472726215E-01  0.84208266577E-01  0.12755893903E+00  0.20385725750E-01 0.  0.
         14    1    1    2    0    0 -0.21746425664E-01 -0.11130310813E-01  0.11942636612E-02  0.24458477337E-01  0.00000000000E+00 0. -1.
     999901    1    3    3    0    0  0.11262903967E+00  0.33603037028E-01 -0.85402530238E-01  0.89191258363E+00  0.88000000000E+00 0. -1.
        -11    1    4    4    0    0 -0.76233008736E-01 -0.17533482876E-01  0.58988786679E-01  0.97973632767E-01  0.51100000000E-03 0. -1.
         11    1    4    4    0    0 -0.14649605270E-01 -0.49392433386E-02  0.25219479898E-01  0.29585306262E-01  0.51100000000E-03 0.  1.
</event>
<event>
 8    1  0.1128298E+005  0.1043930E+01  0.7957747E-01            NaN
         13   -1    0    0    0    0  0.00000000000E+00  0.00000000000E+00  0.74505805969E-08  0.10566000000E+00  0.10566000000E+00 0. -1.
     999900   -1    0    0    0    0 -0.00000000000E+00 -0.00000000000E+00 -0.74505805969E-08  0.93827000000E+00  0.93827000000E+00 0. -1.
     999902    2    1    2    0    0  0.25869516088E-02  0.17733400305E-01  0.18528125799E-01  0.10181529317E+01  0.10178265742E+01 0.  0.
     999903    2    3    3    0    0  0.11989909222E+00  0.45115395086E-01  0.11666229593E-02  0.12977613452E+00  0.20719384479E-01 0.  0.
         14    1    1    2    0    0 -0.25869516088E-02 -0.17733400305E-01 -0.18528125799E-01  0.25777068310E-01  0.00000000000E+00 0.  1.
     999901    1    3    3    0    0 -0.11731214061E+00 -0.27381994781E-01  0.17361502840E-01  0.88837679717E+00  0.88000000000E+00 0. -1.
        -11    1    4    4    0    0  0.32309870660E-01  0.14054660896E-01  0.94199483895E-02  0.36475440829E-01  0.51100000000E-03 0. -1.
         11    1    4    4    0    0  0.87589221557E-01  0.31060734190E-01 -0.82533254302E-02  0.93300693690E-01  0.51100000000E-03 0.  1.
</event>
<event>
 8    1  0.1128298E+005  0.1043930E+01  0.7957747E-01            NaN
         13   -1    0    0    0    0  0.00000000000E+00  0.00000000000E+00  0.74505805969E-08  0.10566000000E+00  0.10566000000E+00 0.  1.
     999900   -1    0    0    0    0 -0.00000000000E+00 -0.00000000000E+00 -0.74505805969E-08  0.93827000000E+00  0.93827000000E+00 0.  1.
     999902    2    1    2    0    0  0.19946988186E-01  0.37893791893E-02  0.11683615824E-01  0.10205046161E+01  0.10202357193E+01 0.  0.
     999903    2    3    3    0    0 -0.82814704144E-01  0.73618524353E-01 -0.62197431614E-01  0.12871176790E+00  0.20499666976E-01 0.  0.
         14    1    1    2    0    0 -0.19946988186E-01 -0.37893791893E-02 -0.11683615824E-01  0.23425383904E-01  0.00000000000E+00 0. -1.
     999901    1    3    3    0    0  0.10276169233E+00 -0.69829145163E-01  0.73881047438E-01  0.89179284820E+00  0.88000000000E+00 0. -1.
        -11    1    4    4    0    0 -0.18160669411E-01  0.26111781034E-01 -0.11611515817E-01  0.33863305255E-01  0.51100000000E-03 0.  1.
         11    1    4    4    0    0 -0.64654034732E-01  0.47506743319E-01 -0.50585915797E-01  0.94848462644E-01  0.51100000000E-03 0. -1.
</event>
<event>
 8    1  0.1128298E+005  0.1043930E+01  0.7957747E-01            NaN
         13   -1    0    0    0    0  0.00000000000E+00  0.00000000000E+00  0.74505805969E-08  0.10566000000E+00  0.10566000000E+00 0.  1.
     999900   -1    0    0    0    0 -0.00000000000E+00 -0.00000000000E+00 -0.74505805969E-08  0.93827000000E+00  0.93827000000E+00 0.  1.
     999902    2    1    2    0    0  0.62584909034E-02  0.39708749938E-02  0.22004413824E-01  0.10207108100E+01  0.10204466801E+01 0.  0.
     999903    2    3    3    0    0  0.22466252636E-01 -0.95022844421E-01 -0.82419124597E-01  0.12887746043E+00  0.16805184865E-01 0.  0.
         14    1    1    2    0    0 -0.62584909034E-02 -0.39708749938E-02 -0.22004413824E-01  0.23219190002E-01  0.00000000000E+00 0. -1.
     999901    1    3    3    0    0 -0.16207761732E-01  0.98993719415E-01  0.10442353842E+00  0.89183334957E+00  0.88000000000E+00 0. -1.
        -11    1    4    4    0    0  0.23146312823E-01 -0.77854962804E-01 -0.73351801648E-01  0.10944356974E+00  0.51100000000E-03 0. -1.
         11    1    4    4    0    0 -0.68006018726E-03 -0.17167881617E-01 -0.90673229493E-02  0.19433890695E-01  0.51100000000E-03 0.  1.
</event>
<event>
 8    1  0.1128298E+005  0.1043930E+01  0.7957747E-01            NaN
         13   -1    0    0    0    0  0.00000000000E+00  0.00000000000E+00  0.74505805969E-08  0.10566000000E+00  0.10566000000E+00 0.  1.
     999900   -1    0    0    0    0 -0.00000000000E+00 -0.00000000000E+00 -0.74505805969E-08  0.93827000000E+00  0.93827000000E+00 0.  1.
     999902    2    1    2    0    0 -0.10429117140E-01 -0.17099903381E-01  0.13231540736E-01  0.10199248578E+01  0.10196423239E+01 0.  0.
     999903    2    3    3    0    0  0.80822216479E-01 -0.46065594920E-01  0.90174388579E-01  0.13139460005E+00  0.21882661048E-01 0.  0.
         14    1    1    2    0    0  0.10429117140E-01  0.17099903381E-01 -0.13231540736E-01  0.24005142161E-01  0.00000000000E+00 0.  1.
     999901    1    3    3    0    0 -0.91251333618E-01  0.28965691539E-01 -0.76942847843E-01  0.88853025779E+00  0.88000000000E+00 0.  1.
        -11    1    4    4    0    0  0.39090750871E-01 -0.33026302941E-01  0.56299228895E-01  0.76083426479E-01  0.51100000000E-03 0.  1.
         11    1    4    4    0    0  0.41731465607E-01 -0.13039291979E-01  0.33875159684E-01  0.55311173570E-01  0.51100000000E-03 0. -1.
</event>
<event>
 8    1  0.1128298E+005  0.1043930E+01  0.7957747E-01            NaN
         13   -1    0    0    0    0  0.00000000000E+00  0.00000000000E+00  0.74505805969E-08  0.10566000000E+00  0.10566000000E+00 0.  1.
     999900   -1    0    0    0    0 -0.00000000000E+00 -0.00000000000E+00 -0.74505805969E-08  0.93827000000E+00  0.93827000000E+00 0.  1.
     999902    2    1    2    0    0 -0.20760129036E-01  0.56287647714E-02 -0.13289320546E-02  0.10223793153E+01  0.10221521571E+01 0.  0.
     999903    2    3    3    0    0 -0.12173184779E-01  0.39552150248E-01 -0.12487738961E+00  0.13306005145E+00  0.19951336777E-01 0.  0.
         14    1    1    2    0    0  0.20760129036E-01 -0.56287647714E-02  0.13289320546E-02  0.21550684696E-01  0.00000000000E+00 0.  1.
     999901    1    3    3    0    0 -0.85869442578E-02 -0.33923385476E-01  0.12354845756E+00  0.88931926385E+00  0.88000000000E+00 0. -1.
        -11    1    4    4    0    0 -0.13143029660E-01  0.31989036624E-01 -0.74882726810E-01  0.82484674869E-01  0.51100000000E-03 0.  1.
         11    1    4    4    0    0  0.96984488162E-03  0.75631136237E-02 -0.49994662802E-01  0.50575376583E-01  0.51100000000E-03 0. -1.
</event>
<event>
 8    1  0.1128298E+005  0.1043930E+01  0.7957747E-01            NaN
         13   -1    0    0    0    0  0.00000000000E+00  0.00000000000E+00  0.74505805969E-08  0.10566000000E+00  0.10566000000E+00 0.  1.
     999900   -1    0    0    0    0 -0.00000000000E+00 -0.00000000000E+00 -0.74505805969E-08  0.93827000000E+00  0.93827000000E+00 0.  1.
     999902    2    1    2    0    0  0.36302040855E-02  0.18950394920E-01 -0.12574621412E-01  0.10208992173E+01  0.10206394049E+01 0.  0.
     999903    2    3    3    0    0 -0.12890281525E+00 -0.10571222373E-02  0.59843312656E-02  0.13055673447E+00  0.19803924049E-01 0.  0.
         14    1    1    2    0    0 -0.36302040855E-02 -0.18950394920E-01  0.12574621412E-01  0.23030782726E-01  0.00000000000E+00 0.  1.
     999901    1    3    3    0    0  0.13253301934E+00  0.20007517157E-01 -0.18558952678E-01  0.89034248280E+00  0.88000000000E+00 0.  1.
        -11    1    4    4    0    0 -0.12127340093E-01  0.27829534684E-03 -0.52614406270E-02  0.13232297779E-01  0.51100000000E-03 0.  1.
         11    1    4    4    0    0 -0.11677547516E+00 -0.13354175841E-02  0.11245771893E-01  0.11732443669E+00  0.51100000000E-03 0. -1.
</event>
<event>
 8    1  0.1128298E+005  0.1043930E+01  0.7957747E-01            NaN
         13   -1    0    0    0    0  0.00000000000E+00  0.00000000000E+00  0.74505805969E-08  0.10566000000E+00  0.10566000000E+00 0. -1.
     999900   -1    0    0    0    0 -0.00000000000E+00 -0.00000000000E+00 -0.74505805969E-08  0.93827000000E+00  0.93827000000E+00 0.  1.
     999902    2    1    2    0    0 -0.24180070260E-02 -0.24758237170E-01  0.72062075596E-02  0.10180312260E+01  0.10177017395E+01 0.  0.
     999903    2    3    3    0    0  0.31547102493E-01 -0.99206126459E-01 -0.75792033614E-01  0.13034613270E+00  0.20214023539E-01 0.  0.
         14    1    1    2    0    0  0.24180070260E-02  0.24758237170E-01 -0.72062075596E-02  0.25898773970E-01  0.00000000000E+00 0.  1.
     999901    1    3    3    0    0 -0.33965109519E-01  0.74447889289E-01  0.82998241174E-01  0.88768509333E+00  0.88000000000E+00 0. -1.
        -11    1    4    4    0    0  0.13419227634E-01 -0.68765384086E-01 -0.56461847079E-01  0.89983081829E-01  0.51100000000E-03 0.  1.
         11    1    4    4    0    0  0.18127874859E-01 -0.30440742373E-01 -0.19330186535E-01  0.40363050871E-01  0.51100000000E-03 0. -1.
</event>
<event>
 8    1  0.1128298E+005  0.1043930E+01  0.7957747E-01            NaN
         13   -1    0    0    0    0  0.00000000000E+00  0.00000000000E+00  0.74505805969E-08  0.10566000000E+00  0.10566000000E+00 0.  1.
     999900   -1    0    0    0    0 -0.00000000000E+00 -0.00000000000E+00 -0.74505805969E-08  0.93827000000E+00  0.93827000000E+00 0. -1.
     999902    2    1    2    0    0 -0.16278378117E-01  0.25274954830E-02  0.16479982128E-01  0.10206284198E+01  0.10203623904E+01 0.  0.
     999903    2    3    3    0    0 -0.11103782811E+00  0.34296785572E-01 -0.58840642910E-01  0.13177419235E+00  0.19913506421E-01 0.  0.
         14    1    1    2    0    0  0.16278378117E-01 -0.25274954830E-02 -0.16479982128E-01  0.23301580171E-01  0.00000000000E+00 0. -1.
     999901    1    3    3    0    0  0.94759449996E-01 -0.31769290089E-01  0.75320625037E-01  0.88885422748E+00  0.88000000000E+00 0.  1.
        -11    1    4    4    0    0 -0.85798315913E-01  0.21277401952E-01 -0.51996050761E-01  0.10255695619E+00  0.51100000000E-03 0. -1.
         11    1    4    4    0    0 -0.25239512200E-01  0.13019383620E-01 -0.68445921493E-02  0.29217236157E-01  0.51100000000E-03 0.  1.
</event>
<event>
 8    1  0.1128298E+005  0.1043930E+01  0.7957747E-01            NaN
         13   -1    0    0    0    0  0.00000000000E+00  0.00000000000E+00  0.74505805969E-08  0.10566000000E+00  0.10566000000E+00 0. -1.
     999900   -1    0    0    0    0 -0.00000000000E+00 -0.00000000000E+00 -0.74505805969E-08  0.93827000000E+00  0.93827000000E+00 0.  1.
     999902    2    1    2    0    0 -0.21864257856E-02  0.72436864138E-02 -0.21376813687E-01  0.10212535890E+01  0.10210017990E+01 0.  0.
     999903    2    3    3    0    0 -0.90731269813E-01 -0.44365862999E-01 -0.84129654304E-01  0.13308600688E+00  0.20822905002E-01 0.  0.
         14    1    1    2    0    0  0.21864257856E-02 -0.72436864138E-02  0.21376813687E-01  0.22676410959E-01  0.00000000000E+00 0. -1.
     999901    1    3    3    0    0  0.88544844028E-01  0.51609549412E-01  0.62752840617E-01  0.88816758216E+00  0.88000000000E+00 0.  1.
        -11    1    4    4    0    0 -0.72551444600E-01 -0.28032714823E-01 -0.56138445148E-01  0.95923570401E-01  0.51100000000E-03 0.  1.
         11    1    4    4    0    0 -0.18179825213E-01 -0.16333148175E-01 -0.27991209156E-01  0.37162436480E-01  0.51100000000E-03 0. -1.
</event>
<event>
 8    1  0.1128298E+005  0.1043930E+01  0.7957747E-01            NaN
         13   -1    0    0    0    0  0.00000000000E+00  0.00000000000E+00  0.74505805969E-08  0.10566000000E+00  0.10566000000E+00 0. -1.
     999900   -1    0    0    0    0 -0.00000000000E+00 -0.00000000000E+00 -0.74505805969E-08  0.93827000000E+00  0.93827000000E+00 0. -1.
     999902    2    1    2    0    0 -0.10426052551E-01  0.20818670292E-01 -0.29087490356E-02  0.10204655498E+01  0.10201957448E+01 0.  0.
     999903    2    3    3    0    0 -0.14295834447E-01 -0.97879805694E-01  0.79154965725E-01  0.12870394669E+00  0.22679727723E-01 0.  0.
         14    1    1    2    0    0  0.10426052551E-01 -0.20818670292E-01  0.29087490356E-02  0.23464450248E-01  0.00000000000E+00 0.  1.
     999901    1    3    3    0    0  0.38697818959E-02  0.11869847599E+00 -0.82063714760E-01  0.89176160306E+00  0.88000000000E+00 0. -1.
        -11    1    4    4    0    0  0.32814038492E-02 -0.50911673512E-01  0.34864313268E-01  0.61794397575E-01  0.51100000000E-03 0.  1.
         11    1    4    4    0    0 -0.17577238296E-01 -0.46968132183E-01  0.44290652457E-01  0.66909549116E-01  0.51100000000E-03 0. -1.
</event>
<event>
 8    1  0.1128298E+005  0.1043930E+01  0.7957747E-01            NaN
         13   -1    0    0    0    0  0.00000000000E+00  0.00000000000E+00  0.74505805969E-08  0.10566000000E+00  0.10566000000E+00 0. -1.
     999900   -1    0    0    0    0 -0.00000000000E+00 -0.00000000000E+00 -0.74505805969E-08  0.93827000000E+00  0.93827000000E+00 0.  1.
     999902    2    1    2    0    0 -0.13335732336E-01  0.34148030650E-02 -0.18207888033E-01  0.10211039223E+01  0.10208487598E+01 0.  0.
     999903    2    3    3    0    0 -0.90224992865E-01 -0.87393341702E-01 -0.42393605957E-01  0.13276669663E+00  0.71855686994E-02 0.  0.
         14    1    1    2    0    0  0.13335732336E-01 -0.34148030650E-02  0.18207888033E-01  0.22826077708E-01  0.00000000000E+00 0. -1.
     999901    1    3    3    0    0  0.76889260529E-01  0.90808144767E-01  0.24185717925E-01  0.88833722566E+00  0.88000000000E+00 0. -1.
        -11    1    4    4    0    0 -0.15269456342E-01 -0.11735681532E-01 -0.78452145424E-02  0.20801226652E-01  0.51100000000E-03 0. -1.
         11    1    4    4    0    0 -0.74955536523E-01 -0.75657660170E-01 -0.34548391415E-01  0.11196546998E+00  0.51100000000E-03 0.  1.
</event>
<event>
 8    1  0.1128298E+005  0.1043930E+01  0.7957747E-01            NaN
         13   -1    0    0    0    0  0.00000000000E+00  0.00000000000E+00  0.74505805969E-08  0.10566000000E+00  0.10566000000E+00 0. -1.
     999900   -1    0    0    0    0 -0.00000000000E+00 -0.00000000000E+00 -0.74505805969E-08  0.93827000000E+00  0.93827000000E+00 0.  1.
     999902    2    1    2    0    0  0.34413049995E-03  0.97024818085E-02 -0.21915224084E-01  0.10199605689E+01  0.10196788850E+01 0.  0.
     999903    2    3    3    0    0 -0.88716255999E-01  0.90517053265E-01  0.21742965646E-01  0.13070875705E+00  0.23411783455E-01 0.  0.
         14    1    1    2    0    0 -0.34413049995E-03 -0.97024818085E-02  0.21915224084E-01  0.23969431068E-01  0.00000000000E+00 0. -1.
     999901    1    3    3    0    0  0.89060386499E-01 -0.80814571456E-01 -0.43658189731E-01  0.88925181188E+00  0.88000000000E+00 0.  1.
        -11    1    4    4    0    0 -0.53931801296E-01  0.39815002956E-01  0.16216073104E-01  0.68971702888E-01  0.51100000000E-03 0.  1.
         11    1    4    4    0    0 -0.34784454703E-01  0.50702050309E-01  0.55268925424E-02  0.61737054163E-01  0.51100000000E-03 0. -1.
</event>
<event>
 8    1  0.1128298E+005  0.1043930E+01  0.7957747E-01            NaN
         13   -1    0    0    0    0  0.00000000000E+00  0.00000000000E+00  0.74505805969E-08  0.10566000000E+00  0.10566000000E+00 0. -1.
     999900   -1    0    0    0    0 -0.00000000000E+00 -0.00000000000E+00 -0.74505805969E-08  0.93827000000E+00  0.93827000000E+00 0. -1.
     999902    2    1    2    0    0 -0.22583543573E-02 -0.19592408000E-01 -0.36518232390E-02  0.10238726216E+01  0.10236761435E+01 0.  0.
     999903    2    3    3    0    0  0.90588064402E-01  0.86922571808E-01  0.34981015917E-01  0.13176366263E+00  0.19397433154E-01 0.  0.
         14    1    1    2    0    0  0.22583543573E-02  0.19592408000E-01  0.36518232390E-02  0.20057378409E-01  0.00000000000E+00 0. -1.
     999901    1    3    3    0    0 -0.92846418759E-01 -0.10651497981E+00 -0.38632839156E-01  0.89210895896E+00  0.88000000000E+00 0. -1.
        -11    1    4    4    0    0  0.37577890489E-01  0.47982323946E-01  0.21422436263E-01  0.64603275159E-01  0.51100000000E-03 0. -1.
         11    1    4    4    0    0  0.53010173913E-01  0.38940247862E-01  0.13558579654E-01  0.67160387470E-01  0.51100000000E-03 0.  1.
</event>
<event>
 8    1  0.1128298E+005  0.1043930E+01  0.7957747E-01            NaN
         13   -1    0    0    0    0  0.00000000000E+00  0.00000000000E+00  0.74505805969E-08  0.10566000000E+00  0.10566000000E+00 0. -1.
     999900   -1    0    0    0    0 -0.00000000000E+00 -0.00000000000E+00 -0.74505805969E-08  0.93827000000E+00  0.93827000000E+00 0. -1.
     999902    2    1    2    0    0 -0.69370920749E-02  0.33304406209E-02  0.21499450992E-01  0.10210949070E+01  0.10208395405E+01 0.  0.
     999903    2    3    3    0    0 -0.11921488818E+00 -0.52109803479E-01 -0.61610775840E-02  0.13180022633E+00  0.20142482478E-01 0.  0.
         14    1    1    2    0    0  0.69370920749E-02 -0.33304406209E-02 -0.21499450992E-01  0.22835093040E-01  0.00000000000E+00 0.  1.
     999901    1    3    3    0    0  0.11227779610E+00  0.55440244100E-01  0.27660528576E-01  0.88929468063E+00  0.88000000000E+00 0.  1.
        -11    1    4    4    0    0 -0.42933264466E-01 -0.25251728521E-01 -0.10123927978E-01  0.50829814379E-01  0.51100000000E-03 0.  1.
         11    1    4    4    0    0 -0.76281623712E-01 -0.26858074958E-01  0.39628503941E-02  0.80970411947E-01  0.51100000000E-03 0. -1.
</event>
<event>
 8    1  0.1128298E+005  0.1043930E+01  0.7957747E-01            NaN
         13   -1    0    0    0    0  0.00000000000E+00  0.00000000000E+00  0.74505805969E-08  0.10566000000E+00  0.10566000000E+00 0.  1.
     999900   -1    0    0    0    0 -0.00000000000E+00 -0.00000000000E+00 -0.74505805969E-08  0.93827000000E+00  0.93827000000E+00 0.  1.
     999902    2    1    2    0    0  0.13915614918E-01 -0.18109962386E-01  0.48744804022E-02  0.10205767211E+01  0.10203094962E+01 0.  0.
     999903    2    3    3    0    0 -0.12078136150E+00  0.27270346472E-01  0.33053803907E-01  0.12872655310E+00  0.12089765797E-01 0.  0.
         14    1    1    2    0    0 -0.13915614918E-01  0.18109962386E-01 -0.48744804022E-02  0.23353278900E-01  0.00000000000E+00 0. -1.
     999901    1    3    3    0    0  0.13469697642E+00 -0.45380308858E-01 -0.28179323505E-01  0.89185016800E+00  0.88000000000E+00 0.  1.
        -11    1    4    4    0    0 -0.55899122194E-01  0.17145476286E-01  0.19798496091E-01  0.61732655764E-01  0.51100000000E-03 0.  1.
         11    1    4    4    0    0 -0.64882239308E-01  0.10124870186E-01  0.13255307816E-01  0.66993897336E-01  0.51100000000E-03 0. -1.
</event>
<event>
 8    1  0.1128298E+005  0.1043930E+01  0.7957747E-01            NaN
         13   -1    0    0    0    0  0.00000000000E+00  0.00000000000E+00  0.74505805969E-08  0.10566000000E+00  0.10566000000E+00 0.  1.
     999900   -1    0    0    0    0 -0.00000000000E+00 -0.00000000000E+00 -0.74505805969E-08  0.93827000000E+00  0.93827000000E+00 0.  1.
     999902    2    1    2    0    0  0.38713628494E-02  0.18995355909E-01  0.14129620560E-01  0.10199413115E+01  0.10196591694E+01 0.  0.
     999903    2    3    3    0    0  0.11650445846E+00  0.58164310211E-01  0.51339349550E-02  0.13185272162E+00  0.20060086922E-01 0.  0.
         14    1    1    2    0    0 -0.38713628494E-02 -0.18995355909E-01 -0.14129620560E-01  0.23988688451E-01  0.00000000000E+00 0. -1.
     999901    1    3    3    0    0 -0.11263309561E+00 -0.39168954301E-01  0.89956856045E-02  0.88808858993E+00  0.88000000000E+00 0. -1.
        -11    1    4    4    0    0  0.51325490534E-01  0.36807396848E-01  0.22353890702E-02  0.63200858591E-01  0.51100000000E-03 0.  1.
         11    1    4    4    0    0  0.65178967923E-01  0.21356913362E-01  0.28985458848E-02  0.68651863027E-01  0.51100000000E-03 0. -1.
</event>
<event>
 8    1  0.1128298E+005  0.1043930E+01  0.7957747E-01            NaN
         13   -1    0    0    0    0  0.00000000000E+00  0.00000000000E+00  0.74505805969E-08  0.10566000000E+00  0.10566000000E+00 0.  1.
     999900   -1    0    0    0    0 -0.00000000000E+00 -0.00000000000E+00 -0.74505805969E-08  0.93827000000E+00  0.93827000000E+00 0. -1.
     999902    2    1    2    0    0  0.18178947199E-01 -0.15588060453E-01  0.46144573262E-02  0.10195424014E+01  0.10192506822E+01 0.  0.
     999903    2    3    3    0    0 -0.61357054934E-02 -0.12985553860E+00 -0.86601643726E-02  0.13172233263E+00  0.19382122696E-01 0.  0.
         14    1    1    2    0    0 -0.18178947199E-01  0.15588060453E-01 -0.46144573262E-02  0.24387598618E-01  0.00000000000E+00 0. -1.
     999901    1    3    3    0    0  0.24314652692E-01  0.11426747814E+00  0.13274621699E-01  0.88782006875E+00  0.88000000000E+00 0. -1.
        -11    1    4    4    0    0 -0.77008215923E-02 -0.23001640988E-01 -0.51251143672E-02  0.24797299442E-01  0.51100000000E-03 0. -1.
         11    1    4    4    0    0  0.15651160989E-02 -0.10685389761E+00 -0.35350500054E-02  0.10692503319E+00  0.51100000000E-03 0.  1.
</event>
<event>
 8    1  0.1128298E+005  0.1043930E+01  0.7957747E-01            NaN
         13   -1    0    0    0    0  0.00000000000E+00  0.00000000000E+00  0.74505805969E-08  0.10566000000E+00  0.10566000000E+00 0. -1.
     999900   -1    0    0    0    0 -0.00000000000E+00 -0.00000000000E+00 -0.74505805969E-08  0.93827000000E+00  0.93827000000E+00 0. -1.
     999902    2    1    2    0    0  0.17411076456E-02  0.21832687772E-01 -0.42159612236E-02  0.10216259188E+01  0.10213824190E+01 0.  0.
     999903    2    3    3    0    0  0.91985326377E-01 -0.89584384367E-01  0.45397342555E-02  0.12997887806E+00  0.19678347563E-01 0.  0.
         14    1    1    2    0    0 -0.17411076456E-02 -0.21832687772E-01  0.42159612236E-02  0.22304081246E-01  0.00000000000E+00 0.  1.
     999901    1    3    3    0    0 -0.90244218732E-01  0.11141707214E+00 -0.87556954791E-02  0.89164704070E+00  0.88000000000E+00 0. -1.
        -11    1    4    4    0    0  0.51273887974E-01 -0.51073618695E-01 -0.71675307719E-02  0.72726616399E-01  0.51100000000E-03 0.  1.
         11    1    4    4    0    0  0.40711438404E-01 -0.38510765672E-01  0.11707265027E-01  0.57252261658E-01  0.51100000000E-03 0. -1.
</event>
<event>
 8    1  0.1128298E+005  0.1043930E+01  0.7957747E-01            NaN
         13   -1    0    0    0    0  0.00000000000E+00  0.00000000000E+00  0.74505805969E-08  0.10566000000E+00  0.10566000000E+00 0.  1.
     999900   -1    0    0    0    0 -0.00000000000E+00 -0.00000000000E+00 -0.74505805969E-08  0.93827000000E+00  0.93827000000E+00 0.  1.
     999902    2    1    2    0    0  0.51742287228E-02 -0.17626915187E-01 -0.15814742392E-01  0.10196898090E+01  0.10194016479E+01 0.  0.
     999903    2    3    3    0    0 -0.40199119430E-01  0.43889856107E-01 -0.11616085924E+00  0.13069464759E+00  0.67421819176E-02 0.  0.
         14    1    1    2    0    0 -0.51742287228E-02  0.17626915187E-01  0.15814742392E-01  0.24240190981E-01  0.00000000000E+00 0. -1.
     999901    1    3    3    0    0  0.45373348153E-01 -0.61516771294E-01  0.10034611685E+00  0.88899516143E+00  0.88000000000E+00 0. -1.
        -11    1    4    4    0    0 -0.17332977769E-01  0.19751640009E-01 -0.44246598492E-01  0.51464376034E-01  0.51100000000E-03 0.  1.
         11    1    4    4    0    0 -0.22866141661E-01  0.24138216098E-01 -0.71914260751E-01  0.79230271558E-01  0.51100000000E-03 0. -1.
</event>
<event>
 8    1  0.1128298E+005  0.1043930E+01  0.7957747E-01            NaN
         13   -1    0    0    0    0  0.00000000000E+00  0.00000000000E+00  0.74505805969E-08  0.10566000000E+00  0.10566000000E+00 0.  1.
     999900   -1    0    0    0    0 -0.00000000000E+00 -0.00000000000E+00 -0.74505805969E-08  0.93827000000E+00  0.93827000000E+00 0.  1.
     999902    2    1    2    0    0  0.11252008089E-01 -0.74880956536E-02  0.20721293442E-01  0.10191903301E+01  0.10188900224E+01 0.  0.
     999903    2    3    3    0    0  0.15656177755E-01  0.11064471023E+00 -0.58781580481E-01  0.12773339709E+00  0.19317834362E-01 0.  0.
         14    1    1    2    0    0 -0.11252008089E-01  0.74880956536E-02 -0.20721293442E-01  0.24739669854E-01  0.00000000000E+00 0. -1.
     999901    1    3    3    0    0 -0.44041696660E-02 -0.11813280588E+00  0.79502873923E-01  0.89145693306E+00  0.88000000000E+00 0. -1.
        -11    1    4    4    0    0  0.85291517700E-02  0.58228137849E-01 -0.20066185515E-01  0.62178576611E-01  0.51100000000E-03 0. -1.
         11    1    4    4    0    0  0.71270259855E-02  0.52416572379E-01 -0.38715394966E-01  0.65554820477E-01  0.51100000000E-03 0.  1.
</event>
<event>
 8    1  0.1128298E+005  0.1043930E+01  0.7957747E-01            NaN
         13   -1    0    0    0    0  0.00000000000E+00  0.00000000000E+00  0.74505805969E-08  0.10566000000E+00  0.10566000000E+00 0. -1.
     999900   -1    0    0    0    0 -0.00000000000E+00 -0.00000000000E+00 -0.74505805969E-08  0.93827000000E+00  0.93827000000E+00 0.  1.
     999902    2    1    2    0    0 -0.14035543188E-01  0.12286915103E-01  0.13802348539E-01  0.10207250527E+01  0.10204612504E+01 0.  0.
     999903    2    3    3    0    0 -0.85924373401E-01 -0.90783886587E-01 -0.33318150745E-01  0.13054982525E+00  0.17562622080E-01 0.  0.
         14    1    1    2    0    0  0.14035543188E-01 -0.12286915103E-01 -0.13802348539E-01  0.23204947329E-01  0.00000000000E+00 0.  1.
     999901    1    3    3    0    0  0.71888830213E-01  0.10307080169E+00  0.47120499284E-01  0.89017522743E+00  0.88000000000E+00 0. -1.
        -11    1    4    4    0    0 -0.78730067095E-01 -0.84633129568E-01 -0.35308494709E-01  0.12086414276E+00  0.51100000000E-03 0.  1.
         11    1    4    4    0    0 -0.71943063068E-02 -0.61507570186E-02  0.19903439638E-02  0.96856824866E-02  0.51100000000E-03 0. -1.
</event>
<event>
 8    1  0.1128298E+005  0.1043930E+01  0.7957747E-01            NaN
         13   -1    0    0    0    0  0.00000000000E+00  0.00000000000E+00  0.74505805969E-08  0.10566000000E+00  0.10566000000E+00 0.  1.
     999900   -1    0    0    0    0 -0.00000000000E+00 -0.00000000000E+00 -0.74505805969E-08  0.93827000000E+00  0.93827000000E+00 0. -1.
     999902    2    1    2    0    0  0.24596364744E-01 -0.32098556256E-02 -0.88484948751E-04  0.10191249166E+01  0.10188229991E+01 0.  0.
     999903    2    3    3    0    0 -0.36363688168E-01  0.23759477461E-02  0.12165477617E+00  0.12863698808E+00  0.20484803963E-01 0.  0.
         14    1    1    2    0    0 -0.24596364744E-01  0.32098556256E-02  0.88484948751E-04  0.24805083377E-01  0.00000000000E+00 0. -1.
     999901    1    3    3    0    0  0.60960052912E-01 -0.55858033718E-02 -0.12174326112E+00  0.89048792854E+00  0.88000000000E+00 0. -1.
        -11    1    4    4    0    0 -0.24858226443E-01 -0.38553782322E-02  0.52062925745E-01  0.57823911329E-01  0.51100000000E-03 0.  1.
         11    1    4    4    0    0 -0.11505461725E-01  0.62313259783E-02  0.69591850423E-01  0.70813076753E-01  0.51100000000E-03 0. -1.
</event>
<event>
 8    1  0.1128298E+005  0.1043930E+01  0.7957747E-01            NaN
         13   -1    0    0    0    0  0.00000000000E+00  0.00000000000E+00  0.74505805969E-08  0.10566000000E+00  0.10566000000E+00 0. -1.
     999900   -1    0    0    0    0 -0.00000000000E+00 -0.00000000000E+00 -0.74505805969E-08  0.93827000000E+00  0.93827000000E+00 0. -1.
     999902    2    1    2    0    0 -0.20595563473E-01 -0.57362084440E-02 -0.12026430387E-01  0.10194000927E+01  0.10191049174E+01 0.  0.
     999903    2    3    3    0    0  0.87980676706E-01 -0.24008492803E-01 -0.88910715526E-01  0.12921254531E+00  0.21766013179E-01 0.  0.
         14    1    1    2    0    0  0.20595563473E-01  0.57362084440E-02  0.12026430387E-01  0.24529907255E-01  0.00000000000E+00 0. -1.
     999901    1    3    3    0    0 -0.10857624018E+00  0.18272284359E-01  0.76884285139E-01  0.89018754744E+00  0.88000000000E+00 0.  1.
        -11    1    4    4    0    0  0.27768257409E-01 -0.12020519061E-01 -0.42850013280E-01  0.52459067444E-01  0.51100000000E-03 0. -1.
         11    1    4    4    0    0  0.60212419297E-01 -0.11987973743E-01 -0.46060702246E-01  0.76753477866E-01  0.51100000000E-03 0.  1.
</event>
<event>
 8    1  0.1128298E+005  0.1043930E+01  0.7957747E-01            NaN
         13   -1    0    0    0    0  0.00000000000E+00  0.00000000000E+00  0.74505805969E-08  0.10566000000E+00  0.10566000000E+00 0.  1.
     999900   -1    0    0    0    0 -0.00000000000E+00 -0.00000000000E+00 -0.74505805969E-08  0.93827000000E+00  0.93827000000E+00 0. -1.
     999902    2    1    2    0    0  0.17223756497E-01  0.11878224718E-01 -0.97316948635E-02  0.10208549941E+01  0.10205941716E+01 0.  0.
     999903    2    3    3    0    0 -0.21288804452E-01  0.64068036610E-02 -0.12844659420E+00  0.13203196276E+00  0.20967863478E-01 0.  0.
         14    1    1    2    0    0 -0.17223756497E-01 -0.11878224718E-01  0.97316948635E-02  0.23075005856E-01  0.00000000000E+00 0.  1.
     999901    1    3    3    0    0  0.38512560949E-01  0.54714210574E-02  0.11871489934E+00  0.88882303139E+00  0.88000000000E+00 0.  1.
        -11    1    4    4    0    0 -0.17946749298E-01  0.11176697447E-01 -0.65846323591E-01  0.69159264221E-01  0.51100000000E-03 0.  1.
         11    1    4    4    0    0 -0.33420551544E-02 -0.47698937864E-02 -0.62600270613E-01  0.62872698536E-01  0.51100000000E-03 0. -1.
</event>
<event>
 8    1  0.1128298E+005  0.1043930E+01  0.7957747E-01            NaN
         13   -1    0    0    0    0  0.00000000000E+00  0.00000000000E+00  0.74505805969E-08  0.10566000000E+00  0.10566000000E+00 0.  1.
     999900   -1    0    0    0    0 -0.00000000000E+00 -0.00000000000E+00 -0.74505805969E-08  0.93827000000E+00  0.93827000000E+00 0.  1.
     999902    2    1    2    0    0 -0.23335919834E-01  0.29210438899E-02  0.37859003773E-02  0.10201091962E+01  0.10198310358E+01 0.  0.
     999903    2    3    3    0    0  0.12577742725E+00 -0.63216356453E-02 -0.14646130580E-02  0.12750189997E+00  0.19866180340E-01 0.  0.
         14    1    1    2    0    0  0.23335919834E-01 -0.29210438899E-02 -0.37859003773E-02  0.23820803798E-01  0.00000000000E+00 0. -1.
     999901    1    3    3    0    0 -0.14911334708E+00  0.92426795352E-02  0.52505134353E-02  0.89260729624E+00  0.88000000000E+00 0. -1.
        -11    1    4    4    0    0  0.93340528603E-01 -0.11476520381E-01  0.43406674478E-02  0.94144927186E-01  0.51100000000E-03 0. -1.
         11    1    4    4    0    0  0.32436898644E-01  0.51548847353E-02 -0.58052805058E-02  0.33356972780E-01  0.51100000000E-03 0.  1.
</event>
<event>
 8    1  0.1128298E+005  0.1043930E+01  0.7957747E-01            NaN
         13   -1    0    0    0    0  0.00000000000E+00  0.00000000000E+00  0.74505805969E-08  0.10566000000E+00  0.10566000000E+00 0.  1.
     999900   -1    0    0    0    0 -0.00000000000E+00 -0.00000000000E+00 -0.74505805969E-08  0.93827000000E+00  0.93827000000E+00 0. -1.
     999902    2    1    2    0    0 -0.22847117074E-01 -0.38118733596E-02 -0.61000273249E-02  0.10199773077E+01  0.10196960217E+01 0.  0.
     999903    2    3    3    0    0  0.21794081846E-01 -0.11368050257E+00 -0.57329984616E-01  0.13054576962E+00  0.18900586285E-01 0.  0.
         14    1    1    2    0    0  0.22847117074E-01  0.38118733596E-02  0.61000273249E-02  0.23952692343E-01  0.00000000000E+00 0.  1.
     999901    1    3    3    0    0 -0.44641198920E-01  0.10986862921E+00  0.51229957291E-01  0.88943153803E+00  0.88000000000E+00 0. -1.
        -11    1    4    4    0    0  0.46368005918E-02 -0.68917818262E-01 -0.29486511793E-01  0.75105799326E-01  0.51100000000E-03 0.  1.
         11    1    4    4    0    0  0.17157281254E-01 -0.44762684310E-01 -0.27843472823E-01  0.55439970297E-01  0.51100000000E-03 0. -1.
</event>
<event>
 8    1  0.1128298E+005  0.1043930E+01  0.7957747E-01            NaN
         13   -1    0    0    0    0  0.00000000000E+00  0.00000000000E+00  0.74505805969E-08  0.10566000000E+00  0.10566000000E+00 0. -1.
     999900   -1    0    0    0    0 -0.00000000000E+00 -0.00000000000E+00 -0.74505805969E-08  0.93827000000E+00  0.93827000000E+00 0. -1.
     999902    2    1    2    0    0 -0.20457873927E-01 -0.36524846525E-02  0.12425982638E-01  0.10197169809E+01  0.10194294732E+01 0.  0.
     999903    2    3    3    0    0  0.34452263330E-01  0.26680032978E-01 -0.11845115669E+00  0.12782908973E+00  0.20268622345E-01 0.  0.
         14    1    1    2    0    0  0.20457873927E-01  0.36524846525E-02 -0.12425982638E-01  0.24213019107E-01  0.00000000000E+00 0.  1.
     999901    1    3    3    0    0 -0.54910137258E-01 -0.30332517630E-01  0.13087713933E+00  0.89188789116E+00  0.88000000000E+00 0.  1.
        -11    1    4    4    0    0  0.16086561395E-01  0.81519667500E-02 -0.25175791524E-01  0.30972788368E-01  0.51100000000E-03 0. -1.
         11    1    4    4    0    0  0.18365701935E-01  0.18528066228E-01 -0.93275365169E-01  0.96856301365E-01  0.51100000000E-03 0.  1.
</event>
<event>
 8    1  0.1128298E+005  0.1043930E+01  0.7957747E-01            NaN
         13   -1    0    0    0    0  0.00000000000E+00  0.00000000000E+00  0.74505805969E-08  0.10566000000E+00  0.10566000000E+00 0.  1.
     999900   -1    0    0    0    0 -0.00000000000E+00 -0.00000000000E+00 -0.74505805969E-08  0.93827000000E+00  0.93827000000E+00 0.  1.
     999902    2    1    2    0    0 -0.12952017634E-01  0.20017293861E-01  0.59158175945E-02  0.10193649087E+01  0.10190688756E+01 0.  0.
     999903    2    3    3    0    0  0.90667043575E-01 -0.77025707037E-01 -0.38669727069E-01  0.12687282206E+00  0.21163479161E-01 0.  0.
         14    1    1    2    0    0  0.12952017634E-01 -0.20017293861E-01 -0.59158175945E-02  0.24565091332E-01  0.00000000000E+00 0.  1.
     999901    1    3    3    0    0 -0.10361906121E+00  0.97043000898E-01  0.44585544663E-01  0.89249208661E+00  0.88000000000E+00 0.  1.
        -11    1    4    4    0    0  0.19354706437E-01 -0.28516092233E-01 -0.85120168273E-02  0.35503348137E-01  0.51100000000E-03 0.  1.
         11    1    4    4    0    0  0.71312337138E-01 -0.48509614804E-01 -0.30157710242E-01  0.91369473921E-01  0.51100000000E-03 0. -1.
</event>
<event>
 8    1  0.1128298E+005  0.1043930E+01  0.7957747E-01            NaN
         13   -1    0    0    0    0  0.00000000000E+00  0.00000000000E+00  0.74505805969E-08  0.10566000000E+00  0.10566000000E+00 0.  1.
     999900   -1    0    0    0    0 -0.00000000000E+00 -0.00000000000E+00 -0.74505805969E-08  0.93827000000E+00  0.93827000000E+00 0.  1.
     999902    2    1    2    0    0  0.12808111020E-01  0.12345054584E-01 -0.16003513315E-01  0.10200017631E+01  0.10197210581E+01 0.  0.
     999903    2    3    3    0    0  0.80938670114E-01 -0.42685200490E-01  0.89530654743E-01  0.12937975427E+00  0.18715982919E-01 0.  0.
         14    1    1    2    0    0 -0.12808111020E-01 -0.12345054584E-01  0.16003513315E-01  0.23928236855E-01  0.00000000000E+00 0. -1.
     999901    1    3    3    0    0 -0.68130559094E-01  0.55030255074E-01 -0.10553416806E+00  0.89062200887E+00  0.88000000000E+00 0.  1.
        -11    1    4    4    0    0  0.62229032312E-01 -0.24714075290E-01  0.58356686891E-01  0.88820054074E-01  0.51100000000E-03 0.  1.
         11    1    4    4    0    0  0.18709637802E-01 -0.17971125200E-01  0.31173967853E-01  0.40559700201E-01  0.51100000000E-03 0. -1.
</event>
<event>
 8    1  0.1128298E+005  0.1043930E+01  0.7957747E-01            NaN
         13   -1    0    0    0    0  0.00000000000E+00  0.00000000000E+00  0.74505805969E-08  0.10566000000E+00  0.10566000000E+00 0. -1.
     999900   -1    0    0    0    0 -0.00000000000E+00 -0.00000000000E+00 -0.74505805969E-08  0.93827000000E+00  0.93827000000E+00 0.  1.
     999902    2    1    2    0    0  0.20317389330E-01 -0.54774316284E-02  0.11770252958E-01  0.10198190601E+01  0.10195340004E+01 0.  0.
     999903    2    3    3    0    0 -0.92360376933E-01 -0.11785693701E-01 -0.84729389494E-01  0.12737956405E+00  0.19420146505E-01 0.  0.
         14    1    1    2    0    0 -0.20317389330E-01  0.54774316284E-02 -0.11770252958E-01  0.24110939864E-01  0.00000000000E+00 0.  1.
     999901    1    3    3    0    0  0.11267776626E+00  0.63082620726E-02  0.96499642452E-01  0.89243949609E+00  0.88000000000E+00 0. -1.
        -11    1    4    4    0    0 -0.44480853288E-01 -0.12903746931E-01 -0.50409098447E-01  0.68457222564E-01  0.51100000000E-03 0.  1.
         11    1    4    4    0    0 -0.47879523646E-01  0.11180532300E-02 -0.34320291048E-01  0.58922341486E-01  0.51100000000E-03 0. -1.
</event>
<event>
 8    1  0.1128298E+005  0.1043930E+01  0.7957747E-01            NaN
         13   -1    0    0    0    0  0.00000000000E+00  0.00000000000E+00  0.74505805969E-08  0.10566000000E+00  0.10566000000E+00 0. -1.
     999900   -1    0    0    0    0 -0.00000000000E+00 -0.00000000000E+00 -0.74505805969E-08  0.93827000000E+00  0.93827000000E+00 0. -1.
     999902    2    1    2    0    0  0.12496915250E-01  0.12187934694E-01 -0.14890556602E-01  0.10209855602E+01  0.10207277143E+01 0.  0.
     999903    2    3    3    0    0  0.83569895242E-01  0.90213794917E-01  0.45728673295E-01  0.13260833491E+00  0.19271812077E-01 0.  0.
         14    1    1    2    0    0 -0.12496915250E-01 -0.12187934694E-01  0.14890556602E-01  0.22944439823E-01  0.00000000000E+00 0. -1.
     999901    1    3    3    0    0 -0.71072979993E-01 -0.78025860224E-01 -0.60619229898E-01  0.88837722527E+00  0.88000000000E+00 0. -1.
        -11    1    4    4    0    0  0.50608452319E-01  0.43308946965E-01  0.30668427745E-01  0.73332761537E-01  0.51100000000E-03 0.  1.
         11    1    4    4    0    0  0.32961442923E-01  0.46904847953E-01  0.15060245550E-01  0.59275573368E-01  0.51100000000E-03 0. -1.
</event>
<event>
 8    1  0.1128298E+005  0.1043930E+01  0.7957747E-01            NaN
         13   -1    0    0    0    0  0.00000000000E+00  0.00000000000E+00  0.74505805969E-08  0.10566000000E+00  0.10566000000E+00 0.  1.
     999900   -1    0    0    0    0 -0.00000000000E+00 -0.00000000000E+00 -0.74505805969E-08  0.93827000000E+00  0.93827000000E+00 0.  1.
     999902    2    1    2    0    0  0.88176834314E-02 -0.21666729333E-01  0.14021597576E-02  0.10204957355E+01  0.10202266324E+01 0.  0.
     999903    2    3    3    0    0  0.89465475389E-01 -0.81269959450E-01 -0.52195327856E-01  0.13317995063E+00  0.20091525673E-01 0.  0.
         14    1    1    2    0    0 -0.88176834314E-02  0.21666729333E-01 -0.14021597576E-02  0.23434264509E-01  0.00000000000E+00 0.  1.
     999901    1    3    3    0    0 -0.80647791958E-01  0.59603230117E-01  0.53597487614E-01  0.88731578486E+00  0.88000000000E+00 0. -1.
        -11    1    4    4    0    0  0.66386708483E-01 -0.53199133590E-01 -0.28185571265E-01  0.89621595759E-01  0.51100000000E-03 0. -1.
         11    1    4    4    0    0  0.23078766907E-01 -0.28070825859E-01 -0.24009756591E-01  0.43558354870E-01  0.51100000000E-03 0.  1.
</event>
<event>
 8    1  0.1128298E+005  0.1043930E+01  0.7957747E-01            NaN
         13   -1    0    0    0    0  0.00000000000E+00  0.00000000000E+00  0.74505805969E-08  0.10566000000E+00  0.10566000000E+00 0.  1.
     999900   -1    0    0    0    0 -0.00000000000E+00 -0.00000000000E+00 -0.74505805969E-08  0.93827000000E+00  0.93827000000E+00 0. -1.
     999902    2    1    2    0    0 -0.91861098485E-02  0.16792222456E-01  0.16709344217E-01  0.10185220183E+01  0.10182050561E+01 0.  0.
     999903    2    3    3    0    0  0.12179101276E+00  0.18646885708E-01  0.31350544691E-01  0.12870585125E+00  0.20039519896E-01 0.  0.
         14    1    1    2    0    0  0.91861098485E-02 -0.16792222456E-01 -0.16709344217E-01  0.25407981685E-01  0.00000000000E+00 0. -1.
     999901    1    3    3    0    0 -0.13097712261E+00 -0.18546632518E-02 -0.14641200474E-01  0.88981616707E+00  0.88000000000E+00 0. -1.
        -11    1    4    4    0    0  0.63908001007E-01  0.15887476090E-01  0.84540964162E-02  0.66395612479E-01  0.51100000000E-03 0.  1.
         11    1    4    4    0    0  0.57883011751E-01  0.27594096180E-02  0.22896448274E-01  0.62310238768E-01  0.51100000000E-03 0. -1.
</event>
<event>
 8    1  0.1128298E+005  0.1043930E+01  0.7957747E-01            NaN
         13   -1    0    0    0    0  0.00000000000E+00  0.00000000000E+00  0.74505805969E-08  0.10566000000E+00  0.10566000000E+00 0. -1.
     999900   -1    0    0    0    0 -0.00000000000E+00 -0.00000000000E+00 -0.74505805969E-08  0.93827000000E+00  0.93827000000E+00 0. -1.
     999902    2    1    2    0    0 -0.10610605175E-01  0.19655555478E-01 -0.66432248358E-02  0.10206263900E+01  0.10203603137E+01 0.  0.
     999903    2    3    3    0    0 -0.66833935357E-01 -0.40884427642E-01 -0.10362922241E+00  0.13145124631E+00  0.20052508053E-01 0.  0.
         14    1    1    2    0    0  0.10610605175E-01 -0.19655555478E-01  0.66432248358E-02  0.23303610011E-01  0.00000000000E+00 0.  1.
     999901    1    3    3    0    0  0.56223330182E-01  0.60539983120E-01  0.96985997578E-01  0.88917514368E+00  0.88000000000E+00 0.  1.
        -11    1    4    4    0    0 -0.37179334378E-01 -0.14622727017E-01 -0.63780399960E-01  0.75261727260E-01  0.51100000000E-03 0. -1.
         11    1    4    4    0    0 -0.29654600979E-01 -0.26261700625E-01 -0.39848822454E-01  0.56189519049E-01  0.51100000000E-03 0.  1.
</event>
<event>
 8    1  0.1128298E+005  0.1043930E+01  0.7957747E-01            NaN
         13   -1    0    0    0    0  0.00000000000E+00  0.00000000000E+00  0.74505805969E-08  0.10566000000E+00  0.10566000000E+00 0.  1.
     999900   -1    0    0    0    0 -0.00000000000E+00 -0.00000000000E+00 -0.74505805969E-08  0.93827000000E+00  0.93827000000E+00 0.  1.
     999902    2    1    2    0    0  0.13193469500E-01 -0.12283849275E-01  0.14915373978E-01  0.10205327999E+01  0.10202645572E+01 0.  0.
     999903    2    3    3    0    0 -0.43174550791E-01 -0.71342061703E-01  0.10108669898E+00  0.13256279851E+00  0.20016074350E-01 0.  0.
         14    1    1    2    0    0 -0.13193469500E-01  0.12283849275E-01 -0.14915373978E-01  0.23397200075E-01  0.00000000000E+00 0. -1.
     999901    1    3    3    0    0  0.56368020292E-01  0.59058212428E-01 -0.86171325005E-01  0.88797000142E+00  0.88000000000E+00 0.  1.
        -11    1    4    4    0    0 -0.20253293426E-01 -0.16135634278E-01  0.33219151779E-01  0.42122770019E-01  0.51100000000E-03 0. -1.
         11    1    4    4    0    0 -0.22921257365E-01 -0.55206427425E-01  0.67867547204E-01  0.90440028487E-01  0.51100000000E-03 0.  1.
</event>
<event>
 8    1  0.1128298E+005  0.1043930E+01  0.7957747E-01            NaN
         13   -1    0    0    0    0  0.00000000000E+00  0.00000000000E+00  0.74505805969E-08  0.10566000000E+00  0.10566000000E+00 0.  1.
     999900   -1    0    0    0    0 -0.00000000000E+00 -0.00000000000E+00 -0.74505805969E-08  0.93827000000E+00  0.93827000000E+00 0. -1.
     999902    2    1    2    0    0  0.21351703043E-01 -0.12532115595E-02 -0.11650475176E-01  0.10195743162E+01  0.10192833693E+01 0.  0.
     999903    2    3    3    0    0 -0.16763053379E-01  0.11109091356E-01 -0.12783800601E+00  0.13103331910E+00  0.20561202892E-01 0.  0.
         14    1    1    2    0    0 -0.21351703043E-01  0.12532115595E-02  0.11650475176E-01  0.24355683810E-01  0.00000000000E+00 0.  1.
     999901    1    3    3    0    0  0.38114756422E-01 -0.12362302915E-01  0.11618753083E+00  0.88854099709E+00  0.88000000000E+00 0.  1.
        -11    1    4    4    0    0 -0.14209172659E-01  0.13139827360E-01 -0.58573603881E-01  0.61690224860E-01  0.51100000000E-03 0.  1.
         11    1    4    4    0    0 -0.25538807203E-02 -0.20307360039E-02 -0.69264402128E-01  0.69343094238E-01  0.51100000000E-03 0. -1.
</event>
<event>
 8    1  0.1128298E+005  0.1043930E+01  0.7957747E-01            NaN
         13   -1    0    0    0    0  0.00000000000E+00  0.00000000000E+00  0.74505805969E-08  0.10566000000E+00  0.10566000000E+00 0.  1.
     999900   -1    0    0    0    0 -0.00000000000E+00 -0.00000000000E+00 -0.74505805969E-08  0.93827000000E+00  0.93827000000E+00 0.  1.
     999902    2    1    2    0    0  0.11243339159E-01 -0.29440773612E-02 -0.21119536750E-01  0.10198236710E+01  0.10195387216E+01 0.  0.
     999903    2    3    3    0    0 -0.43064296970E-01 -0.63509869456E-01  0.10028096318E+00  0.12777231824E+00  0.19530912450E-01 0.  0.
         14    1    1    2    0    0 -0.11243339159E-01  0.29440773612E-02  0.21119536750E-01  0.24106329034E-01  0.00000000000E+00 0.  1.
     999901    1    3    3    0    0  0.54307636128E-01  0.60565792095E-01 -0.12140049993E+00  0.89205135272E+00  0.88000000000E+00 0.  1.
        -11    1    4    4    0    0 -0.46454454285E-02 -0.22339034910E-01  0.27033359661E-01  0.35379037572E-01  0.51100000000E-03 0.  1.
         11    1    4    4    0    0 -0.38418851541E-01 -0.41170834546E-01  0.73247603518E-01  0.92393280670E-01  0.51100000000E-03 0. -1.
</event>
<event>
 8    1  0.1128298E+005  0.1043930E+01  0.7957747E-01            NaN
         13   -1    0    0    0    0  0.00000000000E+00  0.00000000000E+00  0.74505805969E-08  0.10566000000E+00  0.10566000000E+00 0. -1.
     999900   -1    0    0    0    0 -0.00000000000E+00 -0.00000000000E+00 -0.74505805969E-08  0.93827000000E+00  0.93827000000E+00 0. -1.
     999902    2    1    2    0    0  0.13596360416E-01  0.13261437471E-01 -0.87561967169E-02  0.10230159444E+01  0.10228021435E+01 0.  0.
     999903    2    3    3    0    0  0.80310827557E-01 -0.53454924014E-01 -0.91651180846E-01  0.13409892274E+00  0.16592896237E-01 0.  0.
         14    1    1    2    0    0 -0.13596360416E-01 -0.13261437471E-01  0.87561967169E-02  0.20914055592E-01  0.00000000000E+00 0. -1.
     999901    1    3    3    0    0 -0.66714467141E-01  0.66716361485E-01  0.82894984129E-01  0.88891702167E+00  0.88000000000E+00 0.  1.
        -11    1    4    4    0    0  0.51491039783E-01 -0.24635767293E-01 -0.55516457991E-01  0.79627799398E-01  0.51100000000E-03 0.  1.
         11    1    4    4    0    0  0.28819787774E-01 -0.28819156721E-01 -0.36134722855E-01  0.54471123343E-01  0.51100000000E-03 0. -1.
</event>
<event>
 8    1  0.1128298E+005  0.1043930E+01  0.7957747E-01            NaN
         13   -1    0    0    0    0  0.00000000000E+00  0.00000000000E+00  0.74505805969E-08  0.10566000000E+00  0.10566000000E+00 0.  1.
     999900   -1    0    0    0    0 -0.00000000000E+00 -0.00000000000E+00 -0.74505805969E-08  0.93827000000E+00  0.93827000000E+00 0.  1.
     999902    2    1    2    0    0 -0.41233234924E-02 -0.16921628552E-01 -0.17679975026E-01  0.10191121672E+01  0.10188099354E+01 0.  0.
     999903    2    3    3    0    0  0.74895784181E-01 -0.12957430351E-01  0.10070345204E+00  0.12766706508E+00  0.19504378061E-01 0.  0.
         14    1    1    2    0    0  0.41233234924E-02  0.16921628552E-01  0.17679975026E-01  0.24817832830E-01  0.00000000000E+00 0.  1.
     999901    1    3    3    0    0 -0.79019107674E-01 -0.39641982015E-02 -0.11838342706E+00  0.89144510209E+00  0.88000000000E+00 0.  1.
        -11    1    4    4    0    0  0.26311907142E-01 -0.13234308753E-01  0.31697907194E-01  0.43272183063E-01  0.51100000000E-03 0.  1.
         11    1    4    4    0    0  0.48583877040E-01  0.27687840215E-03  0.69005544843E-01  0.84394882012E-01  0.51100000000E-03 0. -1.
</event>
<event>
 8    1  0.1128298E+005  0.1043930E+01  0.7957747E-01            NaN
         13   -1    0    0    0    0  0.00000000000E+00  0.00000000000E+00  0.74505805969E-08  0.10566000000E+00  0.10566000000E+00 0.  1.
     999900   -1    0    0    0    0 -0.00000000000E+00 -0.00000000000E+00 -0.74505805969E-08  0.93827000000E+00  0.93827000000E+00 0.  1.
     999902    2    1    2    0    0 -0.23330052998E-01  0.31044531183E-02 -0.17358433726E-02  0.10203303781E+01  0.10200574191E+01 0.  0.
     999903    2    3    3    0    0 -0.79258897185E-01  0.78518208702E-01 -0.69074042193E-01  0.13277772998E+00  0.20288430046E-01 0.  0.
         14    1    1    2    0    0  0.23330052998E-01 -0.31044531183E-02  0.17358433726E-02  0.23599621909E-01  0.00000000000E+00 0.  1.
     999901    1    3    3    0    0  0.55928844187E-01 -0.75413755583E-01  0.67338198820E-01  0.88755264811E+00  0.88000000000E+00 0. -1.
        -11    1    4    4    0    0 -0.10076487754E-01  0.42704691597E-02 -0.12375466526E-01  0.16528333401E-01  0.51100000000E-03 0.  1.
         11    1    4    4    0    0 -0.69182409432E-01  0.74247739542E-01 -0.56698575667E-01  0.11624939658E+00  0.51100000000E-03 0. -1.
</event>
<event>
 8    1  0.1128298E+005  0.1043930E+01  0.7957747E-01            NaN
         13   -1    0    0    0    0  0.00000000000E+00  0.00000000000E+00  0.74505805969E-08  0.10566000000E+00  0.10566000000E+00 0.  1.
     999900   -1    0    0    0    0 -0.00000000000E+00 -0.00000000000E+00 -0.74505805969E-08  0.93827000000E+00  0.93827000000E+00 0. -1.
     999902    2    1    2    0    0  0.14987659087E-01 -0.14747874639E-01 -0.10899962836E-01  0.10202458508E+01  0.10199709100E+01 0.  0.
     999903    2    3    3    0    0  0.12571364792E+00  0.21412657342E-01  0.27034656802E-01  0.13176013681E+00  0.19168667595E-01 0.  0.
         14    1    1    2    0    0 -0.14987659087E-01  0.14747874639E-01  0.10899962836E-01  0.23684149153E-01  0.00000000000E+00 0.  1.
     999901    1    3    3    0    0 -0.11072598883E+00 -0.36160531981E-01 -0.37934619638E-01  0.88848571403E+00  0.88000000000E+00 0. -1.
        -11    1    4    4    0    0  0.94673849200E-01  0.95062801949E-02  0.25341734338E-01  0.98468125329E-01  0.51100000000E-03 0.  1.
         11    1    4    4    0    0  0.31039798717E-01  0.11906377147E-01  0.16929224644E-02  0.33292011484E-01  0.51100000000E-03 0. -1.
</event>
<event>
 8    1  0.1128298E+005  0.1043930E+01  0.7957747E-01            NaN
         13   -1    0    0    0    0  0.00000000000E+00  0.00000000000E+00  0.74505805969E-08  0.10566000000E+00  0.10566000000E+00 0. -1.
     999900   -1    0    0    0    0 -0.00000000000E+00 -0.00000000000E+00 -0.74505805969E-08  0.93827000000E+00  0.93827000000E+00 0. -1.
     999902    2    1    2    0    0  0.10554832473E-01 -0.33344298013E-02  0.20392806859E-01  0.10207267786E+01  0.10204630160E+01 0.  0.
     999903    2    3    3    0    0  0.35800501641E-02 -0.12578843898E+00 -0.29634985842E-01  0.13081306820E+00  0.19956910744E-01 0.  0.
         14    1    1    2    0    0 -0.10554832473E-01  0.33344298013E-02 -0.20392806859E-01  0.23203221376E-01  0.00000000000E+00 0.  1.
     999901    1    3    3    0    0  0.69747823094E-02  0.12245400918E+00  0.50027792701E-01  0.88991371042E+00  0.88000000000E+00 0.  1.
        -11    1    4    4    0    0 -0.16803560505E-02 -0.83341596368E-01 -0.10733066117E-01  0.84048230861E-01  0.51100000000E-03 0. -1.
         11    1    4    4    0    0  0.52604062146E-02 -0.42446842613E-01 -0.18901919725E-01  0.46764837342E-01  0.51100000000E-03 0.  1.
</event>
<event>
 8    1  0.1128298E+005  0.1043930E+01  0.7957747E-01            NaN
         13   -1    0    0    0    0  0.00000000000E+00  0.00000000000E+00  0.74505805969E-08  0.10566000000E+00  0.10566000000E+00 0.  1.
     999900   -1    0    0    0    0 -0.00000000000E+00 -0.00000000000E+00 -0.74505805969E-08  0.93827000000E+00  0.93827000000E+00 0. -1.
     999902    2    1    2    0    0  0.19289846449E-01 -0.11565242005E-01  0.63410649001E-02  0.10205620283E+01  0.10202944631E+01 0.  0.
     999903    2    3    3    0    0 -0.88659468531E-01  0.78594051764E-01  0.45523058629E-01  0.12853233062E+00  0.20265359976E-01 0.  0.
         14    1    1    2    0    0 -0.19289846449E-01  0.11565242005E-01 -0.63410649001E-02  0.23367971729E-01  0.00000000000E+00 0.  1.
     999901    1    3    3    0    0  0.10794931498E+00 -0.90159293769E-01 -0.39181993729E-01  0.89202969765E+00  0.88000000000E+00 0.  1.
        -11    1    4    4    0    0 -0.47238976025E-01  0.50498747772E-01  0.34502428267E-01  0.77280806542E-01  0.51100000000E-03 0. -1.
         11    1    4    4    0    0 -0.41420492506E-01  0.28095303992E-01  0.11020630362E-01  0.51251524079E-01  0.51100000000E-03 0.  1.
</event>
<event>
 8    1  0.1128298E+005  0.1043930E+01  0.7957747E-01            NaN
         13   -1    0    0    0    0  0.00000000000E+00  0.00000000000E+00  0.74505805969E-08  0.10566000000E+00  0.10566000000E+00 0. -1.
     999900   -1    0    0    0    0 -0.00000000000E+00 -0.00000000000E+00 -0.74505805969E-08  0.93827000000E+00  0.93827000000E+00 0. -1.
     999902    2    1    2    0    0  0.64294436301E-02  0.31081148495E-02 -0.22174286831E-01  0.10206341394E+01  0.10203682421E+01 0.  0.
     999903    2    3    3    0    0  0.47633393193E-01  0.44868985406E-01  0.10930554113E+00  0.12893425666E+00  0.19853846496E-01 0.  0.
         14    1    1    2    0    0 -0.64294436301E-02 -0.31081148495E-02  0.22174286831E-01  0.23295860572E-01  0.00000000000E+00 0. -1.
     999901    1    3    3    0    0 -0.41203949563E-01 -0.41760870556E-01 -0.13147982796E+00  0.89169988277E+00  0.88000000000E+00 0. -1.
        -11    1    4    4    0    0  0.26054847742E-01  0.36821389285E-01  0.67152003464E-01  0.80896986903E-01  0.51100000000E-03 0.  1.
         11    1    4    4    0    0  0.21578545451E-01  0.80475961207E-02  0.42153537664E-01  0.48037269757E-01  0.51100000000E-03 0. -1.
</event>
<event>
 8    1  0.1128298E+005  0.1043930E+01  0.7957747E-01            NaN
         13   -1    0    0    0    0  0.00000000000E+00  0.00000000000E+00  0.74505805969E-08  0.10566000000E+00  0.10566000000E+00 0. -1.
     999900   -1    0    0    0    0 -0.00000000000E+00 -0.00000000000E+00 -0.74505805969E-08  0.93827000000E+00  0.93827000000E+00 0.  1.
     999902    2    1    2    0    0 -0.15403823435E-01  0.80906238083E-02  0.13249350988E-01  0.10220603573E+01  0.10218263515E+01 0.  0.
     999903    2    3    3    0    0  0.34147593971E-01  0.59500941570E-01  0.11287671557E+00  0.13356501375E+00  0.19799993904E-01 0.  0.
         14    1    1    2    0    0  0.15403823435E-01 -0.80906238083E-02 -0.13249350988E-01  0.21869642696E-01  0.00000000000E+00 0.  1.
     999901    1    3    3    0    0 -0.49551417406E-01 -0.51410317762E-01 -0.99627364584E-01  0.88849534355E+00  0.88000000000E+00 0.  1.
        -11    1    4    4    0    0  0.20490918937E-03  0.66672972010E-02  0.22776953721E-01  0.23739115012E-01  0.51100000000E-03 0.  1.
         11    1    4    4    0    0  0.33942684781E-01  0.52833644369E-01  0.90099761851E-01  0.10982589874E+00  0.51100000000E-03 0. -1.
</event>
<event>
 8    1  0.1128298E+005  0.1043930E+01  0.7957747E-01            NaN
         13   -1    0    0    0    0  0.00000000000E+00  0.00000000000E+00  0.74505805969E-08  0.10566000000E+00  0.10566000000E+00 0. -1.
     999900   -1    0    0    0    0 -0.00000000000E+00 -0.00000000000E+00 -0.74505805969E-08  0.93827000000E+00  0.93827000000E+00 0. -1.
     999902    2    1    2    0    0 -0.16329575130E-01 -0.34050325025E-02 -0.16119758626E-01  0.10207331061E+01  0.10204694890E+01 0.  0.
     999903    2    3    3    0    0  0.47205377115E-01 -0.82359280248E-01 -0.89352603545E-01  0.13189481201E+00  0.20023860859E-01 0.  0.
         14    1    1    2    0    0  0.16329575130E-01  0.34050325025E-02  0.16119758626E-01  0.23196893939E-01  0.00000000000E+00 0. -1.
     999901    1    3    3    0    0 -0.63534952245E-01  0.78954247745E-01  0.73232844919E-01  0.88883829405E+00  0.88000000000E+00 0.  1.
        -11    1    4    4    0    0  0.16272777121E-01 -0.25322182565E-01 -0.41508781491E-01  0.51276273919E-01  0.51100000000E-03 0. -1.
         11    1    4    4    0    0  0.30932599994E-01 -0.57037097683E-01 -0.47843822054E-01  0.80618538093E-01  0.51100000000E-03 0.  1.
</event>
<event>
 8    1  0.1128298E+005  0.1043930E+01  0.7957747E-01            NaN
         13   -1    0    0    0    0  0.00000000000E+00  0.00000000000E+00  0.74505805969E-08  0.10566000000E+00  0.10566000000E+00 0.  1.
     999900   -1    0    0    0    0 -0.00000000000E+00 -0.00000000000E+00 -0.74505805969E-08  0.93827000000E+00  0.93827000000E+00 0. -1.
     999902    2    1    2    0    0 -0.82789145705E-02  0.19122489137E-01 -0.11069473684E-01  0.10203345923E+01  0.10200617319E+01 0.  0.
     999903    2    3    3    0    0 -0.48738328148E-01  0.10042246878E+00  0.67905350528E-01  0.13214335517E+00  0.19764433208E-01 0.  0.
         14    1    1    2    0    0  0.82789145705E-02 -0.19122489137E-01  0.11069473684E-01  0.23595407708E-01  0.00000000000E+00 0.  1.
     999901    1    3    3    0    0  0.40459413577E-01 -0.81299979640E-01 -0.78974824212E-01  0.88819123712E+00  0.88000000000E+00 0.  1.
        -11    1    4    4    0    0 -0.33023945025E-01  0.45472053329E-01  0.34260925207E-01  0.65820670735E-01  0.51100000000E-03 0. -1.
         11    1    4    4    0    0 -0.15714383123E-01  0.54950415448E-01  0.33644425321E-01  0.66322684437E-01  0.51100000000E-03 0.  1.
</event>
<event>
 8    1  0.1128298E+005  0.1043930E+01  0.7957747E-01            NaN
         13   -1    0    0    0    0  0.00000000000E+00  0.00000000000E+00  0.74505805969E-08  0.10566000000E+00  0.10566000000E+00 0. -1.
     999900   -1    0    0    0    0 -0.00000000000E+00 -0.00000000000E+00 -0.74505805969E-08  0.93827000000E+00  0.93827000000E+00 0.  1.
     999902    2    1    2    0    0  0.27969147585E-01 -0.13830849941E-01 -0.13190949818E-02  0.10127001163E+01  0.10122184645E+01 0.  0.
     999903    2    3    3    0    0  0.18114158442E-01 -0.54961924992E-01  0.10883091361E+00  0.12482517544E+00  0.19703317779E-01 0.  0.
         14    1    1    2    0    0 -0.27969147585E-01  0.13830849941E-01  0.13190949818E-02  0.31229883738E-01  0.00000000000E+00 0.  1.
     999901    1    3    3    0    0  0.98549891434E-02  0.41131075051E-01 -0.11015000859E+00  0.88787494082E+00  0.88000000000E+00 0.  1.
        -11    1    4    4    0    0  0.90682932326E-02 -0.49083015285E-01  0.83414169713E-01  0.97208853308E-01  0.51100000000E-03 0. -1.
         11    1    4    4    0    0  0.90458652094E-02 -0.58789097064E-02  0.25416743898E-01  0.27616322132E-01  0.51100000000E-03 0.  1.
</event>
<event>
 8    1  0.1128298E+005  0.1043930E+01  0.7957747E-01            NaN
         13   -1    0    0    0    0  0.00000000000E+00  0.00000000000E+00  0.74505805969E-08  0.10566000000E+00  0.10566000000E+00 0. -1.
     999900   -1    0    0    0    0 -0.00000000000E+00 -0.00000000000E+00 -0.74505805969E-08  0.93827000000E+00  0.93827000000E+00 0. -1.
     999902    2    1    2    0    0 -0.49322179016E-02  0.19797757952E-01  0.15762897140E-01  0.10181473136E+01  0.10178208119E+01 0.  0.
     999903    2    3    3    0    0 -0.95556970107E-01  0.16159186921E-02  0.86522345094E-01  0.13048165327E+00  0.20139511201E-01 0.  0.
         14    1    1    2    0    0  0.49322179016E-02 -0.19797757952E-01 -0.15762897140E-01  0.25782686431E-01  0.00000000000E+00 0.  1.
     999901    1    3    3    0    0  0.90624752206E-01  0.18181839260E-01 -0.70759447953E-01  0.88766566029E+00  0.88000000000E+00 0. -1.
        -11    1    4    4    0    0 -0.28502068642E-01  0.33478254881E-02  0.14852978153E-01  0.32317919695E-01  0.51100000000E-03 0.  1.
         11    1    4    4    0    0 -0.67054901465E-01 -0.17319067959E-02  0.71669366941E-01  0.98163733580E-01  0.51100000000E-03 0. -1.
</event>
<event>
 8    1  0.1128298E+005  0.1043930E+01  0.7957747E-01            NaN
         13   -1    0    0    0    0  0.00000000000E+00  0.00000000000E+00  0.74505805969E-08  0.10566000000E+00  0.10566000000E+00 0. -1.
     999900   -1    0    0    0    0 -0.00000000000E+00 -0.00000000000E+00 -0.74505805969E-08  0.93827000000E+00  0.93827000000E+00 0. -1.
     999902    2    1    2    0    0 -0.17823623750E-01  0.10021371075E-01 -0.10620394789E-01  0.10208886843E+01  0.10206286316E+01 0.  0.
     999903    2    3    3    0    0  0.11917623562E+00 -0.31110427748E-01  0.30520998349E-01  0.12839028066E+00  0.19537117918E-01 0.  0.
         14    1    1    2    0    0  0.17823623750E-01 -0.10021371075E-01  0.10620394789E-01  0.23041315658E-01  0.00000000000E+00 0. -1.
     999901    1    3    3    0    0 -0.13699985937E+00  0.41131798823E-01 -0.41141393138E-01  0.89249840368E+00  0.88000000000E+00 0.  1.
        -11    1    4    4    0    0  0.46818272849E-01 -0.20724824100E-01  0.74961576480E-02  0.51748647393E-01  0.51100000000E-03 0. -1.
         11    1    4    4    0    0  0.72357962773E-01 -0.10385603648E-01  0.23024840701E-01  0.76641633269E-01  0.51100000000E-03 0.  1.
</event>
<event>
 8    1  0.1128298E+005  0.1043930E+01  0.7957747E-01            NaN
         13   -1    0    0    0    0  0.00000000000E+00  0.00000000000E+00  0.74505805969E-08  0.10566000000E+00  0.10566000000E+00 0. -1.
     999900   -1    0    0    0    0 -0.00000000000E+00 -0.00000000000E+00 -0.74505805969E-08  0.93827000000E+00  0.93827000000E+00 0. -1.
     999902    2    1    2    0    0  0.12595982506E-01  0.31813420315E-02  0.20559587811E-01  0.10196097129E+01  0.10193196213E+01 0.  0.
     999903    2    3    3    0    0 -0.55964838490E-02 -0.12371231653E+00  0.35032338291E-01  0.13020405356E+00  0.19742668123E-01 0.  0.
         14    1    1    2    0    0 -0.12595982506E-01 -0.31813420315E-02 -0.20559587811E-01  0.24320287074E-01  0.00000000000E+00 0.  1.
     999901    1    3    3    0    0  0.18192466355E-01  0.12689365856E+00 -0.14472750480E-01  0.88940565937E+00  0.88000000000E+00 0.  1.
        -11    1    4    4    0    0 -0.44924419133E-02 -0.96925861401E-01  0.18727877895E-01  0.98822058136E-01  0.51100000000E-03 0.  1.
         11    1    4    4    0    0 -0.11040419356E-02 -0.26786455124E-01  0.16304460397E-01  0.31381995420E-01  0.51100000000E-03 0. -1.
</event>
<event>
 8    1  0.1128298E+005  0.1043930E+01  0.7957747E-01            NaN
         13   -1    0    0    0    0  0.00000000000E+00  0.00000000000E+00  0.74505805969E-08  0.10566000000E+00  0.10566000000E+00 0.  1.
     999900   -1    0    0    0    0 -0.00000000000E+00 -0.00000000000E+00 -0.74505805969E-08  0.93827000000E+00  0.93827000000E+00 0.  1.
     999902    2    1    2    0    0  0.19652838999E-01 -0.96350355553E-02 -0.72654440705E-02  0.10208680255E+01  0.10206075009E+01 0.  0.
     999903    2    3    3    0    0  0.51700171575E-01  0.11291016589E+00  0.35136969579E-01  0.13078807256E+00  0.21196697613E-01 0.  0.
         14    1    1    2    0    0 -0.19652838999E-01  0.96350355553E-02  0.72654440705E-02  0.23061974513E-01  0.00000000000E+00 0.  1.
     999901    1    3    3    0    0 -0.32047332576E-01 -0.12254520145E+00 -0.42402413649E-01  0.89007995293E+00  0.88000000000E+00 0. -1.
        -11    1    4    4    0    0  0.13283094285E-01  0.54002708213E-01  0.17063950137E-01  0.58173641827E-01  0.51100000000E-03 0. -1.
         11    1    4    4    0    0  0.38417077290E-01  0.58907457679E-01  0.18073019442E-01  0.72614430732E-01  0.51100000000E-03 0.  1.
</event>
<event>
 8    1  0.1128298E+005  0.1043930E+01  0.7957747E-01            NaN
         13   -1    0    0    0    0  0.00000000000E+00  0.00000000000E+00  0.74505805969E-08  0.10566000000E+00  0.10566000000E+00 0.  1.
     999900   -1    0    0    0    0 -0.00000000000E+00 -0.00000000000E+00 -0.74505805969E-08  0.93827000000E+00  0.93827000000E+00 0.  1.
     999902    2    1    2    0    0 -0.33920645703E-02  0.15861120689E-01 -0.17420040252E-01  0.10201279191E+01  0.10198502009E+01 0.  0.
     999903    2    3    3    0    0  0.75035431604E-01  0.80626952040E-01 -0.71131139439E-01  0.13264250108E+00  0.20084140602E-01 0.  0.
         14    1    1    2    0    0  0.33920645703E-02 -0.15861120689E-01  0.17420040252E-01  0.23802080875E-01  0.00000000000E+00 0. -1.
     999901    1    3    3    0    0 -0.78427496174E-01 -0.64765831351E-01  0.53711099187E-01  0.88748541805E+00  0.88000000000E+00 0. -1.
        -11    1    4    4    0    0  0.66107208908E-01  0.71980061391E-01 -0.69870416176E-01  0.12013920461E+00  0.51100000000E-03 0. -1.
         11    1    4    4    0    0  0.89282226959E-02  0.86468906493E-02 -0.12607232630E-02  0.12503296468E-01  0.51100000000E-03 0.  1.
</event>
<event>
 8    1  0.1128298E+005  0.1043930E+01  0.7957747E-01            NaN
         13   -1    0    0    0    0  0.00000000000E+00  0.00000000000E+00  0.74505805969E-08  0.10566000000E+00  0.10566000000E+00 0. -1.
     999900   -1    0    0    0    0 -0.00000000000E+00 -0.00000000000E+00 -0.74505805969E-08  0.93827000000E+00  0.93827000000E+00 0. -1.
     999902    2    1    2    0    0  0.17920666196E-02 -0.19262066817E-01 -0.10455704621E-01  0.10219399914E+01  0.10217033745E+01 0.  0.
     999903    2    3    3    0    0  0.58436072021E-01  0.73192848444E-01 -0.90378786134E-01  0.13169050180E+00  0.20052324172E-01 0.  0.
         14    1    1    2    0    0 -0.17920666196E-02  0.19262066817E-01  0.10455704621E-01  0.21990008639E-01  0.00000000000E+00 0.  1.
     999901    1    3    3    0    0 -0.56644005402E-01 -0.92454915262E-01  0.79923081513E-01  0.89024948956E+00  0.88000000000E+00 0.  1.
        -11    1    4    4    0    0  0.17408846219E-01  0.35340060303E-01 -0.44481200991E-01  0.59420755225E-01  0.51100000000E-03 0. -1.
         11    1    4    4    0    0  0.41027225803E-01  0.37852788142E-01 -0.45897585142E-01  0.72269746575E-01  0.51100000000E-03 0.  1.
</event>
<event>
 8    1  0.1128298E+005  0.1043930E+01  0.7957747E-01            NaN
         13   -1    0    0    0    0  0.00000000000E+00  0.00000000000E+00  0.74505805969E-08  0.10566000000E+00  0.10566000000E+00 0.  1.
     999900   -1    0    0    0    0 -0.00000000000E+00 -0.00000000000E+00 -0.74505805969E-08  0.93827000000E+00  0.93827000000E+00 0.  1.
     999902    2    1    2    0    0 -0.36295685066E-02  0.22443418623E-01 -0.65848485002E-02  0.10202605886E+01  0.10199859938E+01 0.  0.
     999903    2    3    3    0    0 -0.12015487222E+00 -0.38791048328E-02  0.45795810024E-01  0.13064564096E+00  0.22776885489E-01 0.  0.
         14    1    1    2    0    0  0.36295685066E-02 -0.22443418623E-01  0.65848485002E-02  0.23669411416E-01  0.00000000000E+00 0.  1.
     999901    1    3    3    0    0  0.11652530372E+00  0.26322523455E-01 -0.52380658524E-01  0.88961494762E+00  0.88000000000E+00 0. -1.
        -11    1    4    4    0    0 -0.61391373553E-01  0.87218963900E-02  0.19125932952E-01  0.64892485355E-01  0.51100000000E-03 0.  1.
         11    1    4    4    0    0 -0.58763498672E-01 -0.12601001223E-01  0.26669877072E-01  0.65753155605E-01  0.51100000000E-03 0. -1.
</event>
<event>
 8    1  0.1128298E+005  0.1043930E+01  0.7957747E-01            NaN
         13   -1    0    0    0    0  0.00000000000E+00  0.00000000000E+00  0.74505805969E-08  0.10566000000E+00  0.10566000000E+00 0.  1.
     999900   -1    0    0    0    0 -0.00000000000E+00 -0.00000000000E+00 -0.74505805969E-08  0.93827000000E+00  0.93827000000E+00 0. -1.
     999902    2    1    2    0    0 -0.19551498199E-01 -0.94400813773E-02 -0.45279712162E-02  0.10217516605E+01  0.10215109285E+01 0.  0.
     999903    2    3    3    0    0 -0.44338049147E-01  0.63220615271E-02 -0.12458016245E+00  0.13311486922E+00  0.13911163387E-01 0.  0.
         14    1    1    2    0    0  0.19551498199E-01  0.94400813773E-02  0.45279712162E-02  0.22178339468E-01  0.00000000000E+00 0.  1.
     999901    1    3    3    0    0  0.24786550948E-01 -0.15762142904E-01  0.12005219123E+00  0.88863679131E+00  0.88000000000E+00 0.  1.
        -11    1    4    4    0    0 -0.12485700167E-01  0.12816383136E-02 -0.55099615456E-01  0.56513397083E-01  0.51100000000E-03 0.  1.
         11    1    4    4    0    0 -0.31852348980E-01  0.50404232135E-02 -0.69480546993E-01  0.76601472135E-01  0.51100000000E-03 0. -1.
</event>
<event>
 8    1  0.1128298E+005  0.1043930E+01  0.7957747E-01            NaN
         13   -1    0    0    0    0  0.00000000000E+00  0.00000000000E+00  0.74505805969E-08  0.10566000000E+00  0.10566000000E+00 0. -1.
     999900   -1    0    0    0    0 -0.00000000000E+00 -0.00000000000E+00 -0.74505805969E-08  0.93827000000E+00  0.93827000000E+00 0.  1.
     999902    2    1    2    0    0  0.11131180599E-01  0.79566936987E-02  0.19713116639E-01  0.10199337686E+01  0.10196514469E+01 0.  0.
     999903    2    3    3    0    0 -0.28276944047E-01 -0.10545590566E+00  0.68665517871E-01  0.13043292225E+00  0.19423188702E-01 0.  0.
         14    1    1    2    0    0 -0.11131180599E-01 -0.79566936987E-02 -0.19713116639E-01  0.23996231450E-01  0.00000000000E+00 0.  1.
     999901    1    3    3    0    0  0.39408124645E-01  0.11341259936E+00 -0.48952401231E-01  0.88950084630E+00  0.88000000000E+00 0. -1.
        -11    1    4    4    0    0 -0.43194536017E-02 -0.51509726688E-01  0.28426892679E-01  0.58993719761E-01  0.51100000000E-03 0.  1.
         11    1    4    4    0    0 -0.23957490445E-01 -0.53946178972E-01  0.40238625192E-01  0.71439202490E-01  0.51100000000E-03 0. -1.
</event>
<event>
 8    1  0.1128298E+005  0.1043930E+01  0.7957747E-01            NaN
         13   -1    0    0    0    0  0.00000000000E+00  0.00000000000E+00  0.74505805969E-08  0.10566000000E+00  0.10566000000E+00 0.  1.
     999900   -1    0    0    0    0 -0.00000000000E+00 -0.00000000000E+00 -0.74505805969E-08  0.93827000000E+00  0.93827000000E+00 0. -1.
     999902    2    1    2    0    0  0.11932767998E-01 -0.11436816427E-01  0.17124691873E-01  0.10201298573E+01  0.10198521848E+01 0.  0.
     999903    2    3    3    0    0  0.39321657613E-01 -0.11494583133E+00  0.49803553473E-01  0.13303788040E+00  0.21446369937E-01 0.  0.
         14    1    1    2    0    0 -0.11932767998E-01  0.11436816427E-01 -0.17124691873E-01  0.23800142727E-01  0.00000000000E+00 0. -1.
     999901    1    3    3    0    0 -0.27388889615E-01  0.10350901491E+00 -0.32678861600E-01  0.88709197688E+00  0.88000000000E+00 0. -1.
        -11    1    4    4    0    0  0.21224301201E-01 -0.31984856728E-01  0.13579277199E-01  0.40720509717E-01  0.51100000000E-03 0. -1.
         11    1    4    4    0    0  0.18097356413E-01 -0.82960974607E-01  0.36224276273E-01  0.92317370681E-01  0.51100000000E-03 0.  1.
</event>
<event>
 8    1  0.1128298E+005  0.1043930E+01  0.7957747E-01            NaN
         13   -1    0    0    0    0  0.00000000000E+00  0.00000000000E+00  0.74505805969E-08  0.10566000000E+00  0.10566000000E+00 0.  1.
     999900   -1    0    0    0    0 -0.00000000000E+00 -0.00000000000E+00 -0.74505805969E-08  0.93827000000E+00  0.93827000000E+00 0. -1.
     999902    2    1    2    0    0  0.12062022748E-01 -0.12220518157E-01  0.17985781891E-01  0.10190639226E+01  0.10187605001E+01 0.  0.
     999903    2    3    3    0    0 -0.10169807600E+00 -0.46570303378E-01  0.63564917056E-01  0.12990773529E+00  0.18006365224E-01 0.  0.
         14    1    1    2    0    0 -0.12062022748E-01  0.12220518157E-01 -0.17985781891E-01  0.24866077435E-01  0.00000000000E+00 0. -1.
     999901    1    3    3    0    0  0.11376009875E+00  0.34349785221E-01 -0.45579135165E-01  0.88915618728E+00  0.88000000000E+00 0. -1.
        -11    1    4    4    0    0 -0.37495685225E-01 -0.25229251025E-01  0.19904134330E-01  0.49384989645E-01  0.51100000000E-03 0.  1.
         11    1    4    4    0    0 -0.64202390774E-01 -0.21341052353E-01  0.43660782726E-01  0.80522745643E-01  0.51100000000E-03 0. -1.
</event>
<event>
 8    1  0.1128298E+005  0.1043930E+01  0.7957747E-01            NaN
         13   -1    0    0    0    0  0.00000000000E+00  0.00000000000E+00  0.74505805969E-08  0.10566000000E+00  0.10566000000E+00 0.  1.
     999900   -1    0    0    0    0 -0.00000000000E+00 -0.00000000000E+00 -0.74505805969E-08  0.93827000000E+00  0.93827000000E+00 0. -1.
     999902    2    1    2    0    0 -0.16954419079E-01 -0.95975611085E-02 -0.13896971867E-01  0.10199990298E+01  0.10197182599E+01 0.  0.
     999903    2    3    3    0    0 -0.97851165372E-01  0.20115863426E-01 -0.85378209919E-01  0.13290448102E+00  0.19866147600E-01 0.  0.
         14    1    1    2    0    0  0.16954419079E-01  0.95975611085E-02  0.13896971867E-01  0.23930970156E-01  0.00000000000E+00 0.  1.
     999901    1    3    3    0    0  0.80896746293E-01 -0.29713424535E-01  0.71481238052E-01  0.88709454882E+00  0.88000000000E+00 0.  1.
        -11    1    4    4    0    0 -0.44705588857E-01 -0.51966163656E-03 -0.34225640125E-01  0.56307328886E-01  0.51100000000E-03 0. -1.
         11    1    4    4    0    0 -0.53145576515E-01  0.20635525063E-01 -0.51152569794E-01  0.76597152135E-01  0.51100000000E-03 0.  1.
</event>
<event>
 8    1  0.1128298E+005  0.1043930E+01  0.7957747E-01            NaN
         13   -1    0    0    0    0  0.00000000000E+00  0.00000000000E+00  0.74505805969E-08  0.10566000000E+00  0.10566000000E+00 0. -1.
     999900   -1    0    0    0    0 -0.00000000000E+00 -0.00000000000E+00 -0.74505805969E-08  0.93827000000E+00  0.93827000000E+00 0.  1.
     999902    2    1    2    0    0 -0.87869555959E-03  0.13334916005E-01 -0.19759578318E-01  0.10200755869E+01  0.10197966316E+01 0.  0.
     999903    2    3    3    0    0  0.11513561455E+00 -0.99399277968E-02 -0.58964561634E-01  0.13129098460E+00  0.20136812183E-01 0.  0.
         14    1    1    2    0    0  0.87869555959E-03 -0.13334916005E-01  0.19759578318E-01  0.23854413136E-01  0.00000000000E+00 0. -1.
     999901    1    3    3    0    0 -0.11601431011E+00  0.23274843802E-01  0.39204983316E-01  0.88878460226E+00  0.88000000000E+00 0. -1.
        -11    1    4    4    0    0  0.56171500572E-01 -0.29062531070E-03 -0.38628997251E-01  0.68174646968E-01  0.51100000000E-03 0. -1.
         11    1    4    4    0    0  0.58964113983E-01 -0.96493024861E-02 -0.20335564383E-01  0.63116337632E-01  0.51100000000E-03 0.  1.
</event>
<event>
 8    1  0.1128298E+005  0.1043930E+01  0.7957747E-01            NaN
         13   -1    0    0    0    0  0.00000000000E+00  0.00000000000E+00  0.74505805969E-08  0.10566000000E+00  0.10566000000E+00 0.  1.
     999900   -1    0    0    0    0 -0.00000000000E+00 -0.00000000000E+00 -0.74505805969E-08  0.93827000000E+00  0.93827000000E+00 0. -1.
     999902    2    1    2    0    0  0.73446525354E-02 -0.11801870005E-01 -0.19414405369E-01  0.10200522448E+01  0.10197727369E+01 0.  0.
     999903    2    3    3    0    0  0.12313249559E+00  0.15458747381E-02 -0.43422047799E-01  0.13204247360E+00  0.19640249475E-01 0.  0.
         14    1    1    2    0    0 -0.73446525354E-02  0.11801870005E-01  0.19414405369E-01  0.23877755178E-01  0.00000000000E+00 0.  1.
     999901    1    3    3    0    0 -0.11578784306E+00 -0.13347744743E-01  0.24007642430E-01  0.88800977122E+00  0.88000000000E+00 0.  1.
        -11    1    4    4    0    0  0.62188531444E-01  0.23621533766E-02 -0.32179783994E-01  0.70062777783E-01  0.51100000000E-03 0.  1.
         11    1    4    4    0    0  0.60943964151E-01 -0.81627863852E-03 -0.11242263805E-01  0.61979695818E-01  0.51100000000E-03 0. -1.
</event>
<event>
 8    1  0.1128298E+005  0.1043930E+01  0.7957747E-01            NaN
         13   -1    0    0    0    0  0.00000000000E+00  0.00000000000E+00  0.74505805969E-08  0.10566000000E+00  0.10566000000E+00 0. -1.
     999900   -1    0    0    0    0 -0.00000000000E+00 -0.00000000000E+00 -0.74505805969E-08  0.93827000000E+00  0.93827000000E+00 0. -1.
     999902    2    1    2    0    0  0.56046422005E-02  0.60478185452E-02  0.22903394739E-01  0.10195875758E+01  0.10192969495E+01 0.  0.
     999903    2    3    3    0    0  0.88098816307E-01 -0.67548687083E-01 -0.61480331004E-01  0.12866538644E+00  0.21230261547E-01 0.  0.
         14    1    1    2    0    0 -0.56046422005E-02 -0.60478185452E-02 -0.22903394739E-01  0.24342424159E-01  0.00000000000E+00 0.  1.
     999901    1    3    3    0    0 -0.82494174106E-01  0.73596505628E-01  0.84383725744E-01  0.89092218940E+00  0.88000000000E+00 0. -1.
        -11    1    4    4    0    0  0.26022207309E-01 -0.20154057213E-01 -0.29728637944E-01  0.44355319076E-01  0.51100000000E-03 0.  1.
         11    1    4    4    0    0  0.62076608998E-01 -0.47394629870E-01 -0.31751693061E-01  0.84310067361E-01  0.51100000000E-03 0. -1.
</event>
<event>
 8    1  0.1128298E+005  0.1043930E+01  0.7957747E-01            NaN
         13   -1    0    0    0    0  0.00000000000E+00  0.00000000000E+00  0.74505805969E-08  0.10566000000E+00  0.10566000000E+00 0. -1.
     999900   -1    0    0    0    0 -0.00000000000E+00 -0.00000000000E+00 -0.74505805969E-08  0.93827000000E+00  0.93827000000E+00 0.  1.
     999902    2    1    2    0    0 -0.25660448119E-02  0.17771592727E-01  0.93997670108E-02  0.10236625455E+01  0.10234618885E+01 0.  0.
     999903    2    3    3    0    0 -0.71027490068E-01  0.81761394519E-01 -0.77009985896E-01  0.13447847586E+00  0.20593507780E-01 0.  0.
         14    1    1    2    0    0  0.25660448119E-02 -0.17771592727E-01 -0.93997670108E-02  0.20267454548E-01  0.00000000000E+00 0.  1.
     999901    1    3    3    0    0  0.68461445256E-01 -0.63989801792E-01  0.86409752907E-01  0.88918406959E+00  0.88000000000E+00 0. -1.
        -11    1    4    4    0    0 -0.34957160736E-01  0.27111125475E-01 -0.24714018620E-01  0.50676030317E-01  0.51100000000E-03 0.  1.
         11    1    4    4    0    0 -0.36070329332E-01  0.54650269043E-01 -0.52295967276E-01  0.83802445542E-01  0.51100000000E-03 0. -1.
</event>
<event>
 8    1  0.1128298E+005  0.1043930E+01  0.7957747E-01            NaN
         13   -1    0    0    0    0  0.00000000000E+00  0.00000000000E+00  0.74505805969E-08  0.10566000000E+00  0.10566000000E+00 0.  1.
     999900   -1    0    0    0    0 -0.00000000000E+00 -0.00000000000E+00 -0.74505805969E-08  0.93827000000E+00  0.93827000000E+00 0.  1.
     999902    2    1    2    0    0 -0.22259905278E-01  0.33174288577E-02 -0.46695342167E-02  0.10209449338E+01  0.10206861636E+01 0.  0.
     999903    2    3    3    0    0  0.23983419938E-01 -0.39121327728E-01  0.12045160082E+00  0.12988107999E+00  0.15963210276E-01 0.  0.
         14    1    1    2    0    0  0.22259905278E-01 -0.33174288577E-02  0.46695342167E-02  0.22985066174E-01  0.00000000000E+00 0.  1.
     999901    1    3    3    0    0 -0.46243325216E-01  0.42438756586E-01 -0.12512113504E+00  0.89106385384E+00  0.88000000000E+00 0.  1.
        -11    1    4    4    0    0  0.19471623134E-01 -0.17282364584E-01  0.58417717194E-01  0.63958697894E-01  0.51100000000E-03 0. -1.
         11    1    4    4    0    0  0.45117968040E-02 -0.21838963144E-01  0.62033883629E-01  0.65922382092E-01  0.51100000000E-03 0.  1.
</event>
<event>
 8    1  0.1128298E+005  0.1043930E+01  0.7957747E-01            NaN
         13   -1    0    0    0    0  0.00000000000E+00  0.00000000000E+00  0.74505805969E-08  0.10566000000E+00  0.10566000000E+00 0.  1.
     999900   -1    0    0    0    0 -0.00000000000E+00 -0.00000000000E+00 -0.74505805969E-08  0.93827000000E+00  0.93827000000E+00 0.  1.
     999902    2    1    2    0    0  0.17665301500E-02 -0.14554255520E-02  0.22474485449E-01  0.10213392632E+01  0.10210893933E+01 0.  0.
     999903    2    3    3    0    0 -0.11005058890E+00  0.65014750561E-01 -0.19160106253E-01  0.13080302496E+00  0.20106510338E-01 0.  0.
         14    1    1    2    0    0 -0.17665301500E-02  0.14554255520E-02 -0.22474485449E-01  0.22590736785E-01  0.00000000000E+00 0. -1.
     999901    1    3    3    0    0  0.11181711905E+00 -0.66470176113E-01  0.41634591701E-01  0.89053623826E+00  0.88000000000E+00 0.  1.
        -11    1    4    4    0    0 -0.63578155538E-01  0.32352230128E-01 -0.19654640087E-01  0.73996044853E-01  0.51100000000E-03 0. -1.
         11    1    4    4    0    0 -0.46472433364E-01  0.32662520433E-01  0.49453383442E-03  0.56806980104E-01  0.51100000000E-03 0.  1.
</event>
<event>
 8    1  0.1128298E+005  0.1043930E+01  0.7957747E-01            NaN
         13   -1    0    0    0    0  0.00000000000E+00  0.00000000000E+00  0.74505805969E-08  0.10566000000E+00  0.10566000000E+00 0.  1.
     999900   -1    0    0    0    0 -0.00000000000E+00 -0.00000000000E+00 -0.74505805969E-08  0.93827000000E+00  0.93827000000E+00 0. -1.
     999902    2    1    2    0    0 -0.14058239367E-01 -0.13521371995E-01  0.13838471659E-01  0.10200142125E+01  0.10197338029E+01 0.  0.
     999903    2    3    3    0    0 -0.51785453875E-01  0.65318212181E-02 -0.11658418957E+00  0.12937649498E+00  0.20542791302E-01 0.  0.
         14    1    1    2    0    0  0.14058239367E-01  0.13521371995E-01 -0.13838471659E-01  0.23915787518E-01  0.00000000000E+00 0. -1.
     999901    1    3    3    0    0  0.37727214507E-01 -0.20053193213E-01  0.13042266123E+00  0.89063771750E+00  0.88000000000E+00 0.  1.
        -11    1    4    4    0    0 -0.13528144122E-01  0.81813391227E-02 -0.20153898078E-01  0.25620025799E-01  0.51100000000E-03 0.  1.
         11    1    4    4    0    0 -0.38257309753E-01 -0.16495179046E-02 -0.96430291493E-01  0.10375646918E+00  0.51100000000E-03 0. -1.
</event>
<event>
 8    1  0.1128298E+005  0.1043930E+01  0.7957747E-01            NaN
         13   -1    0    0    0    0  0.00000000000E+00  0.00000000000E+00  0.74505805969E-08  0.10566000000E+00  0.10566000000E+00 0. -1.
     999900   -1    0    0    0    0 -0.00000000000E+00 -0.00000000000E+00 -0.74505805969E-08  0.93827000000E+00  0.93827000000E+00 0.  1.
     999902    2    1    2    0    0 -0.17677885984E-01 -0.36438610468E-02 -0.14119795039E-01  0.10210137615E+01  0.10207565563E+01 0.  0.
     999903    2    3    3    0    0  0.63928147259E-01 -0.62818441138E-01 -0.94383835212E-01  0.13162999069E+00  0.19626042416E-01 0.  0.
         14    1    1    2    0    0  0.17677885984E-01  0.36438610468E-02  0.14119795039E-01  0.22916238525E-01  0.00000000000E+00 0. -1.
     999901    1    3    3    0    0 -0.81606033243E-01  0.59174580091E-01  0.80264040172E-01  0.88938377078E+00  0.88000000000E+00 0. -1.
        -11    1    4    4    0    0  0.32345138370E-01 -0.43648654576E-01 -0.62633060849E-01  0.82913053585E-01  0.51100000000E-03 0.  1.
         11    1    4    4    0    0  0.31583008889E-01 -0.19169786562E-01 -0.31750774363E-01  0.48716937105E-01  0.51100000000E-03 0. -1.
</event>
<event>
 8    1  0.1128298E+005  0.1043930E+01  0.7957747E-01            NaN
         13   -1    0    0    0    0  0.00000000000E+00  0.00000000000E+00  0.74505805969E-08  0.10566000000E+00  0.10566000000E+00 0.  1.
     999900   -1    0    0    0    0 -0.00000000000E+00 -0.00000000000E+00 -0.74505805969E-08  0.93827000000E+00  0.93827000000E+00 0.  1.
     999902    2    1    2    0    0  0.12828677799E-01 -0.34699102414E-02  0.19912167047E-01  0.10199902914E+01  0.10197093139E+01 0.  0.
     999903    2    3    3    0    0 -0.94308038961E-01  0.60468784270E-01  0.63016056707E-01  0.13014514868E+00  0.20402358614E-01 0.  0.
         14    1    1    2    0    0 -0.12828677799E-01  0.34699102414E-02 -0.19912167047E-01  0.23939708596E-01  0.00000000000E+00 0. -1.
     999901    1    3    3    0    0  0.10713671676E+00 -0.63938694511E-01 -0.43103889660E-01  0.88984514273E+00  0.88000000000E+00 0.  1.
        -11    1    4    4    0    0 -0.69989776950E-01  0.36767046110E-01  0.36612582995E-01  0.87127073357E-01  0.51100000000E-03 0.  1.
         11    1    4    4    0    0 -0.24318262011E-01  0.23701738160E-01  0.26403473712E-01  0.43018075318E-01  0.51100000000E-03 0. -1.
</event>
<event>
 8    1  0.1128298E+005  0.1043930E+01  0.7957747E-01            NaN
         13   -1    0    0    0    0  0.00000000000E+00  0.00000000000E+00  0.74505805969E-08  0.10566000000E+00  0.10566000000E+00 0. -1.
     999900   -1    0    0    0    0 -0.00000000000E+00 -0.00000000000E+00 -0.74505805969E-08  0.93827000000E+00  0.93827000000E+00 0.  1.
     999902    2    1    2    0    0 -0.15443709684E-01  0.48780591530E-02 -0.16348610092E-01  0.10209173799E+01  0.10206579819E+01 0.  0.
     999903    2    3    3    0    0  0.11046455377E+00 -0.36401944874E-02 -0.66545289193E-01  0.13049885024E+00  0.19647028874E-01 0.  0.
         14    1    1    2    0    0  0.15443709684E-01 -0.48780591530E-02  0.16348610092E-01  0.23012620056E-01  0.00000000000E+00 0. -1.
     999901    1    3    3    0    0 -0.12590826346E+00  0.85182536405E-02  0.50196679101E-01  0.89041852971E+00  0.88000000000E+00 0. -1.
        -11    1    4    4    0    0  0.25099977656E-01  0.72459608773E-02 -0.17466918753E-01  0.31430354740E-01  0.51100000000E-03 0.  1.
         11    1    4    4    0    0  0.85364576116E-01 -0.10886155365E-01 -0.49078370441E-01  0.99068495497E-01  0.51100000000E-03 0. -1.
</event>
<event>
 8    1  0.1128298E+005  0.1043930E+01  0.7957747E-01            NaN
         13   -1    0    0    0    0  0.00000000000E+00  0.00000000000E+00  0.74505805969E-08  0.10566000000E+00  0.10566000000E+00 0. -1.
     999900   -1    0    0    0    0 -0.00000000000E+00 -0.00000000000E+00 -0.74505805969E-08  0.93827000000E+00  0.93827000000E+00 0.  1.
     999902    2    1    2    0    0  0.95291903219E-02  0.21941791624E-01 -0.11910138897E-01  0.10172073673E+01  0.10168562972E+01 0.  0.
     999903    2    3    3    0    0  0.87320290501E-04  0.90146079972E-01 -0.92719839566E-01  0.13082642125E+00  0.19805567135E-01 0.  0.
         14    1    1    2    0    0 -0.95291903219E-02 -0.21941791624E-01  0.11910138897E-01  0.26722632662E-01  0.00000000000E+00 0. -1.
     999901    1    3    3    0    0  0.94418700314E-02 -0.68204288348E-01  0.80809700670E-01  0.88638094608E+00  0.88000000000E+00 0. -1.
        -11    1    4    4    0    0  0.30405661602E-02  0.50866816471E-01 -0.65292217124E-01  0.82825194225E-01  0.51100000000E-03 0. -1.
         11    1    4    4    0    0 -0.29532458697E-02  0.39279263502E-01 -0.27427622443E-01  0.48001227029E-01  0.51100000000E-03 0.  1.
</event>
<event>
 8    1  0.1128298E+005  0.1043930E+01  0.7957747E-01            NaN
         13   -1    0    0    0    0  0.00000000000E+00  0.00000000000E+00  0.74505805969E-08  0.10566000000E+00  0.10566000000E+00 0.  1.
     999900   -1    0    0    0    0 -0.00000000000E+00 -0.00000000000E+00 -0.74505805969E-08  0.93827000000E+00  0.93827000000E+00 0. -1.
     999902    2    1    2    0    0 -0.25628575449E-01  0.95141969721E-02  0.29396361676E-03  0.10165908296E+01  0.10162231470E+01 0.  0.
     999903    2    3    3    0    0 -0.33042527424E-02  0.32676411012E-01  0.12181799372E+00  0.12765722497E+00  0.19444216887E-01 0.  0.
         14    1    1    2    0    0  0.25628575449E-01 -0.95141969721E-02 -0.29396361676E-03  0.27339170400E-01  0.00000000000E+00 0. -1.
     999901    1    3    3    0    0 -0.22324322706E-01 -0.23162214040E-01 -0.12152403011E+00  0.88893360463E+00  0.88000000000E+00 0. -1.
        -11    1    4    4    0    0  0.61492037736E-04  0.28718078213E-01  0.71267136738E-01  0.76837475865E-01  0.51100000000E-03 0. -1.
         11    1    4    4    0    0 -0.33657447801E-02  0.39583327989E-02  0.50550856984E-01  0.50819749107E-01  0.51100000000E-03 0.  1.
</event>
<event>
 8    1  0.1128298E+005  0.1043930E+01  0.7957747E-01            NaN
         13   -1    0    0    0    0  0.00000000000E+00  0.00000000000E+00  0.74505805969E-08  0.10566000000E+00  0.10566000000E+00 0.  1.
     999900   -1    0    0    0    0 -0.00000000000E+00 -0.00000000000E+00 -0.74505805969E-08  0.93827000000E+00  0.93827000000E+00 0. -1.
     999902    2    1    2    0    0  0.68572705303E-02  0.12489545517E-01  0.19268621149E-01  0.10199656376E+01  0.10196840742E+01 0.  0.
     999903    2    3    3    0    0  0.10876589407E+00 -0.59390989867E-01  0.37952919111E-01  0.13097672767E+00  0.18898934658E-01 0.  0.
         14    1    1    2    0    0 -0.68572705303E-02 -0.12489545517E-01 -0.19268621149E-01  0.23964362444E-01  0.00000000000E+00 0. -1.
     999901    1    3    3    0    0 -0.10190862354E+00  0.71880535383E-01 -0.18684297962E-01  0.88898890989E+00  0.88000000000E+00 0.  1.
        -11    1    4    4    0    0  0.93573586379E-01 -0.43108321559E-01  0.32676463848E-01  0.10808494745E+00  0.51100000000E-03 0. -1.
         11    1    4    4    0    0  0.15192307689E-01 -0.16282668308E-01  0.52764552631E-02  0.22891780212E-01  0.51100000000E-03 0.  1.
</event>
<event>
 8    1  0.1128298E+005  0.1043930E+01  0.7957747E-01            NaN
         13   -1    0    0    0    0  0.00000000000E+00  0.00000000000E+00  0.74505805969E-08  0.10566000000E+00  0.10566000000E+00 0. -1.
     999900   -1    0    0    0    0 -0.00000000000E+00 -0.00000000000E+00 -0.74505805969E-08  0.93827000000E+00  0.93827000000E+00 0. -1.
     999902    2    1    2    0    0 -0.17491209463E-01  0.63922361262E-02  0.13579484917E-01  0.10208821042E+01  0.10206219012E+01 0.  0.
     999903    2    3    3    0    0  0.61678708175E-01  0.38532686961E-01 -0.10431930486E+00  0.12891741370E+00  0.21169581518E-01 0.  0.
         14    1    1    2    0    0  0.17491209463E-01 -0.63922361262E-02 -0.13579484917E-01  0.23047895821E-01  0.00000000000E+00 0. -1.
     999901    1    3    3    0    0 -0.79169917638E-01 -0.32140450835E-01  0.11789878977E+00  0.89196469048E+00  0.88000000000E+00 0.  1.
        -11    1    4    4    0    0  0.37909282529E-01  0.20668733838E-01 -0.78234788965E-01  0.89360246115E-01  0.51100000000E-03 0.  1.
         11    1    4    4    0    0  0.23769425645E-01  0.17863953123E-01 -0.26084515891E-01  0.39557167580E-01  0.51100000000E-03 0. -1.
</event>
<event>
 8    1  0.1128298E+005  0.1043930E+01  0.7957747E-01            NaN
         13   -1    0    0    0    0  0.00000000000E+00  0.00000000000E+00  0.74505805969E-08  0.10566000000E+00  0.10566000000E+00 0. -1.
     999900   -1    0    0    0    0 -0.00000000000E+00 -0.00000000000E+00 -0.74505805969E-08  0.93827000000E+00  0.93827000000E+00 0. -1.
     999902    2    1    2    0    0 -0.81789723801E-02 -0.16297274384E-01 -0.13849522387E-01  0.10210322706E+01  0.10207754854E+01 0.  0.
     999903    2    3    3    0    0  0.48931650309E-01 -0.94407952079E-01  0.74782569277E-01  0.13130278987E+00  0.18461368941E-01 0.  0.
         14    1    1    2    0    0  0.81789723801E-02  0.16297274384E-01  0.13849522387E-01  0.22897729404E-01  0.00000000000E+00 0. -1.
     999901    1    3    3    0    0 -0.57110622689E-01  0.78110677695E-01 -0.88632091664E-01  0.88972948072E+00  0.88000000000E+00 0. -1.
        -11    1    4    4    0    0  0.15613539396E-01 -0.24934362228E-01  0.30738302316E-01  0.42551255944E-01  0.51100000000E-03 0.  1.
         11    1    4    4    0    0  0.33318110912E-01 -0.69473589851E-01  0.44044266961E-01  0.88751533929E-01  0.51100000000E-03 0. -1.
</event>
<event>
 8    1  0.1128298E+005  0.1043930E+01  0.7957747E-01            NaN
         13   -1    0    0    0    0  0.00000000000E+00  0.00000000000E+00  0.74505805969E-08  0.10566000000E+00  0.10566000000E+00 0.  1.
     999900   -1    0    0    0    0 -0.00000000000E+00 -0.00000000000E+00 -0.74505805969E-08  0.93827000000E+00  0.93827000000E+00 0. -1.
     999902    2    1    2    0    0  0.39504679940E-02  0.20166787720E-01  0.12153531434E-01  0.10200550372E+01  0.10197755954E+01 0.  0.
     999903    2    3    3    0    0 -0.11113102594E-02  0.42048323518E-01 -0.12108511569E+00  0.12974219310E+00  0.20053301671E-01 0.  0.
         14    1    1    2    0    0 -0.39504679940E-02 -0.20166787720E-01 -0.12153531434E-01  0.23874962840E-01  0.00000000000E+00 0.  1.
     999901    1    3    3    0    0  0.50617782534E-02 -0.21881535798E-01  0.13323864712E+00  0.89031284406E+00  0.88000000000E+00 0.  1.
        -11    1    4    4    0    0  0.60475885348E-02  0.11986532547E-01 -0.57430087270E-01  0.58980728500E-01  0.51100000000E-03 0. -1.
         11    1    4    4    0    0 -0.71588987942E-02  0.30061790971E-01 -0.63655028420E-01  0.70761464601E-01  0.51100000000E-03 0.  1.
</event>
<event>
 8    1  0.1128298E+005  0.1043930E+01  0.7957747E-01            NaN
         13   -1    0    0    0    0  0.00000000000E+00  0.00000000000E+00  0.74505805969E-08  0.10566000000E+00  0.10566000000E+00 0. -1.
     999900   -1    0    0    0    0 -0.00000000000E+00 -0.00000000000E+00 -0.74505805969E-08  0.93827000000E+00  0.93827000000E+00 0. -1.
     999902    2    1    2    0    0  0.12075503643E-01 -0.88921688046E-02  0.17910907437E-01  0.10205700116E+01  0.10203026313E+01 0.  0.
     999903    2    3    3    0    0  0.58777602053E-01 -0.94174076737E-01 -0.66961027388E-01  0.13115597124E+00  0.19863191343E-01 0.  0.
         14    1    1    2    0    0 -0.12075503643E-01  0.88921688046E-02 -0.17910907437E-01  0.23359988431E-01  0.00000000000E+00 0.  1.
     999901    1    3    3    0    0 -0.46702098410E-01  0.85281907932E-01  0.84871934825E-01  0.88941404033E+00  0.88000000000E+00 0. -1.
        -11    1    4    4    0    0  0.37865101147E-01 -0.50203608287E-01 -0.47104265416E-01  0.78569975890E-01  0.51100000000E-03 0.  1.
         11    1    4    4    0    0  0.20912500906E-01 -0.43970468449E-01 -0.19856761973E-01  0.52585995349E-01  0.51100000000E-03 0. -1.
</event>
<event>
 8    1  0.1128298E+005  0.1043930E+01  0.7957747E-01            NaN
         13   -1    0    0    0    0  0.00000000000E+00  0.00000000000E+00  0.74505805969E-08  0.10566000000E+00  0.10566000000E+00 0. -1.
     999900   -1    0    0    0    0 -0.00000000000E+00 -0.00000000000E+00 -0.74505805969E-08  0.93827000000E+00  0.93827000000E+00 0.  1.
     999902    2    1    2    0    0 -0.52616704598E-02  0.16812102738E-02 -0.23305264927E-01  0.10199790706E+01  0.10196978266E+01 0.  0.
     999903    2    3    3    0    0  0.45604926667E-01  0.78122377804E-01  0.88640833498E-01  0.12814803745E+00  0.19539879474E-01 0.  0.
         14    1    1    2    0    0  0.52616704598E-02 -0.16812102738E-02  0.23305264927E-01  0.23950929363E-01  0.00000000000E+00 0. -1.
     999901    1    3    3    0    0 -0.50866597127E-01 -0.76441167530E-01 -0.11194609843E+00  0.89183103318E+00  0.88000000000E+00 0. -1.
        -11    1    4    4    0    0  0.23938957655E-02  0.15929352067E-01  0.99821339258E-02  0.18957297089E-01  0.51100000000E-03 0.  1.
         11    1    4    4    0    0  0.43211030902E-01  0.62193025737E-01  0.78658699572E-01  0.10919074036E+00  0.51100000000E-03 0. -1.
</event>
<event>
 8    1  0.1128298E+005  0.1043930E+01  0.7957747E-01            NaN
         13   -1    0    0    0    0  0.00000000000E+00  0.00000000000E+00  0.74505805969E-08  0.10566000000E+00  0.10566000000E+00 0. -1.
     999900   -1    0    0    0    0 -0.00000000000E+00 -0.00000000000E+00 -0.74505805969E-08  0.93827000000E+00  0.93827000000E+00 0. -1.
     999902    2    1    2    0    0  0.22137249938E-01 -0.82333709902E-02  0.73272980495E-03  0.10202998683E+01  0.10200261948E+01 0.  0.
     999903    2    3    3    0    0  0.10932561351E+00 -0.49333689679E-01  0.55183250067E-01  0.13336362135E+00  0.18835118907E-01 0.  0.
         14    1    1    2    0    0 -0.22137249938E-01  0.82333709902E-02 -0.73272980495E-03  0.23630131731E-01  0.00000000000E+00 0.  1.
     999901    1    3    3    0    0 -0.87188363576E-01  0.41100318689E-01 -0.54450520262E-01  0.88693624692E+00  0.88000000000E+00 0. -1.
        -11    1    4    4    0    0  0.17806601843E-01 -0.68748626548E-02  0.16754209717E-01  0.25402824055E-01  0.51100000000E-03 0.  1.
         11    1    4    4    0    0  0.91519011671E-01 -0.42458827025E-01  0.38429040350E-01  0.10796079730E+00  0.51100000000E-03 0. -1.
</event>
<event>
 8    1  0.1128298E+005  0.1043930E+01  0.7957747E-01            NaN
         13   -1    0    0    0    0  0.00000000000E+00  0.00000000000E+00  0.74505805969E-08  0.10566000000E+00  0.10566000000E+00 0.  1.
     999900   -1    0    0    0    0 -0.00000000000E+00 -0.00000000000E+00 -0.74505805969E-08  0.93827000000E+00  0.93827000000E+00 0. -1.
     999902    2    1    2    0    0  0.61469329987E-02  0.17112451581E-01  0.15691207108E-01  0.10199126154E+01  0.10196297898E+01 0.  0.
     999903    2    3    3    0    0 -0.69153228904E-01 -0.80027082905E-01 -0.68181531256E-01  0.12742124858E+00  0.20023743863E-01 0.  0.
         14    1    1    2    0    0 -0.61469329987E-02 -0.17112451581E-01 -0.15691207108E-01  0.24017384640E-01  0.00000000000E+00 0. -1.
     999901    1    3    3    0    0  0.75300161903E-01  0.97139534486E-01  0.83872738364E-01  0.89249136678E+00  0.88000000000E+00 0. -1.
        -11    1    4    4    0    0 -0.34985918027E-01 -0.30007535779E-01 -0.38014115887E-01  0.59747809930E-01  0.51100000000E-03 0. -1.
         11    1    4    4    0    0 -0.34167310877E-01 -0.50019547126E-01 -0.30167415369E-01  0.67673438647E-01  0.51100000000E-03 0.  1.
</event>
<event>
 8    1  0.1128298E+005  0.1043930E+01  0.7957747E-01            NaN
         13   -1    0    0    0    0  0.00000000000E+00  0.00000000000E+00  0.74505805969E-08  0.10566000000E+00  0.10566000000E+00 0.  1.
     999900   -1    0    0    0    0 -0.00000000000E+00 -0.00000000000E+00 -0.74505805969E-08  0.93827000000E+00  0.93827000000E+00 0. -1.
     999902    2    1    2    0    0 -0.17231293564E-01 -0.12184539903E-01 -0.10622911721E-01  0.10203031774E+01  0.10200295815E+01 0.  0.
     999903    2    3    3    0    0 -0.10129863704E+00  0.78888284128E-02 -0.83584238955E-01  0.13306385594E+00  0.19900182833E-01 0.  0.
         14    1    1    2    0    0  0.17231293564E-01  0.12184539903E-01  0.10622911721E-01  0.23626822553E-01  0.00000000000E+00 0. -1.
     999901    1    3    3    0    0  0.84067343474E-01 -0.20073368316E-01  0.72961327234E-01  0.88723932151E+00  0.88000000000E+00 0. -1.
        -11    1    4    4    0    0 -0.35415164657E-01  0.10750126876E-01 -0.23461052061E-01  0.43823295179E-01  0.51100000000E-03 0. -1.
         11    1    4    4    0    0 -0.65883472381E-01 -0.28612984633E-02 -0.60123186894E-01  0.89240560762E-01  0.51100000000E-03 0.  1.
</event>
<event>
 8    1  0.1128298E+005  0.1043930E+01  0.7957747E-01            NaN
         13   -1    0    0    0    0  0.00000000000E+00  0.00000000000E+00  0.74505805969E-08  0.10566000000E+00  0.10566000000E+00 0.  1.
     999900   -1    0    0    0    0 -0.00000000000E+00 -0.00000000000E+00 -0.74505805969E-08  0.93827000000E+00  0.93827000000E+00 0.  1.
     999902    2    1    2    0    0 -0.11206534124E-01 -0.61465133853E-02 -0.18677909741E-01  0.10212974936E+01  0.10210466885E+01 0.  0.
     999903    2    3    3    0    0 -0.11621088931E+00 -0.45589775130E-01 -0.43939276493E-01  0.13381801656E+00  0.19829350626E-01 0.  0.
         14    1    1    2    0    0  0.11206534124E-01  0.61465133853E-02  0.18677909741E-01  0.22632506405E-01  0.00000000000E+00 0.  1.
     999901    1    3    3    0    0  0.10500435519E+00  0.39443261744E-01  0.25261366752E-01  0.88747947703E+00  0.88000000000E+00 0.  1.
        -11    1    4    4    0    0 -0.37380040501E-01 -0.22217036753E-01 -0.86412889347E-02  0.44337310986E-01  0.51100000000E-03 0.  1.
         11    1    4    4    0    0 -0.78830848812E-01 -0.23372738376E-01 -0.35297987558E-01  0.89480705576E-01  0.51100000000E-03 0. -1.
</event>
<event>
 8    1  0.1128298E+005  0.1043930E+01  0.7957747E-01            NaN
         13   -1    0    0    0    0  0.00000000000E+00  0.00000000000E+00  0.74505805969E-08  0.10566000000E+00  0.10566000000E+00 0.  1.
     999900   -1    0    0    0    0 -0.00000000000E+00 -0.00000000000E+00 -0.74505805969E-08  0.93827000000E+00  0.93827000000E+00 0.  1.
     999902    2    1    2    0    0 -0.10807852812E-01 -0.94526462668E-02  0.18482548533E-01  0.10205255815E+01  0.10202571714E+01 0.  0.
     999903    2    3    3    0    0 -0.35162885110E-01 -0.65904246498E-01 -0.10406376729E+00  0.12990919369E+00  0.21617880251E-01 0.  0.
         14    1    1    2    0    0  0.10807852812E-01  0.94526462668E-02 -0.18482548533E-01  0.23404418475E-01  0.00000000000E+00 0. -1.
     999901    1    3    3    0    0  0.24355032298E-01  0.56451600231E-01  0.12254631582E+00  0.89061638784E+00  0.88000000000E+00 0. -1.
        -11    1    4    4    0    0 -0.22903028214E-01 -0.55356668713E-01 -0.91742720315E-01  0.10957142567E+00  0.51100000000E-03 0. -1.
         11    1    4    4    0    0 -0.12259856896E-01 -0.10547577785E-01 -0.12321046971E-01  0.20337768012E-01  0.51100000000E-03 0.  1.
</event>
<event>
 8    1  0.1128298E+005  0.1043930E+01  0.7957747E-01            NaN
         13   -1    0    0    0    0  0.00000000000E+00  0.00000000000E+00  0.74505805969E-08  0.10566000000E+00  0.10566000000E+00 0.  1.
     999900   -1    0    0    0    0 -0.00000000000E+00 -0.00000000000E+00 -0.74505805969E-08  0.93827000000E+00  0.93827000000E+00 0.  1.
     999902    2    1    2    0    0  0.96784535560E-02 -0.19545267312E-01  0.10193126022E-01  0.10198553296E+01  0.10195711371E+01 0.  0.
     999903    2    3    3    0    0  0.96697959728E-01  0.83871821075E-02  0.86965677425E-01  0.13179753820E+00  0.19665243118E-01 0.  0.
         14    1    1    2    0    0 -0.96784535560E-02  0.19545267312E-01 -0.10193126022E-01  0.24074670416E-01  0.00000000000E+00 0. -1.
     999901    1    3    3    0    0 -0.87019506172E-01 -0.27932449420E-01 -0.76772551403E-01  0.88805779138E+00  0.88000000000E+00 0.  1.
        -11    1    4    4    0    0  0.54486078765E-02  0.53245979586E-02  0.52340574911E-02  0.92571674951E-02  0.51100000000E-03 0.  1.
         11    1    4    4    0    0  0.91249351852E-01  0.30625841489E-02  0.81731619933E-01  0.12254037071E+00  0.51100000000E-03 0. -1.
</event>
<event>
 8    1  0.1128298E+005  0.1043930E+01  0.7957747E-01            NaN
         13   -1    0    0    0    0  0.00000000000E+00  0.00000000000E+00  0.74505805969E-08  0.10566000000E+00  0.10566000000E+00 0.  1.
     999900   -1    0    0    0    0 -0.00000000000E+00 -0.00000000000E+00 -0.74505805969E-08  0.93827000000E+00  0.93827000000E+00 0.  1.
     999902    2    1    2    0    0  0.21167831638E-01  0.56798694830E-02 -0.56396097983E-02  0.10212994186E+01  0.10210486567E+01 0.  0.
     999903    2    3    3    0    0  0.60557908986E-01  0.11718716624E+00  0.41963433177E-03  0.13336801935E+00  0.19666220277E-01 0.  0.
         14    1    1    2    0    0 -0.21167831638E-01 -0.56798694830E-02  0.56396097983E-02  0.22630581351E-01  0.00000000000E+00 0.  1.
     999901    1    3    3    0    0 -0.39390077348E-01 -0.11150729676E+00 -0.60592441300E-02  0.88793139930E+00  0.88000000000E+00 0. -1.
        -11    1    4    4    0    0  0.59273672338E-02  0.24008805934E-01 -0.49317714460E-02  0.25221814671E-01  0.51100000000E-03 0.  1.
         11    1    4    4    0    0  0.54630541752E-01  0.93178360306E-01  0.53514057778E-02  0.10814620468E+00  0.51100000000E-03 0. -1.
</event>
<event>
 8    1  0.1128298E+005  0.1043930E+01  0.7957747E-01            NaN
         13   -1    0    0    0    0  0.00000000000E+00  0.00000000000E+00  0.74505805969E-08  0.10566000000E+00  0.10566000000E+00 0.  1.
     999900   -1    0    0    0    0 -0.00000000000E+00 -0.00000000000E+00 -0.74505805969E-08  0.93827000000E+00  0.93827000000E+00 0. -1.
     999902    2    1    2    0    0  0.11431993481E-01 -0.21501889650E-01  0.16975144128E-02  0.10195188696E+01  0.10192265804E+01 0.  0.
     999903    2    3    3    0    0  0.41659823596E-02  0.37729884291E-01 -0.12193725035E+00  0.12887485931E+00  0.17295570598E-01 0.  0.
         14    1    1    2    0    0 -0.11431993481E-01  0.21501889650E-01 -0.16975144128E-02  0.24411130425E-01  0.00000000000E+00 0. -1.
     999901    1    3    3    0    0  0.72660111214E-02 -0.59231773941E-01  0.12363476476E+00  0.89064401026E+00  0.88000000000E+00 0.  1.
        -11    1    4    4    0    0  0.25867918028E-02  0.36630007439E-01 -0.94803591377E-01  0.10166823986E+00  0.51100000000E-03 0.  1.
         11    1    4    4    0    0  0.15791905569E-02  0.10998768519E-02 -0.27133658971E-01  0.27206619453E-01  0.51100000000E-03 0. -1.
</event>
<event>
 8    1  0.1128298E+005  0.1043930E+01  0.7957747E-01            NaN
         13   -1    0    0    0    0  0.00000000000E+00  0.00000000000E+00  0.74505805969E-08  0.10566000000E+00  0.10566000000E+00 0.  1.
     999900   -1    0    0    0    0 -0.00000000000E+00 -0.00000000000E+00 -0.74505805969E-08  0.93827000000E+00  0.93827000000E+00 0. -1.
     999902    2    1    2    0    0 -0.22669795238E-01  0.24131672722E-01 -0.11379717139E-01  0.10089192130E+01  0.10083115705E+01 0.  0.
     999903    2    3    3    0    0  0.35928790260E-01  0.79806659712E-01 -0.84457064133E-01  0.12219840178E+00  0.11809860783E-01 0.  0.
         14    1    1    2    0    0  0.22669795238E-01 -0.24131672722E-01  0.11379717139E-01  0.35010787004E-01  0.00000000000E+00 0.  1.
     999901    1    3    3    0    0 -0.58598585498E-01 -0.55674986990E-01  0.73077346994E-01  0.88672081122E+00  0.88000000000E+00 0.  1.
        -11    1    4    4    0    0  0.20437892770E-01  0.42295573143E-01 -0.37333423384E-01  0.60005571333E-01  0.51100000000E-03 0.  1.
         11    1    4    4    0    0  0.15490897490E-01  0.37511086569E-01 -0.47123640749E-01  0.62192830447E-01  0.51100000000E-03 0. -1.
</event>
<event>
 8    1  0.1128298E+005  0.1043930E+01  0.7957747E-01            NaN
         13   -1    0    0    0    0  0.00000000000E+00  0.00000000000E+00  0.74505805969E-08  0.10566000000E+00  0.10566000000E+00 0.  1.
     999900   -1    0    0    0    0 -0.00000000000E+00 -0.00000000000E+00 -0.74505805969E-08  0.93827000000E+00  0.93827000000E+00 0. -1.
     999902    2    1    2    0    0  0.10976117795E-01 -0.20639729556E-01  0.78264305957E-02  0.10192778882E+01  0.10189797284E+01 0.  0.
     999903    2    3    3    0    0 -0.10967255160E+00 -0.54599251892E-01  0.38638765309E-01  0.12986305222E+00  0.19034475702E-01 0.  0.
         14    1    1    2    0    0 -0.10976117795E-01  0.20639729556E-01 -0.78264305957E-02  0.24652111752E-01  0.00000000000E+00 0. -1.
     999901    1    3    3    0    0  0.12064866939E+00  0.33959522336E-01 -0.30812334713E-01  0.88941483603E+00  0.88000000000E+00 0. -1.
        -11    1    4    4    0    0 -0.19716805525E-01 -0.17067989934E-01  0.38362460882E-02  0.26363736563E-01  0.51100000000E-03 0. -1.
         11    1    4    4    0    0 -0.89955746072E-01 -0.37531261958E-01  0.34802519221E-01  0.10349931565E+00  0.51100000000E-03 0.  1.
</event>
<event>
 8    1  0.1128298E+005  0.1043930E+01  0.7957747E-01            NaN
         13   -1    0    0    0    0  0.00000000000E+00  0.00000000000E+00  0.74505805969E-08  0.10566000000E+00  0.10566000000E+00 0. -1.
     999900   -1    0    0    0    0 -0.00000000000E+00 -0.00000000000E+00 -0.74505805969E-08  0.93827000000E+00  0.93827000000E+00 0.  1.
     999902    2    1    2    0    0 -0.17673233834E-01 -0.53184570271E-02  0.14857678566E-01  0.10202365454E+01  0.10199613859E+01 0.  0.
     999903    2    3    3    0    0 -0.78083715255E-01 -0.10466892023E+00 -0.54701332140E-02  0.13235526912E+00  0.20864933686E-01 0.  0.
         14    1    1    2    0    0  0.17673233834E-01  0.53184570271E-02 -0.14857678566E-01  0.23693454617E-01  0.00000000000E+00 0.  1.
     999901    1    3    3    0    0  0.60410481421E-01  0.99350463199E-01  0.20327811780E-01  0.88788127626E+00  0.88000000000E+00 0.  1.
        -11    1    4    4    0    0 -0.22105485899E-01 -0.42306214898E-01  0.45641901679E-02  0.47953741029E-01  0.51100000000E-03 0.  1.
         11    1    4    4    0    0 -0.55978229356E-01 -0.62362705328E-01 -0.10034323382E-01  0.84401528093E-01  0.51100000000E-03 0. -1.
</event>
<event>
 8    1  0.1128298E+005  0.1043930E+01  0.7957747E-01            NaN
         13   -1    0    0    0    0  0.00000000000E+00  0.00000000000E+00  0.74505805969E-08  0.10566000000E+00  0.10566000000E+00 0.  1.
     999900   -1    0    0    0    0 -0.00000000000E+00 -0.00000000000E+00 -0.74505805969E-08  0.93827000000E+00  0.93827000000E+00 0.  1.
     999902    2    1    2    0    0 -0.20752700388E-01  0.99349788037E-02 -0.70520631393E-03  0.10209109711E+01  0.10206514269E+01 0.  0.
     999903    2    3    3    0    0 -0.43278071562E-01 -0.40552562362E-01  0.11517005660E+00  0.13159468272E+00  0.23141235743E-01 0.  0.
         14    1    1    2    0    0  0.20752700388E-01 -0.99349788037E-02  0.70520631393E-03  0.23019028936E-01  0.00000000000E+00 0.  1.
     999901    1    3    3    0    0  0.22525371174E-01  0.50487541166E-01 -0.11587526291E+00  0.88931628834E+00  0.88000000000E+00 0.  1.
        -11    1    4    4    0    0 -0.43056414686E-01 -0.30950625645E-01  0.87658462501E-01  0.10245029645E+00  0.51100000000E-03 0.  1.
         11    1    4    4    0    0 -0.22165687573E-03 -0.96019367172E-02  0.27511594094E-01  0.29144386271E-01  0.51100000000E-03 0. -1.
</event>
<event>
 8    1  0.1128298E+005  0.1043930E+01  0.7957747E-01            NaN
         13   -1    0    0    0    0  0.00000000000E+00  0.00000000000E+00  0.74505805969E-08  0.10566000000E+00  0.10566000000E+00 0.  1.
     999900   -1    0    0    0    0 -0.00000000000E+00 -0.00000000000E+00 -0.74505805969E-08  0.93827000000E+00  0.93827000000E+00 0.  1.
     999902    2    1    2    0    0  0.17563171351E-01  0.32630649712E-02 -0.16984403571E-01  0.10192808104E+01  0.10189827221E+01 0.  0.
     999903    2    3    3    0    0 -0.71953320079E-01 -0.78606983405E-01 -0.70592160018E-01  0.12934277968E+00  0.19747493224E-01 0.  0.
         14    1    1    2    0    0 -0.17563171351E-01 -0.32630649712E-02  0.16984403571E-01  0.24649189552E-01  0.00000000000E+00 0.  1.
     999901    1    3    3    0    0  0.89516491430E-01  0.81870048376E-01  0.53607756447E-01  0.88993803077E+00  0.88000000000E+00 0. -1.
        -11    1    4    4    0    0 -0.50912106758E-01 -0.57603269529E-01 -0.60869751888E-01  0.98058998011E-01  0.51100000000E-03 0.  1.
         11    1    4    4    0    0 -0.21041213320E-01 -0.21003713875E-01 -0.97224081293E-02  0.31283781667E-01  0.51100000000E-03 0. -1.
</event>
<event>
 8    1  0.1128298E+005  0.1043930E+01  0.7957747E-01            NaN
         13   -1    0    0    0    0  0.00000000000E+00  0.00000000000E+00  0.74505805969E-08  0.10566000000E+00  0.10566000000E+00 0. -1.
     999900   -1    0    0    0    0 -0.00000000000E+00 -0.00000000000E+00 -0.74505805969E-08  0.93827000000E+00  0.93827000000E+00 0.  1.
     999902    2    1    2    0    0  0.67241704386E-02  0.26302486035E-01  0.48601368712E-02  0.10163500042E+01  0.10159757255E+01 0.  0.
     999903    2    3    3    0    0  0.28894559832E-03 -0.97857728337E-01 -0.73728005910E-01  0.12414303987E+00  0.19986420601E-01 0.  0.
         14    1    1    2    0    0 -0.67241704386E-02 -0.26302486035E-01 -0.48601368712E-02  0.27579995832E-01  0.00000000000E+00 0. -1.
     999901    1    3    3    0    0  0.64352248403E-02  0.12416021437E+00  0.78588142781E-01  0.89220696430E+00  0.88000000000E+00 0. -1.
        -11    1    4    4    0    0 -0.38988240430E-02 -0.29868148162E-01 -0.33404992057E-01  0.44982904741E-01  0.51100000000E-03 0. -1.
         11    1    4    4    0    0  0.41877696413E-02 -0.67989580175E-01 -0.40323013852E-01  0.79160135131E-01  0.51100000000E-03 0.  1.
</event>
<event>
 8    1  0.1128298E+005  0.1043930E+01  0.7957747E-01            NaN
         13   -1    0    0    0    0  0.00000000000E+00  0.00000000000E+00  0.74505805969E-08  0.10566000000E+00  0.10566000000E+00 0.  1.
     999900   -1    0    0    0    0 -0.00000000000E+00 -0.00000000000E+00 -0.74505805969E-08  0.93827000000E+00  0.93827000000E+00 0.  1.
     999902    2    1    2    0    0  0.32409914550E-03 -0.18459661821E-01 -0.13403416532E-01  0.10211151862E+01  0.10208602783E+01 0.  0.
     999903    2    3    3    0    0 -0.84163180651E-01 -0.33462872888E-01  0.92051109045E-01  0.13067492780E+00  0.19983123859E-01 0.  0.
         14    1    1    2    0    0 -0.32409914550E-03  0.18459661821E-01  0.13403416532E-01  0.22814813817E-01  0.00000000000E+00 0.  1.
     999901    1    3    3    0    0  0.84487279797E-01  0.15003211067E-01 -0.10545452558E+00  0.89044025839E+00  0.88000000000E+00 0.  1.
        -11    1    4    4    0    0 -0.16658358116E-01 -0.19876452607E-02  0.87434754114E-02  0.18925144968E-01  0.51100000000E-03 0.  1.
         11    1    4    4    0    0 -0.67504822536E-01 -0.31475227627E-01  0.83307633633E-01  0.11174978283E+00  0.51100000000E-03 0. -1.
</event>
<event>
 8    1  0.1128298E+005  0.1043930E+01  0.7957747E-01            NaN
         13   -1    0    0    0    0  0.00000000000E+00  0.00000000000E+00  0.74505805969E-08  0.10566000000E+00  0.10566000000E+00 0.  1.
     999900   -1    0    0    0    0 -0.00000000000E+00 -0.00000000000E+00 -0.74505805969E-08  0.93827000000E+00  0.93827000000E+00 0. -1.
     999902    2    1    2    0    0  0.97266954730E-02  0.18105027874E-01  0.11213285378E-01  0.10205176441E+01  0.10202490498E+01 0.  0.
     999903    2    3    3    0    0 -0.82305854071E-01  0.68571001108E-01 -0.71010445103E-01  0.13047407974E+00  0.22467006098E-01 0.  0.
         14    1    1    2    0    0 -0.97266954730E-02 -0.18105027874E-01 -0.11213285378E-01  0.23412355885E-01  0.00000000000E+00 0. -1.
     999901    1    3    3    0    0  0.92032549544E-01 -0.50465973235E-01  0.82223730481E-01  0.89004356437E+00  0.88000000000E+00 0.  1.
        -11    1    4    4    0    0 -0.52004036788E-01  0.49332240697E-01 -0.35540800736E-01  0.80009371029E-01  0.51100000000E-03 0.  1.
         11    1    4    4    0    0 -0.30301817283E-01  0.19238760411E-01 -0.35469644368E-01  0.50464708712E-01  0.51100000000E-03 0. -1.
</event>
<event>
 8    1  0.1128298E+005  0.1043930E+01  0.7957747E-01            NaN
         13   -1    0    0    0    0  0.00000000000E+00  0.00000000000E+00  0.74505805969E-08  0.10566000000E+00  0.10566000000E+00 0. -1.
     999900   -1    0    0    0    0 -0.00000000000E+00 -0.00000000000E+00 -0.74505805969E-08  0.93827000000E+00  0.93827000000E+00 0.  1.
     999902    2    1    2    0    0 -0.45768185853E-02 -0.40657189147E-02 -0.22924730387E-01  0.10202019448E+01  0.10199259716E+01 0.  0.
     999903    2    3    3    0    0 -0.60144499083E-01 -0.17433222647E-02 -0.11729101043E+00  0.13341101375E+00  0.20516274534E-01 0.  0.
         14    1    1    2    0    0  0.45768185853E-02  0.40657189147E-02  0.22924730387E-01  0.23728055166E-01  0.00000000000E+00 0. -1.
     999901    1    3    3    0    0  0.55567680498E-01 -0.23223966499E-02  0.94366280040E-01  0.88679093108E+00  0.88000000000E+00 0. -1.
        -11    1    4    4    0    0 -0.36871148090E-01 -0.25125524637E-02 -0.91372381705E-01  0.98564535918E-01  0.51100000000E-03 0. -1.
         11    1    4    4    0    0 -0.23273350993E-01  0.76923019900E-03 -0.25918628722E-01  0.34846477833E-01  0.51100000000E-03 0.  1.
</event>
<event>
 8    1  0.1128298E+005  0.1043930E+01  0.7957747E-01            NaN
         13   -1    0    0    0    0  0.00000000000E+00  0.00000000000E+00  0.74505805969E-08  0.10566000000E+00  0.10566000000E+00 0.  1.
     999900   -1    0    0    0    0 -0.00000000000E+00 -0.00000000000E+00 -0.74505805969E-08  0.93827000000E+00  0.93827000000E+00 0.  1.
     999902    2    1    2    0    0  0.11236424727E-01  0.16770172945E-01 -0.11311545418E-01  0.10207902722E+01  0.10205279677E+01 0.  0.
     999903    2    3    3    0    0  0.12111211376E+00 -0.42906040381E-01 -0.21695666938E-01  0.13189109491E+00  0.20383487243E-01 0.  0.
         14    1    1    2    0    0 -0.11236424727E-01 -0.16770172945E-01  0.11311545418E-01  0.23139727764E-01  0.00000000000E+00 0.  1.
     999901    1    3    3    0    0 -0.10987568903E+00  0.59676213325E-01  0.10384121520E-01  0.88889917733E+00  0.88000000000E+00 0. -1.
        -11    1    4    4    0    0  0.72994053322E-01 -0.15182257027E-01 -0.12648870680E-01  0.75623328406E-01  0.51100000000E-03 0. -1.
         11    1    4    4    0    0  0.48118060435E-01 -0.27723783354E-01 -0.90467962585E-02  0.56267766501E-01  0.51100000000E-03 0.  1.
</event>
<event>
 8    1  0.1128298E+005  0.1043930E+01  0.7957747E-01            NaN
         13   -1    0    0    0    0  0.00000000000E+00  0.00000000000E+00  0.74505805969E-08  0.10566000000E+00  0.10566000000E+00 0. -1.
     999900   -1    0    0    0    0 -0.00000000000E+00 -0.00000000000E+00 -0.74505805969E-08  0.93827000000E+00  0.93827000000E+00 0.  1.
     999902    2    1    2    0    0 -0.14131500015E-01  0.15324025368E-01 -0.98522189547E-02  0.10208737370E+01  0.10206133428E+01 0.  0.
     999903    2    3    3    0    0 -0.93260749876E-01  0.62416804978E-01 -0.70881344719E-01  0.13396690858E+00  0.18153306952E-01 0.  0.
         14    1    1    2    0    0  0.14131500015E-01 -0.15324025368E-01  0.98522189547E-02  0.23056263021E-01  0.00000000000E+00 0. -1.
     999901    1    3    3    0    0  0.79129249862E-01 -0.47092779610E-01  0.61029125765E-01  0.88690682840E+00  0.88000000000E+00 0. -1.
        -11    1    4    4    0    0 -0.77377397998E-01  0.50398264061E-01 -0.65845652089E-01  0.11341586204E+00  0.51100000000E-03 0.  1.
         11    1    4    4    0    0 -0.15883351878E-01  0.12018540917E-01 -0.50356926301E-02  0.20551046541E-01  0.51100000000E-03 0. -1.
</event>
<event>
 8    1  0.1128298E+005  0.1043930E+01  0.7957747E-01            NaN
         13   -1    0    0    0    0  0.00000000000E+00  0.00000000000E+00  0.74505805969E-08  0.10566000000E+00  0.10566000000E+00 0.  1.
     999900   -1    0    0    0    0 -0.00000000000E+00 -0.00000000000E+00 -0.74505805969E-08  0.93827000000E+00  0.93827000000E+00 0.  1.
     999902    2    1    2    0    0  0.14816680398E-01  0.25629526927E-02  0.17910486908E-01  0.10205443573E+01  0.10202763826E+01 0.  0.
     999903    2    3    3    0    0 -0.64720538289E-01 -0.91581530548E-01 -0.59119563520E-01  0.12862340699E+00  0.21747027872E-01 0.  0.
         14    1    1    2    0    0 -0.14816680398E-01 -0.25629526927E-02 -0.17910486908E-01  0.23385642728E-01  0.00000000000E+00 0. -1.
     999901    1    3    3    0    0  0.79537218687E-01  0.94144483241E-01  0.77030050428E-01  0.89192095028E+00  0.88000000000E+00 0. -1.
        -11    1    4    4    0    0 -0.14351942608E-01 -0.24912094144E-01 -0.53200279510E-02  0.29243024974E-01  0.51100000000E-03 0.  1.
         11    1    4    4    0    0 -0.50368595681E-01 -0.66669436404E-01 -0.53799535569E-01  0.99380382017E-01  0.51100000000E-03 0. -1.
</event>
<event>
 7    1  0.1128298E+005  0.1043930E+01  0.7957747E-01            NaN
         13   -1    0    0    0    0  0.00000000000E+00  0.00000000000E+00  0.74505805969E-08  0.10566000000E+00  0.10566000000E+00 0.  1.
     999900   -1    0    0    0    0 -0.00000000000E+00 -0.00000000000E+00 -0.74505805969E-08  0.93827000000E+00  0.93827000000E+00 0.  1.
     999903    2    1    2    0    0 -0.95965616980E-01  0.25886897431E-02 -0.42902823786E-01  0.10715321551E+00  0.20616943249E-01 0.  0.
         14    1    1    2    0    0  0.48645336659E-01  0.19789039469E-01  0.15655910654E-01  0.54800386862E-01  0.00000000000E+00 0.  1.
     999901    1    1    2    0    0  0.47320280320E-01 -0.22377729212E-01  0.27246913131E-01  0.88197639763E+00  0.88000000000E+00 0. -1.
        -11    1    3    3    0    0 -0.33486919492E-01  0.54482438941E-02 -0.24837999269E-01  0.42050499013E-01  0.51100000000E-03 0.  1.
         11    1    3    3    0    0 -0.62478697488E-01 -0.28595541510E-02 -0.18064824517E-01  0.65102716499E-01  0.51100000000E-03 0. -1.
</event>
<event>
 8    1  0.1128298E+005  0.1043930E+01  0.7957747E-01            NaN
         13   -1    0    0    0    0  0.00000000000E+00  0.00000000000E+00  0.74505805969E-08  0.10566000000E+00  0.10566000000E+00 0. -1.
     999900   -1    0    0    0    0 -0.00000000000E+00 -0.00000000000E+00 -0.74505805969E-08  0.93827000000E+00  0.93827000000E+00 0.  1.
     999902    2    1    2    0    0 -0.40308039982E-03  0.23609851420E-01 -0.74142641274E-03  0.10203050710E+01  0.10200315194E+01 0.  0.
     999903    2    3    3    0    0 -0.27230195424E-01 -0.24757683461E-01  0.12316842229E+00  0.12990473230E+00  0.18717713278E-01 0.  0.
         14    1    1    2    0    0  0.40308039982E-03 -0.23609851420E-01  0.74142641274E-03  0.23624929016E-01  0.00000000000E+00 0.  1.
     999901    1    3    3    0    0  0.26827115024E-01  0.48367534881E-01 -0.12390984870E+00  0.89040033869E+00  0.88000000000E+00 0.  1.
        -11    1    4    4    0    0 -0.14253114272E-04 -0.17593421058E-03  0.26603096205E-01  0.26608588928E-01  0.51100000000E-03 0.  1.
         11    1    4    4    0    0 -0.27215942310E-01 -0.24581749250E-01  0.96565326084E-01  0.10329614337E+00  0.51100000000E-03 0. -1.
</event>
<event>
 8    1  0.1128298E+005  0.1043930E+01  0.7957747E-01            NaN
         13   -1    0    0    0    0  0.00000000000E+00  0.00000000000E+00  0.74505805969E-08  0.10566000000E+00  0.10566000000E+00 0.  1.
     999900   -1    0    0    0    0 -0.00000000000E+00 -0.00000000000E+00 -0.74505805969E-08  0.93827000000E+00  0.93827000000E+00 0.  1.
     999902    2    1    2    0    0 -0.81832956171E-03 -0.22594978989E-01 -0.70546448447E-02  0.10202451789E+01  0.10199702222E+01 0.  0.
     999903    2    3    3    0    0  0.74443837121E-01 -0.59276136101E-01  0.89625312420E-01  0.13100004102E+00  0.85304704114E-02 0.  0.
         14    1    1    2    0    0  0.81832956171E-03  0.22594978989E-01  0.70546448447E-02  0.23684821145E-01  0.00000000000E+00 0. -1.
     999901    1    3    3    0    0 -0.75262166683E-01  0.36681157112E-01 -0.96679957264E-01  0.88924513783E+00  0.88000000000E+00 0.  1.
        -11    1    4    4    0    0  0.33717303507E-01 -0.30859713613E-01  0.39072282803E-01  0.60133874684E-01  0.51100000000E-03 0. -1.
         11    1    4    4    0    0  0.40726533614E-01 -0.28416422488E-01  0.50553029617E-01  0.70866166339E-01  0.51100000000E-03 0.  1.
</event>
<event>
 8    1  0.1128298E+005  0.1043930E+01  0.7957747E-01            NaN
         13   -1    0    0    0    0  0.00000000000E+00  0.00000000000E+00  0.74505805969E-08  0.10566000000E+00  0.10566000000E+00 0. -1.
     999900   -1    0    0    0    0 -0.00000000000E+00 -0.00000000000E+00 -0.74505805969E-08  0.93827000000E+00  0.93827000000E+00 0.  1.
     999902    2    1    2    0    0  0.11447055234E-01  0.21316266198E-01  0.40420179036E-02  0.10193992808E+01  0.10191040857E+01 0.  0.
     999903    2    3    3    0    0  0.11654744847E-01 -0.98290393768E-01 -0.77819420269E-01  0.12754329949E+00  0.20361642629E-01 0.  0.
         14    1    1    2    0    0 -0.11447055234E-01 -0.21316266198E-01 -0.40420179036E-02  0.24530719249E-01  0.00000000000E+00 0.  1.
     999901    1    3    3    0    0 -0.20768961277E-03  0.11960665997E+00  0.81861438172E-01  0.89185598126E+00  0.88000000000E+00 0. -1.
        -11    1    4    4    0    0  0.77303817549E-02 -0.64156034993E-01 -0.38080464757E-01  0.75007589917E-01  0.51100000000E-03 0.  1.
         11    1    4    4    0    0  0.39243630920E-02 -0.34134358775E-01 -0.39738955512E-01  0.52535709577E-01  0.51100000000E-03 0. -1.
</event>
<event>
 8    1  0.1128298E+005  0.1043930E+01  0.7957747E-01            NaN
         13   -1    0    0    0    0  0.00000000000E+00  0.00000000000E+00  0.74505805969E-08  0.10566000000E+00  0.10566000000E+00 0.  1.
     999900   -1    0    0    0    0 -0.00000000000E+00 -0.00000000000E+00 -0.74505805969E-08  0.93827000000E+00  0.93827000000E+00 0.  1.
     999902    2    1    2    0    0  0.17328588437E-01 -0.16337008697E-01 -0.29193176047E-02  0.10199362457E+01  0.10196539830E+01 0.  0.
     999903    2    3    3    0    0  0.10122713458E+00  0.78460373577E-01 -0.16617037585E-01  0.13077195420E+00  0.20547872683E-01 0.  0.
         14    1    1    2    0    0 -0.17328588437E-01  0.16337008697E-01  0.29193176047E-02  0.23993754306E-01  0.00000000000E+00 0.  1.
     999901    1    3    3    0    0 -0.83898546138E-01 -0.94797382275E-01  0.13697719980E-01  0.88916429149E+00  0.88000000000E+00 0. -1.
        -11    1    4    4    0    0  0.46087656788E-01  0.47621262048E-01 -0.43762866076E-02  0.66417390138E-01  0.51100000000E-03 0.  1.
         11    1    4    4    0    0  0.55139477787E-01  0.30839111530E-01 -0.12240750978E-01  0.64354564066E-01  0.51100000000E-03 0. -1.
</event>
<event>
 8    1  0.1128298E+005  0.1043930E+01  0.7957747E-01            NaN
         13   -1    0    0    0    0  0.00000000000E+00  0.00000000000E+00  0.74505805969E-08  0.10566000000E+00  0.10566000000E+00 0. -1.
     999900   -1    0    0    0    0 -0.00000000000E+00 -0.00000000000E+00 -0.74505805969E-08  0.93827000000E+00  0.93827000000E+00 0.  1.
     999902    2    1    2    0    0 -0.15095025844E-01  0.10475379489E-01  0.14559740490E-01  0.10204868896E+01  0.10202175810E+01 0.  0.
     999903    2    3    3    0    0 -0.36866130190E-01 -0.10184680515E+00  0.71358919187E-01  0.13126453226E+00  0.20159335496E-01 0.  0.
         14    1    1    2    0    0  0.15095025844E-01 -0.10475379489E-01 -0.14559740490E-01  0.23443110370E-01  0.00000000000E+00 0.  1.
     999901    1    3    3    0    0  0.21771104346E-01  0.11232218464E+00 -0.56799178697E-01  0.88922235737E+00  0.88000000000E+00 0.  1.
        -11    1    4    4    0    0 -0.28329977227E-02 -0.35386294271E-01  0.22696833679E-01  0.42138142797E-01  0.51100000000E-03 0. -1.
         11    1    4    4    0    0 -0.34033132468E-01 -0.66460510877E-01  0.48662085508E-01  0.89126389463E-01  0.51100000000E-03 0.  1.
</event>
<event>
 8    1  0.1128298E+005  0.1043930E+01  0.7957747E-01            NaN
         13   -1    0    0    0    0  0.00000000000E+00  0.00000000000E+00  0.74505805969E-08  0.10566000000E+00  0.10566000000E+00 0.  1.
     999900   -1    0    0    0    0 -0.00000000000E+00 -0.00000000000E+00 -0.74505805969E-08  0.93827000000E+00  0.93827000000E+00 0.  1.
     999902    2    1    2    0    0  0.15646786550E-01  0.17631487689E-01  0.47947538279E-03  0.10203520191E+01  0.10200795663E+01 0.  0.
     999903    2    3    3    0    0  0.11596249955E+00  0.62977120948E-01  0.54857986829E-03  0.13349268779E+00  0.20163771646E-01 0.  0.
         14    1    1    2    0    0 -0.15646786550E-01 -0.17631487689E-01 -0.47947538279E-03  0.23577980917E-01  0.00000000000E+00 0. -1.
     999901    1    3    3    0    0 -0.10031571300E+00 -0.45345633258E-01 -0.69104485499E-04  0.88685933130E+00  0.88000000000E+00 0. -1.
        -11    1    4    4    0    0  0.47121269038E-01  0.36948967670E-01  0.10576936232E-02  0.59891736027E-01  0.51100000000E-03 0. -1.
         11    1    4    4    0    0  0.68841230516E-01  0.26028153278E-01 -0.50911375491E-03  0.73600951759E-01  0.51100000000E-03 0.  1.
</event>
<event>
 8    1  0.1128298E+005  0.1043930E+01  0.7957747E-01            NaN
         13   -1    0    0    0    0  0.00000000000E+00  0.00000000000E+00  0.74505805969E-08  0.10566000000E+00  0.10566000000E+00 0.  1.
     999900   -1    0    0    0    0 -0.00000000000E+00 -0.00000000000E+00 -0.74505805969E-08  0.93827000000E+00  0.93827000000E+00 0. -1.
     999902    2    1    2    0    0  0.66243613442E-02 -0.12645637539E-01 -0.19663210701E-01  0.10196311077E+01  0.10193415324E+01 0.  0.
     999903    2    3    3    0    0 -0.80916261196E-01 -0.99448359649E-01 -0.19418119079E-01  0.13103776244E+00  0.18878937338E-01 0.  0.
         14    1    1    2    0    0 -0.66243613442E-02  0.12645637539E-01  0.19663210701E-01  0.24298892301E-01  0.00000000000E+00 0.  1.
     999901    1    3    3    0    0  0.87540622540E-01  0.86802722111E-01 -0.24509162213E-03  0.88859334525E+00  0.88000000000E+00 0.  1.
        -11    1    4    4    0    0 -0.56482488223E-01 -0.56981295322E-01 -0.73035184535E-02  0.80565141316E-01  0.51100000000E-03 0.  1.
         11    1    4    4    0    0 -0.24433772973E-01 -0.42467064327E-01 -0.12114600626E-01  0.50472621129E-01  0.51100000000E-03 0. -1.
</event>
<event>
 8    1  0.1128298E+005  0.1043930E+01  0.7957747E-01            NaN
         13   -1    0    0    0    0  0.00000000000E+00  0.00000000000E+00  0.74505805969E-08  0.10566000000E+00  0.10566000000E+00 0. -1.
     999900   -1    0    0    0    0 -0.00000000000E+00 -0.00000000000E+00 -0.74505805969E-08  0.93827000000E+00  0.93827000000E+00 0. -1.
     999902    2    1    2    0    0 -0.58696791450E-02  0.51646691457E-02 -0.22640201786E-01  0.10199778461E+01  0.10196965729E+01 0.  0.
     999903    2    3    3    0    0 -0.14135573990E-01  0.10425725591E+00 -0.78118855204E-01  0.13264163767E+00  0.20539197720E-01 0.  0.
         14    1    1    2    0    0  0.58696791450E-02 -0.51646691457E-02  0.22640201786E-01  0.23952153923E-01  0.00000000000E+00 0. -1.
     999901    1    3    3    0    0  0.82658948450E-02 -0.99092586763E-01  0.55478653418E-01  0.88733620841E+00  0.88000000000E+00 0.  1.
        -11    1    4    4    0    0 -0.15432712740E-01  0.89427633043E-01 -0.74242460697E-01  0.11725047661E+00  0.51100000000E-03 0. -1.
         11    1    4    4    0    0  0.12971387500E-02  0.14829622866E-01 -0.38763945074E-02  0.15391161057E-01  0.51100000000E-03 0.  1.
</event>
<event>
 8    1  0.1128298E+005  0.1043930E+01  0.7957747E-01            NaN
         13   -1    0    0    0    0  0.00000000000E+00  0.00000000000E+00  0.74505805969E-08  0.10566000000E+00  0.10566000000E+00 0.  1.
     999900   -1    0    0    0    0 -0.00000000000E+00 -0.00000000000E+00 -0.74505805969E-08  0.93827000000E+00  0.93827000000E+00 0.  1.
     999902    2    1    2    0    0 -0.16528728670E-01 -0.90821215965E-02 -0.18081113125E-01  0.10178031851E+01  0.10174677947E+01 0.  0.
     999903    2    3    3    0    0  0.88628142236E-01 -0.79938358607E-01 -0.42940918304E-01  0.12836708076E+00  0.19725521149E-01 0.  0.
         14    1    1    2    0    0  0.16528728670E-01  0.90821215965E-02  0.18081113125E-01  0.26126814883E-01  0.00000000000E+00 0.  1.
     999901    1    3    3    0    0 -0.10515687091E+00  0.70856237011E-01  0.24859805180E-01  0.88943610436E+00  0.88000000000E+00 0.  1.
        -11    1    4    4    0    0  0.72581805596E-01 -0.71652956800E-01 -0.41921062123E-01  0.11027194245E+00  0.51100000000E-03 0. -1.
         11    1    4    4    0    0  0.16046336640E-01 -0.82854018073E-02 -0.10198561813E-02  0.18095138306E-01  0.51100000000E-03 0.  1.
</event>
<event>
 8    1  0.1128298E+005  0.1043930E+01  0.7957747E-01            NaN
         13   -1    0    0    0    0  0.00000000000E+00  0.00000000000E+00  0.74505805969E-08  0.10566000000E+00  0.10566000000E+00 0.  1.
     999900   -1    0    0    0    0 -0.00000000000E+00 -0.00000000000E+00 -0.74505805969E-08  0.93827000000E+00  0.93827000000E+00 0.  1.
     999902    2    1    2    0    0 -0.11628582850E-01  0.19460039837E-01  0.70378690315E-02  0.10201929258E+01  0.10199167403E+01 0.  0.
     999903    2    3    3    0    0 -0.11144539970E+00  0.14642895726E-01 -0.65372561652E-01  0.13158172161E+00  0.20141651712E-01 0.  0.
         14    1    1    2    0    0  0.11628582850E-01 -0.19460039837E-01 -0.70378690315E-02  0.23737074168E-01  0.00000000000E+00 0.  1.
     999901    1    3    3    0    0  0.99816816853E-01  0.48171441108E-02  0.72410430684E-01  0.88861120423E+00  0.88000000000E+00 0. -1.
        -11    1    4    4    0    0 -0.78205835224E-01  0.75047463805E-02 -0.55445396107E-01  0.96160942965E-01  0.51100000000E-03 0. -1.
         11    1    4    4    0    0 -0.33239564479E-01  0.71381493456E-02 -0.99271655450E-02  0.35420778642E-01  0.51100000000E-03 0.  1.
</event>
<event>
 8    1  0.1128298E+005  0.1043930E+01  0.7957747E-01            NaN
         13   -1    0    0    0    0  0.00000000000E+00  0.00000000000E+00  0.74505805969E-08  0.10566000000E+00  0.10566000000E+00 0. -1.
     999900   -1    0    0    0    0 -0.00000000000E+00 -0.00000000000E+00 -0.74505805969E-08  0.93827000000E+00  0.93827000000E+00 0.  1.
     999902    2    1    2    0    0  0.11314464127E-01 -0.19750152072E-02  0.21680342224E-01  0.10193952283E+01  0.10190999345E+01 0.  0.
     999903    2    3    3    0    0  0.12468130620E+00  0.29728483860E-01 -0.19505588258E-01  0.13060198260E+00  0.15722563894E-01 0.  0.
         14    1    1    2    0    0 -0.11314464127E-01  0.19750152072E-02 -0.21680342224E-01  0.24534771702E-01  0.00000000000E+00 0.  1.
     999901    1    3    3    0    0 -0.11336684208E+00 -0.31703499067E-01  0.41185930481E-01  0.88879324570E+00  0.88000000000E+00 0. -1.
        -11    1    4    4    0    0  0.60571064193E-01  0.22235672821E-01 -0.77109081762E-02  0.64984599631E-01  0.51100000000E-03 0. -1.
         11    1    4    4    0    0  0.64110242011E-01  0.74928110388E-02 -0.11794680081E-01  0.65617382965E-01  0.51100000000E-03 0.  1.
</event>
<event>
 8    1  0.1128298E+005  0.1043930E+01  0.7957747E-01            NaN
         13   -1    0    0    0    0  0.00000000000E+00  0.00000000000E+00  0.74505805969E-08  0.10566000000E+00  0.10566000000E+00 0.  1.
     999900   -1    0    0    0    0 -0.00000000000E+00 -0.00000000000E+00 -0.74505805969E-08  0.93827000000E+00  0.93827000000E+00 0. -1.
     999902    2    1    2    0    0  0.19887658060E-01  0.97278609714E-03  0.10804130839E-01  0.10212762034E+01  0.10210249209E+01 0.  0.
     999903    2    3    3    0    0  0.26471296267E-01 -0.56112887397E-01 -0.11289282979E+00  0.13076901285E+00  0.22502400893E-01 0.  0.
         14    1    1    2    0    0 -0.19887658060E-01 -0.97278609714E-03 -0.10804130839E-01  0.22653796571E-01  0.00000000000E+00 0. -1.
     999901    1    3    3    0    0 -0.65836382076E-02  0.57085673494E-01  0.12369696062E+00  0.89050719058E+00  0.88000000000E+00 0.  1.
        -11    1    4    4    0    0  0.17805703105E-01 -0.13974590566E-01 -0.32849700953E-01  0.39896067704E-01  0.51100000000E-03 0.  1.
         11    1    4    4    0    0  0.86655931619E-02 -0.42138296831E-01 -0.80043128832E-01  0.90872945143E-01  0.51100000000E-03 0. -1.
</event>
<event>
 7    1  0.1128298E+005  0.1043930E+01  0.7957747E-01            NaN
         13   -1    0    0    0    0  0.00000000000E+00  0.00000000000E+00  0.74505805969E-08  0.10566000000E+00  0.10566000000E+00 0. -1.
     999900   -1    0    0    0    0 -0.00000000000E+00 -0.00000000000E+00 -0.74505805969E-08  0.93827000000E+00  0.93827000000E+00 0.  1.
     999903    2    1    2    0    0  0.10205527143E+00  0.20772084018E-01  0.15928025980E-01  0.10719442640E+00  0.19753104484E-01 0.  0.
         14    1    1    2    0    0  0.40875467266E-01 -0.71493437664E-04 -0.18721641033E-01  0.44958967720E-01  0.00000000000E+00 0.  1.
     999901    1    1    2    0    0 -0.14293073870E+00 -0.20700590581E-01  0.27936150523E-02  0.89177660588E+00  0.88000000000E+00 0. -1.
        -11    1    3    3    0    0  0.39302834265E-02 -0.25124193243E-02  0.28720619219E-02  0.55017487544E-02  0.51100000000E-03 0. -1.
         11    1    3    3    0    0  0.98124988008E-01  0.23284503342E-01  0.13055964059E-01  0.10169267764E+00  0.51100000000E-03 0.  1.
</event>
<event>
 8    1  0.1128298E+005  0.1043930E+01  0.7957747E-01            NaN
         13   -1    0    0    0    0  0.00000000000E+00  0.00000000000E+00  0.74505805969E-08  0.10566000000E+00  0.10566000000E+00 0.  1.
     999900   -1    0    0    0    0 -0.00000000000E+00 -0.00000000000E+00 -0.74505805969E-08  0.93827000000E+00  0.93827000000E+00 0.  1.
     999902    2    1    2    0    0  0.14026823476E-01 -0.16865009099E-01 -0.88592050384E-02  0.10202727427E+01  0.10199984332E+01 0.  0.
     999903    2    3    3    0    0 -0.12633507271E+00 -0.18540880969E-01  0.16243635527E-02  0.12908579506E+00  0.18872971795E-01 0.  0.
         14    1    1    2    0    0 -0.14026823476E-01  0.16865009099E-01  0.88592050384E-02  0.23657257293E-01  0.00000000000E+00 0.  1.
     999901    1    3    3    0    0  0.14036189619E+00  0.16758718708E-02 -0.10483568591E-01  0.89118694765E+00  0.88000000000E+00 0. -1.
        -11    1    4    4    0    0 -0.79613070630E-01 -0.11197635131E-01  0.10112796436E-01  0.81031832143E-01  0.51100000000E-03 0.  1.
         11    1    4    4    0    0 -0.46722002083E-01 -0.73432458383E-02 -0.84884328828E-02  0.48053962916E-01  0.51100000000E-03 0. -1.
</event>
<event>
 8    1  0.1128298E+005  0.1043930E+01  0.7957747E-01            NaN
         13   -1    0    0    0    0  0.00000000000E+00  0.00000000000E+00  0.74505805969E-08  0.10566000000E+00  0.10566000000E+00 0. -1.
     999900   -1    0    0    0    0 -0.00000000000E+00 -0.00000000000E+00 -0.74505805969E-08  0.93827000000E+00  0.93827000000E+00 0.  1.
     999902    2    1    2    0    0 -0.53638205251E-02  0.18549108213E-01 -0.12551962497E-01  0.10208997645E+01  0.10206399646E+01 0.  0.
     999903    2    3    3    0    0 -0.11950568491E+00 -0.93774171183E-02 -0.51929818228E-01  0.13221597844E+00  0.20366989373E-01 0.  0.
         14    1    1    2    0    0  0.53638205251E-02 -0.18549108213E-01  0.12551962497E-01  0.23030235532E-01  0.00000000000E+00 0. -1.
     999901    1    3    3    0    0  0.11414186439E+00  0.27926525331E-01  0.39377855730E-01  0.88868378603E+00  0.88000000000E+00 0.  1.
        -11    1    4    4    0    0 -0.83590077852E-01  0.16965329980E-02 -0.30835208454E-01  0.89113694463E-01  0.51100000000E-03 0. -1.
         11    1    4    4    0    0 -0.35915607061E-01 -0.11073950116E-01 -0.21094609774E-01  0.43102283979E-01  0.51100000000E-03 0.  1.
</event>
<event>
 8    1  0.1128298E+005  0.1043930E+01  0.7957747E-01            NaN
         13   -1    0    0    0    0  0.00000000000E+00  0.00000000000E+00  0.74505805969E-08  0.10566000000E+00  0.10566000000E+00 0. -1.
     999900   -1    0    0    0    0 -0.00000000000E+00 -0.00000000000E+00 -0.74505805969E-08  0.93827000000E+00  0.93827000000E+00 0. -1.
     999902    2    1    2    0    0 -0.23855683461E-02  0.14894824712E-01 -0.18176785102E-01  0.10203091987E+01  0.10200357438E+01 0.  0.
     999903    2    3    3    0    0 -0.11931122459E+00 -0.31898206294E-01  0.34188093225E-01  0.12980188407E+00  0.20664934358E-01 0.  0.
         14    1    1    2    0    0  0.23855683461E-02 -0.14894824712E-01  0.18176785102E-01  0.23620801345E-01  0.00000000000E+00 0. -1.
     999901    1    3    3    0    0  0.11692565625E+00  0.46793031006E-01 -0.52364878328E-01  0.89050731458E+00  0.88000000000E+00 0. -1.
        -11    1    4    4    0    0 -0.13348865447E-01 -0.10082807600E-01  0.76861661741E-02  0.18417206337E-01  0.51100000000E-03 0. -1.
         11    1    4    4    0    0 -0.10596235915E+00 -0.21815398694E-01  0.26501927051E-01  0.11138467774E+00  0.51100000000E-03 0.  1.
</event>
<event>
 8    1  0.1128298E+005  0.1043930E+01  0.7957747E-01            NaN
         13   -1    0    0    0    0  0.00000000000E+00  0.00000000000E+00  0.74505805969E-08  0.10566000000E+00  0.10566000000E+00 0.  1.
     999900   -1    0    0    0    0 -0.00000000000E+00 -0.00000000000E+00 -0.74505805969E-08  0.93827000000E+00  0.93827000000E+00 0.  1.
     999902    2    1    2    0    0  0.27897582962E-02  0.22615567559E-01  0.16940141411E-02  0.10210801350E+01  0.10208244343E+01 0.  0.
     999903    2    3    3    0    0 -0.81669348675E-01 -0.67298121214E-01  0.72351452734E-01  0.12967097763E+00  0.19516918190E-01 0.  0.
         14    1    1    2    0    0 -0.27897582962E-02 -0.22615567559E-01 -0.16940141411E-02  0.22849865017E-01  0.00000000000E+00 0. -1.
     999901    1    3    3    0    0  0.84459106972E-01  0.89913688773E-01 -0.70657438593E-01  0.89140915735E+00  0.88000000000E+00 0.  1.
        -11    1    4    4    0    0 -0.27721122775E-01 -0.12232619509E-01  0.16789166215E-01  0.34644405770E-01  0.51100000000E-03 0. -1.
         11    1    4    4    0    0 -0.53948225900E-01 -0.55065501705E-01  0.55562286519E-01  0.95026571863E-01  0.51100000000E-03 0.  1.
</event>
<event>
 8    1  0.1128298E+005  0.1043930E+01  0.7957747E-01            NaN
         13   -1    0    0    0    0  0.00000000000E+00  0.00000000000E+00  0.74505805969E-08  0.10566000000E+00  0.10566000000E+00 0.  1.
     999900   -1    0    0    0    0 -0.00000000000E+00 -0.00000000000E+00 -0.74505805969E-08  0.93827000000E+00  0.93827000000E+00 0.  1.
     999902    2    1    2    0    0  0.82819699692E-03 -0.15265892978E-01 -0.18253558954E-01  0.10201197960E+01  0.10198418860E+01 0.  0.
     999903    2    3    3    0    0  0.20453513967E-02 -0.37719919435E-02 -0.13126771978E+00  0.13281725925E+00  0.19768629527E-01 0.  0.
         14    1    1    2    0    0 -0.82819699692E-03  0.15265892978E-01  0.18253558954E-01  0.23810203972E-01  0.00000000000E+00 0.  1.
     999901    1    3    3    0    0 -0.12171543998E-02 -0.11493901034E-01  0.11301416082E+00  0.88730253678E+00  0.88000000000E+00 0. -1.
        -11    1    4    4    0    0  0.29117381077E-02 -0.78842166926E-02 -0.12482158620E+00  0.12510527005E+00  0.51100000000E-03 0.  1.
         11    1    4    4    0    0 -0.86638671094E-03  0.41122247491E-02 -0.64461335769E-02  0.77119891994E-02  0.51100000000E-03 0. -1.
</event>
<event>
 8    1  0.1128298E+005  0.1043930E+01  0.7957747E-01            NaN
         13   -1    0    0    0    0  0.00000000000E+00  0.00000000000E+00  0.74505805969E-08  0.10566000000E+00  0.10566000000E+00 0. -1.
     999900   -1    0    0    0    0 -0.00000000000E+00 -0.00000000000E+00 -0.74505805969E-08  0.93827000000E+00  0.93827000000E+00 0. -1.
     999902    2    1    2    0    0  0.19856694984E-01 -0.35621223706E-02  0.73960512342E-02  0.10224432919E+01  0.10222174947E+01 0.  0.
     999903    2    3    3    0    0 -0.48538031011E-01 -0.75413993957E-01 -0.93846409189E-01  0.13110128919E+00  0.18362695055E-01 0.  0.
         14    1    1    2    0    0 -0.19856694984E-01  0.35621223706E-02 -0.73960512342E-02  0.21486708108E-01  0.00000000000E+00 0.  1.
     999901    1    3    3    0    0  0.68394725995E-01  0.71851871587E-01  0.10124246042E+00  0.89134200271E+00  0.88000000000E+00 0.  1.
        -11    1    4    4    0    0 -0.17247818943E-01 -0.14718105084E-01 -0.17325685520E-01  0.28540328928E-01  0.51100000000E-03 0. -1.
         11    1    4    4    0    0 -0.31290212067E-01 -0.60695888873E-01 -0.76520723670E-01  0.10256096026E+00  0.51100000000E-03 0.  1.
</event>
<event>
 8    1  0.1128298E+005  0.1043930E+01  0.7957747E-01            NaN
         13   -1    0    0    0    0  0.00000000000E+00  0.00000000000E+00  0.74505805969E-08  0.10566000000E+00  0.10566000000E+00 0. -1.
     999900   -1    0    0    0    0 -0.00000000000E+00 -0.00000000000E+00 -0.74505805969E-08  0.93827000000E+00  0.93827000000E+00 0. -1.
     999902    2    1    2    0    0  0.91949770470E-02  0.18196781603E-01 -0.94349362228E-02  0.10214647271E+01  0.10212176557E+01 0.  0.
     999903    2    3    3    0    0 -0.54680451163E-01 -0.11308991286E+00  0.20010309789E-01  0.12894957937E+00  0.21173128999E-01 0.  0.
         14    1    1    2    0    0 -0.91949770470E-02 -0.18196781603E-01  0.94349362228E-02  0.22465272870E-01  0.00000000000E+00 0. -1.
     999901    1    3    3    0    0  0.63875428210E-01  0.13128669446E+00 -0.29445246011E-01  0.89251514776E+00  0.88000000000E+00 0. -1.
        -11    1    4    4    0    0 -0.27312498605E-01 -0.60129245951E-01  0.21072216679E-01  0.69323864833E-01  0.51100000000E-03 0. -1.
         11    1    4    4    0    0 -0.27367952558E-01 -0.52960666908E-01 -0.10619068905E-02  0.59625714535E-01  0.51100000000E-03 0.  1.
</event>
<event>
 8    1  0.1128298E+005  0.1043930E+01  0.7957747E-01            NaN
         13   -1    0    0    0    0  0.00000000000E+00  0.00000000000E+00  0.74505805969E-08  0.10566000000E+00  0.10566000000E+00 0. -1.
     999900   -1    0    0    0    0 -0.00000000000E+00 -0.00000000000E+00 -0.74505805969E-08  0.93827000000E+00  0.93827000000E+00 0.  1.
     999902    2    1    2    0    0  0.18643316148E-01 -0.11193892149E-01  0.29613914284E-02  0.10219835584E+01  0.10217478884E+01 0.  0.
     999903    2    3    3    0    0 -0.15987047899E-01  0.51597029051E-01 -0.11763554217E+00  0.13086876095E+00  0.19252862182E-01 0.  0.
         14    1    1    2    0    0 -0.18643316148E-01  0.11193892149E-01 -0.29613914284E-02  0.21946441571E-01  0.00000000000E+00 0. -1.
     999901    1    3    3    0    0  0.34630364047E-01 -0.62790921200E-01  0.12059693360E+00  0.89111479748E+00  0.88000000000E+00 0. -1.
        -11    1    4    4    0    0 -0.17811738794E-01  0.25123658798E-01 -0.63875522653E-01  0.70914030949E-01  0.51100000000E-03 0.  1.
         11    1    4    4    0    0  0.18246908942E-02  0.26473370253E-01 -0.53760019519E-01  0.59954729997E-01  0.51100000000E-03 0. -1.
</event>
<event>
 8    1  0.1128298E+005  0.1043930E+01  0.7957747E-01            NaN
         13   -1    0    0    0    0  0.00000000000E+00  0.00000000000E+00  0.74505805969E-08  0.10566000000E+00  0.10566000000E+00 0.  1.
     999900   -1    0    0    0    0 -0.00000000000E+00 -0.00000000000E+00 -0.74505805969E-08  0.93827000000E+00  0.93827000000E+00 0. -1.
     999902    2    1    2    0    0 -0.11387000910E-01  0.38613192471E-02  0.20928030917E-01  0.10197938020E+01  0.10195081376E+01 0.  0.
     999903    2    3    3    0    0 -0.44628369247E-01  0.11898184388E+00  0.27540906333E-01  0.13164885105E+00  0.20604561298E-01 0.  0.
         14    1    1    2    0    0  0.11387000910E-01 -0.38613192471E-02 -0.20928030917E-01  0.24136198005E-01  0.00000000000E+00 0. -1.
     999901    1    3    3    0    0  0.33241368337E-01 -0.11512052464E+00 -0.66128754156E-02  0.88814495094E+00  0.88000000000E+00 0.  1.
        -11    1    4    4    0    0 -0.27042700398E-01  0.64444308981E-01  0.25205208281E-01  0.74296300381E-01  0.51100000000E-03 0.  1.
         11    1    4    4    0    0 -0.17585668849E-01  0.54537534904E-01  0.23356980516E-02  0.57352550672E-01  0.51100000000E-03 0. -1.
</event>
<event>
 7    1  0.1128298E+005  0.1043930E+01  0.7957747E-01            NaN
         13   -1    0    0    0    0  0.00000000000E+00  0.00000000000E+00  0.74505805969E-08  0.10566000000E+00  0.10566000000E+00 0. -1.
     999900   -1    0    0    0    0 -0.00000000000E+00 -0.00000000000E+00 -0.74505805969E-08  0.93827000000E+00  0.93827000000E+00 0.  1.
     999903    2    1    2    0    0 -0.51883978889E-01 -0.95042494596E-01  0.40346319155E-01  0.11781085453E+00  0.22946654046E-01 0.  0.
         14    1    1    2    0    0 -0.26589101660E-01  0.12661140960E-01 -0.25050576087E-01  0.38662852711E-01  0.00000000000E+00 0.  1.
     999901    1    1    2    0    0  0.78473080549E-01  0.82381353635E-01 -0.15295743069E-01  0.88745629276E+00  0.88000000000E+00 0.  1.
        -11    1    3    3    0    0 -0.23599883767E-01 -0.61653694193E-01  0.31569096933E-01  0.73177875916E-01  0.51100000000E-03 0. -1.
         11    1    3    3    0    0 -0.28284095122E-01 -0.33388800402E-01  0.87772222227E-02  0.44632978616E-01  0.51100000000E-03 0.  1.
</event>
<event>
 8    1  0.1128298E+005  0.1043930E+01  0.7957747E-01            NaN
         13   -1    0    0    0    0  0.00000000000E+00  0.00000000000E+00  0.74505805969E-08  0.10566000000E+00  0.10566000000E+00 0. -1.
     999900   -1    0    0    0    0 -0.00000000000E+00 -0.00000000000E+00 -0.74505805969E-08  0.93827000000E+00  0.93827000000E+00 0.  1.
     999902    2    1    2    0    0  0.25971225222E-02 -0.20588085265E-01  0.11002003680E-01  0.10204425909E+01  0.10201722516E+01 0.  0.
     999903    2    3    3    0    0 -0.62634108676E-01 -0.53886678159E-01 -0.97186974680E-01  0.13079728809E+00  0.28910497598E-01 0.  0.
         14    1    1    2    0    0 -0.25971225222E-02  0.20588085265E-01 -0.11002003680E-01  0.23487409079E-01  0.00000000000E+00 0.  1.
     999901    1    3    3    0    0  0.65231231198E-01  0.33298592894E-01  0.10818897836E+00  0.88964530283E+00  0.88000000000E+00 0. -1.
        -11    1    4    4    0    0 -0.10979219943E-01  0.13597625326E-02 -0.19147678541E-01  0.22119831356E-01  0.51100000000E-03 0. -1.
         11    1    4    4    0    0 -0.51654888733E-01 -0.55246440692E-01 -0.78039296139E-01  0.10867745673E+00  0.51100000000E-03 0.  1.
</event>
<event>
 8    1  0.1128298E+005  0.1043930E+01  0.7957747E-01            NaN
         13   -1    0    0    0    0  0.00000000000E+00  0.00000000000E+00  0.74505805969E-08  0.10566000000E+00  0.10566000000E+00 0. -1.
     999900   -1    0    0    0    0 -0.00000000000E+00 -0.00000000000E+00 -0.74505805969E-08  0.93827000000E+00  0.93827000000E+00 0. -1.
     999902    2    1    2    0    0  0.15060322376E-01  0.52526516772E-02 -0.17460615279E-01  0.10202809673E+01  0.10200068507E+01 0.  0.
     999903    2    3    3    0    0  0.29922390021E-01 -0.53797201356E-01  0.11146840439E+00  0.12880440662E+00  0.19387668535E-01 0.  0.
         14    1    1    2    0    0 -0.15060322376E-01 -0.52526516772E-02  0.17460615279E-01  0.23649032657E-01  0.00000000000E+00 0.  1.
     999901    1    3    3    0    0 -0.14862067645E-01  0.59049853033E-01 -0.12892901967E+00  0.89147656072E+00  0.88000000000E+00 0. -1.
        -11    1    4    4    0    0  0.72329462089E-02 -0.32862766785E-01  0.56968659276E-01  0.66166201435E-01  0.51100000000E-03 0. -1.
         11    1    4    4    0    0  0.22689443812E-01 -0.20934434571E-01  0.54499745111E-01  0.62638205190E-01  0.51100000000E-03 0.  1.
</event>
<event>
 8    1  0.1128298E+005  0.1043930E+01  0.7957747E-01            NaN
         13   -1    0    0    0    0  0.00000000000E+00  0.00000000000E+00  0.74505805969E-08  0.10566000000E+00  0.10566000000E+00 0.  1.
     999900   -1    0    0    0    0 -0.00000000000E+00 -0.00000000000E+00 -0.74505805969E-08  0.93827000000E+00  0.93827000000E+00 0.  1.
     999902    2    1    2    0    0  0.78225443289E-03 -0.15651149059E-01 -0.17816939894E-01  0.10202020895E+01  0.10199261197E+01 0.  0.
     999903    2    3    3    0    0  0.53788850366E-01  0.70170361209E-01 -0.94263088889E-01  0.13114694807E+00  0.22290626827E-01 0.  0.
         14    1    1    2    0    0 -0.78225443289E-03  0.15651149059E-01  0.17816939894E-01  0.23727910486E-01  0.00000000000E+00 0.  1.
     999901    1    3    3    0    0 -0.53006595933E-01 -0.85821510268E-01  0.76446148995E-01  0.88905514145E+00  0.88000000000E+00 0. -1.
        -11    1    4    4    0    0  0.37614202895E-01  0.55413495512E-01 -0.82576275928E-01  0.10632302766E+00  0.51100000000E-03 0.  1.
         11    1    4    4    0    0  0.16174647471E-01  0.14756865697E-01 -0.11686812961E-01  0.24823920403E-01  0.51100000000E-03 0. -1.
</event>
<event>
 8    1  0.1128298E+005  0.1043930E+01  0.7957747E-01            NaN
         13   -1    0    0    0    0  0.00000000000E+00  0.00000000000E+00  0.74505805969E-08  0.10566000000E+00  0.10566000000E+00 0.  1.
     999900   -1    0    0    0    0 -0.00000000000E+00 -0.00000000000E+00 -0.74505805969E-08  0.93827000000E+00  0.93827000000E+00 0.  1.
     999902    2    1    2    0    0  0.14913358910E-01  0.68127480750E-03  0.19457165604E-01  0.10194054469E+01  0.10191104020E+01 0.  0.
     999903    2    3    3    0    0  0.99381156036E-01 -0.51549530528E-01 -0.62731633772E-01  0.13001359600E+00  0.20840081496E-01 0.  0.
         14    1    1    2    0    0 -0.14913358910E-01 -0.68127480750E-03 -0.19457165604E-01  0.24524553058E-01  0.00000000000E+00 0.  1.
     999901    1    3    3    0    0 -0.84467797126E-01  0.52230805336E-01  0.82188799376E-01  0.88939185094E+00  0.88000000000E+00 0. -1.
        -11    1    4    4    0    0  0.39293097050E-01 -0.19204024540E-01 -0.13187434425E-01  0.45682727393E-01  0.51100000000E-03 0.  1.
         11    1    4    4    0    0  0.60088058986E-01 -0.32345505988E-01 -0.49544199347E-01  0.84330868609E-01  0.51100000000E-03 0. -1.
</event>
<event>
 8    1  0.1128298E+005  0.1043930E+01  0.7957747E-01            NaN
         13   -1    0    0    0    0  0.00000000000E+00  0.00000000000E+00  0.74505805969E-08  0.10566000000E+00  0.10566000000E+00 0.  1.
     999900   -1    0    0    0    0 -0.00000000000E+00 -0.00000000000E+00 -0.74505805969E-08  0.93827000000E+00  0.93827000000E+00 0.  1.
     999902    2    1    2    0    0  0.23267872322E-01 -0.12985364998E-02  0.35399979426E-02  0.10203585837E+01  0.10200862845E+01 0.  0.
     999903    2    3    3    0    0 -0.74958207443E-01  0.89322517334E-01  0.51210730753E-01  0.12899275709E+00  0.20477975259E-01 0.  0.
         14    1    1    2    0    0 -0.23267872322E-01  0.12985364998E-02 -0.35399979426E-02  0.23571416268E-01  0.00000000000E+00 0. -1.
     999901    1    3    3    0    0  0.98226079765E-01 -0.90621053833E-01 -0.47670732810E-01  0.89136582665E+00  0.88000000000E+00 0.  1.
        -11    1    4    4    0    0 -0.14946380190E-01  0.32293763833E-01  0.14471633761E-01  0.38418364984E-01  0.51100000000E-03 0.  1.
         11    1    4    4    0    0 -0.60011827253E-01  0.57028753500E-01  0.36739096992E-01  0.90574392103E-01  0.51100000000E-03 0. -1.
</event>
<event>
 8    1  0.1128298E+005  0.1043930E+01  0.7957747E-01            NaN
         13   -1    0    0    0    0  0.00000000000E+00  0.00000000000E+00  0.74505805969E-08  0.10566000000E+00  0.10566000000E+00 0. -1.
     999900   -1    0    0    0    0 -0.00000000000E+00 -0.00000000000E+00 -0.74505805969E-08  0.93827000000E+00  0.93827000000E+00 0.  1.
     999902    2    1    2    0    0  0.63825030692E-02  0.22259708194E-01 -0.42188223481E-02  0.10203921705E+01  0.10201206557E+01 0.  0.
     999903    2    3    3    0    0  0.96841755102E-01  0.29231555623E-01  0.81684587942E-01  0.13156660899E+00  0.20114455485E-01 0.  0.
         14    1    1    2    0    0 -0.63825030692E-02 -0.22259708194E-01  0.42188223481E-02  0.23537829473E-01  0.00000000000E+00 0. -1.
     999901    1    3    3    0    0 -0.90459252033E-01 -0.69718474296E-02 -0.85903410290E-01  0.88882556153E+00  0.88000000000E+00 0.  1.
        -11    1    4    4    0    0  0.79381539949E-01  0.15745599397E-01  0.61304005727E-01  0.10152731172E+00  0.51100000000E-03 0. -1.
         11    1    4    4    0    0  0.17460215153E-01  0.13485956227E-01  0.20380582215E-01  0.30039297279E-01  0.51100000000E-03 0.  1.
</event>
<event>
 8    1  0.1128298E+005  0.1043930E+01  0.7957747E-01            NaN
         13   -1    0    0    0    0  0.00000000000E+00  0.00000000000E+00  0.74505805969E-08  0.10566000000E+00  0.10566000000E+00 0. -1.
     999900   -1    0    0    0    0 -0.00000000000E+00 -0.00000000000E+00 -0.74505805969E-08  0.93827000000E+00  0.93827000000E+00 0. -1.
     999902    2    1    2    0    0  0.19039491524E-01 -0.82728835117E-02  0.16404745270E-01  0.10174713812E+01  0.10171273043E+01 0.  0.
     999903    2    3    3    0    0  0.39592114758E-01 -0.41013281906E-01  0.11605099693E+00  0.13100439400E+00  0.21087733746E-01 0.  0.
         14    1    1    2    0    0 -0.19039491524E-01  0.82728835117E-02 -0.16404745270E-01  0.26458618756E-01  0.00000000000E+00 0.  1.
     999901    1    3    3    0    0 -0.20552623235E-01  0.32740398394E-01 -0.99646251660E-01  0.88646698725E+00  0.88000000000E+00 0. -1.
        -11    1    4    4    0    0  0.25146445293E-01 -0.18683329351E-01  0.42571318696E-01  0.52858195230E-01  0.51100000000E-03 0.  1.
         11    1    4    4    0    0  0.14445669466E-01 -0.22329952555E-01  0.73479678234E-01  0.78146198767E-01  0.51100000000E-03 0. -1.
</event>
<event>
 8    1  0.1128298E+005  0.1043930E+01  0.7957747E-01            NaN
         13   -1    0    0    0    0  0.00000000000E+00  0.00000000000E+00  0.74505805969E-08  0.10566000000E+00  0.10566000000E+00 0.  1.
     999900   -1    0    0    0    0 -0.00000000000E+00 -0.00000000000E+00 -0.74505805969E-08  0.93827000000E+00  0.93827000000E+00 0.  1.
     999902    2    1    2    0    0 -0.14840384286E-01 -0.17706437889E-01  0.18261772219E-02  0.10207548005E+01  0.10204916819E+01 0.  0.
     999903    2    3    3    0    0  0.90216357688E-01 -0.92211124498E-01  0.14853690752E-01  0.13128440557E+00  0.19315287733E-01 0.  0.
         14    1    1    2    0    0  0.14840384286E-01  0.17706437889E-01 -0.18261772219E-02  0.23175199496E-01  0.00000000000E+00 0.  1.
     999901    1    3    3    0    0 -0.10505674197E+00  0.74504686609E-01 -0.13027513530E-01  0.88947039494E+00  0.88000000000E+00 0.  1.
        -11    1    4    4    0    0  0.73095056564E-01 -0.63886743696E-01  0.14670858642E-01  0.98182984923E-01  0.51100000000E-03 0.  1.
         11    1    4    4    0    0  0.17121301124E-01 -0.28324380802E-01  0.18283211050E-03  0.33101420643E-01  0.51100000000E-03 0. -1.
</event>
<event>
 8    1  0.1128298E+005  0.1043930E+01  0.7957747E-01            NaN
         13   -1    0    0    0    0  0.00000000000E+00  0.00000000000E+00  0.74505805969E-08  0.10566000000E+00  0.10566000000E+00 0.  1.
     999900   -1    0    0    0    0 -0.00000000000E+00 -0.00000000000E+00 -0.74505805969E-08  0.93827000000E+00  0.93827000000E+00 0.  1.
     999902    2    1    2    0    0  0.15647968952E-01  0.10374194676E-01 -0.13830095869E-01  0.10206114580E+01  0.10203450367E+01 0.  0.
     999903    2    3    3    0    0  0.10149410434E+00  0.84267269603E-01 -0.73091726335E-02  0.13332781234E+00  0.17912442482E-01 0.  0.
         14    1    1    2    0    0 -0.15647968952E-01 -0.10374194676E-01  0.13830095869E-01  0.23318541962E-01  0.00000000000E+00 0. -1.
     999901    1    3    3    0    0 -0.85846135393E-01 -0.73893074927E-01 -0.65209232356E-02  0.88728364570E+00  0.88000000000E+00 0. -1.
        -11    1    4    4    0    0  0.80638938759E-01  0.72193621162E-01 -0.33417857373E-03  0.10823553103E+00  0.51100000000E-03 0. -1.
         11    1    4    4    0    0  0.20855165585E-01  0.12073648441E-01 -0.69749940597E-02  0.25092281311E-01  0.51100000000E-03 0.  1.
</event>
<event>
 8    1  0.1128298E+005  0.1043930E+01  0.7957747E-01            NaN
         13   -1    0    0    0    0  0.00000000000E+00  0.00000000000E+00  0.74505805969E-08  0.10566000000E+00  0.10566000000E+00 0. -1.
     999900   -1    0    0    0    0 -0.00000000000E+00 -0.00000000000E+00 -0.74505805969E-08  0.93827000000E+00  0.93827000000E+00 0.  1.
     999902    2    1    2    0    0 -0.76853965907E-02  0.17659546875E-01 -0.14254205889E-01  0.10199694637E+01  0.10196879912E+01 0.  0.
     999903    2    3    3    0    0  0.68092698127E-01  0.53587190327E-01  0.94003538323E-01  0.12937816884E+00  0.19845474322E-01 0.  0.
         14    1    1    2    0    0  0.76853965907E-02 -0.17659546875E-01  0.14254205889E-01  0.23960536349E-01  0.00000000000E+00 0. -1.
     999901    1    3    3    0    0 -0.75778094718E-01 -0.35927643451E-01 -0.10825774421E+00  0.89059129481E+00  0.88000000000E+00 0. -1.
        -11    1    4    4    0    0  0.15159343204E-01  0.18096323989E-01  0.36887030414E-01  0.43797223223E-01  0.51100000000E-03 0. -1.
         11    1    4    4    0    0  0.52933354923E-01  0.35490866338E-01  0.57116507909E-01  0.85580945622E-01  0.51100000000E-03 0.  1.
</event>
<event>
 8    1  0.1128298E+005  0.1043930E+01  0.7957747E-01            NaN
         13   -1    0    0    0    0  0.00000000000E+00  0.00000000000E+00  0.74505805969E-08  0.10566000000E+00  0.10566000000E+00 0.  1.
     999900   -1    0    0    0    0 -0.00000000000E+00 -0.00000000000E+00 -0.74505805969E-08  0.93827000000E+00  0.93827000000E+00 0.  1.
     999902    2    1    2    0    0 -0.84679970804E-02 -0.21721375783E-01  0.10495725305E-02  0.10205927606E+01  0.10203259069E+01 0.  0.
     999903    2    3    3    0    0 -0.12409626594E+00 -0.18423165519E-01  0.36764551736E-01  0.13230433081E+00  0.20334882323E-01 0.  0.
         14    1    1    2    0    0  0.84679970804E-02  0.21721375783E-01 -0.10495725305E-02  0.23337239403E-01  0.00000000000E+00 0. -1.
     999901    1    3    3    0    0  0.11562826886E+00 -0.32982102639E-02 -0.35714979206E-01  0.88828842979E+00  0.88000000000E+00 0. -1.
        -11    1    4    4    0    0 -0.62197706725E-01 -0.12206754684E-04  0.22679682630E-01  0.66205619067E-01  0.51100000000E-03 0.  1.
         11    1    4    4    0    0 -0.61898559215E-01 -0.18410958764E-01  0.14084869106E-01  0.66098711744E-01  0.51100000000E-03 0. -1.
</event>
<event>
 8    1  0.1128298E+005  0.1043930E+01  0.7957747E-01            NaN
         13   -1    0    0    0    0  0.00000000000E+00  0.00000000000E+00  0.74505805969E-08  0.10566000000E+00  0.10566000000E+00 0.  1.
     999900   -1    0    0    0    0 -0.00000000000E+00 -0.00000000000E+00 -0.74505805969E-08  0.93827000000E+00  0.93827000000E+00 0. -1.
     999902    2    1    2    0    0  0.32682719230E-02  0.10159172676E-01 -0.20981769566E-01  0.10203901392E+01  0.10201185770E+01 0.  0.
     999903    2    3    3    0    0  0.20011643593E-01  0.16525201447E-01 -0.12955357137E+00  0.13353688025E+00  0.19349996676E-01 0.  0.
         14    1    1    2    0    0 -0.32682719230E-02 -0.10159172676E-01  0.20981769566E-01  0.23539860767E-01  0.00000000000E+00 0.  1.
     999901    1    3    3    0    0 -0.16743371670E-01 -0.63660287715E-02  0.10857180180E+00  0.88685325898E+00  0.88000000000E+00 0.  1.
        -11    1    4    4    0    0 -0.14039795253E-02  0.81937419798E-02 -0.21308763451E-01  0.22878660078E-01  0.51100000000E-03 0.  1.
         11    1    4    4    0    0  0.21415623119E-01  0.83314594675E-02 -0.10824480792E+00  0.11065822017E+00  0.51100000000E-03 0. -1.
</event>
<event>
 8    1  0.1128298E+005  0.1043930E+01  0.7957747E-01            NaN
         13   -1    0    0    0    0  0.00000000000E+00  0.00000000000E+00  0.74505805969E-08  0.10566000000E+00  0.10566000000E+00 0. -1.
     999900   -1    0    0    0    0 -0.00000000000E+00 -0.00000000000E+00 -0.74505805969E-08  0.93827000000E+00  0.93827000000E+00 0.  1.
     999902    2    1    2    0    0 -0.13163328692E-01  0.19919048470E-01  0.25928112548E-02  0.10199140806E+01  0.10196312899E+01 0.  0.
     999903    2    3    3    0    0 -0.26175501724E-01  0.74566527011E-01  0.10451557231E+00  0.13225203186E+00  0.17937983015E-01 0.  0.
         14    1    1    2    0    0  0.13163328692E-01 -0.19919048470E-01 -0.25928112548E-02  0.24015919395E-01  0.00000000000E+00 0. -1.
     999901    1    3    3    0    0  0.13012173032E-01 -0.54647478541E-01 -0.10192276106E+00  0.88766204874E+00  0.88000000000E+00 0.  1.
        -11    1    4    4    0    0 -0.78059421017E-02  0.84511927132E-02  0.22814575550E-01  0.25556239334E-01  0.51100000000E-03 0.  1.
         11    1    4    4    0    0 -0.18369559622E-01  0.66115334298E-01  0.81700996762E-01  0.10669579253E+00  0.51100000000E-03 0. -1.
</event>
<event>
 7    1  0.1128298E+005  0.1043930E+01  0.7957747E-01            NaN
         13   -1    0    0    0    0  0.00000000000E+00  0.00000000000E+00  0.74505805969E-08  0.10566000000E+00  0.10566000000E+00 0.  1.
     999900   -1    0    0    0    0 -0.00000000000E+00 -0.00000000000E+00 -0.74505805969E-08  0.93827000000E+00  0.93827000000E+00 0.  1.
     999903    2    1    2    0    0 -0.13093071629E-03  0.84147935863E-01  0.11619149758E-01  0.88019584896E-01  0.23055377492E-01 0.  0.
         14    1    1    2    0    0 -0.17833608482E-01  0.31900475618E-01 -0.56147086272E-01  0.66993829813E-01  0.00000000000E+00 0. -1.
     999901    1    1    2    0    0  0.17964539198E-01 -0.11604841148E+00  0.44527936514E-01  0.88891658529E+00  0.88000000000E+00 0. -1.
        -11    1    3    3    0    0  0.74282287954E-02  0.35046659847E-01 -0.37242693518E-02  0.36021913506E-01  0.51100000000E-03 0.  1.
         11    1    3    3    0    0 -0.75591595117E-02  0.49101276016E-01  0.15343419110E-01  0.51997671389E-01  0.51100000000E-03 0. -1.
</event>
<event>
 8    1  0.1128298E+005  0.1043930E+01  0.7957747E-01            NaN
         13   -1    0    0    0    0  0.00000000000E+00  0.00000000000E+00  0.74505805969E-08  0.10566000000E+00  0.10566000000E+00 0. -1.
     999900   -1    0    0    0    0 -0.00000000000E+00 -0.00000000000E+00 -0.74505805969E-08  0.93827000000E+00  0.93827000000E+00 0.  1.
     999902    2    1    2    0    0 -0.12376013887E-01 -0.20011893351E-01  0.25999823824E-02  0.10202571991E+01  0.10199825247E+01 0.  0.
     999903    2    3    3    0    0 -0.30528979031E-01  0.77378584536E-01 -0.96698619639E-01  0.12914853696E+00  0.20230117506E-01 0.  0.
         14    1    1    2    0    0  0.12376013887E-01  0.20011893351E-01 -0.25999823824E-02  0.23672800924E-01  0.00000000000E+00 0. -1.
     999901    1    3    3    0    0  0.18152965144E-01 -0.97390477887E-01  0.99298602022E-01  0.89110866211E+00  0.88000000000E+00 0.  1.
        -11    1    4    4    0    0 -0.58217875642E-02  0.25057274891E-01 -0.43535052340E-01  0.50569972697E-01  0.51100000000E-03 0.  1.
         11    1    4    4    0    0 -0.24707191467E-01  0.52321309645E-01 -0.53163567300E-01  0.78578564267E-01  0.51100000000E-03 0. -1.
</event>
<event>
 8    1  0.1128298E+005  0.1043930E+01  0.7957747E-01            NaN
         13   -1    0    0    0    0  0.00000000000E+00  0.00000000000E+00  0.74505805969E-08  0.10566000000E+00  0.10566000000E+00 0.  1.
     999900   -1    0    0    0    0 -0.00000000000E+00 -0.00000000000E+00 -0.74505805969E-08  0.93827000000E+00  0.93827000000E+00 0. -1.
     999902    2    1    2    0    0 -0.82257068037E-03  0.20272287269E-01 -0.14713726792E-01  0.10188673583E+01  0.10185590595E+01 0.  0.
     999903    2    3    3    0    0  0.22545710966E-01 -0.11073530668E+00  0.52703975336E-01  0.12631247884E+00  0.20162243596E-01 0.  0.
         14    1    1    2    0    0  0.82257068037E-03 -0.20272287269E-01  0.14713726792E-01  0.25062641715E-01  0.00000000000E+00 0.  1.
     999901    1    3    3    0    0 -0.23368281647E-01  0.13100759395E+00 -0.67417702128E-01  0.89255487944E+00  0.88000000000E+00 0. -1.
        -11    1    4    4    0    0  0.85338360073E-02 -0.47542916770E-01  0.11744937748E-01  0.49712774773E-01  0.51100000000E-03 0.  1.
         11    1    4    4    0    0  0.14011874959E-01 -0.63192389907E-01  0.40959037588E-01  0.76599704067E-01  0.51100000000E-03 0. -1.
</event>
<event>
 8    1  0.1128298E+005  0.1043930E+01  0.7957747E-01            NaN
         13   -1    0    0    0    0  0.00000000000E+00  0.00000000000E+00  0.74505805969E-08  0.10566000000E+00  0.10566000000E+00 0.  1.
     999900   -1    0    0    0    0 -0.00000000000E+00 -0.00000000000E+00 -0.74505805969E-08  0.93827000000E+00  0.93827000000E+00 0.  1.
     999902    2    1    2    0    0  0.17381368719E-01 -0.10797781768E-01  0.10927279265E-01  0.10207328126E+01  0.10204691888E+01 0.  0.
     999903    2    3    3    0    0 -0.61109154712E-01  0.95241625566E-01 -0.56603682144E-01  0.12833965436E+00  0.21489393195E-01 0.  0.
         14    1    1    2    0    0 -0.17381368719E-01  0.10797781768E-01 -0.10927279265E-01  0.23197187368E-01  0.00000000000E+00 0.  1.
     999901    1    3    3    0    0  0.78490523430E-01 -0.10603940733E+00  0.67530961409E-01  0.89239315827E+00  0.88000000000E+00 0.  1.
        -11    1    4    4    0    0 -0.47104857436E-01  0.77699777503E-01 -0.35584235459E-01  0.97583922612E-01  0.51100000000E-03 0.  1.
         11    1    4    4    0    0 -0.14004297276E-01  0.17541848063E-01 -0.21019446685E-01  0.30755731752E-01  0.51100000000E-03 0. -1.
</event>
<event>
 8    1  0.1128298E+005  0.1043930E+01  0.7957747E-01            NaN
         13   -1    0    0    0    0  0.00000000000E+00  0.00000000000E+00  0.74505805969E-08  0.10566000000E+00  0.10566000000E+00 0.  1.
     999900   -1    0    0    0    0 -0.00000000000E+00 -0.00000000000E+00 -0.74505805969E-08  0.93827000000E+00  0.93827000000E+00 0.  1.
     999902    2    1    2    0    0 -0.20329098513E-01 -0.88227483648E-02  0.87842223405E-02  0.10200914661E+01  0.10198128865E+01 0.  0.
     999903    2    3    3    0    0  0.27380345816E-01  0.70836181494E-01 -0.10152364933E+00  0.12835744595E+00  0.20028345236E-01 0.  0.
         14    1    1    2    0    0  0.20329098513E-01  0.88227483648E-02 -0.87842223405E-02  0.23838533873E-01  0.00000000000E+00 0. -1.
     999901    1    3    3    0    0 -0.47709444329E-01 -0.79658929859E-01  0.11030787167E+00  0.89173402017E+00  0.88000000000E+00 0. -1.
        -11    1    4    4    0    0  0.88770779295E-02  0.49041248498E-01 -0.61282954636E-01  0.78991823734E-01  0.51100000000E-03 0. -1.
         11    1    4    4    0    0  0.18503267886E-01  0.21794932996E-01 -0.40240694692E-01  0.49365622219E-01  0.51100000000E-03 0.  1.
</event>
<event>
 8    1  0.1128298E+005  0.1043930E+01  0.7957747E-01            NaN
         13   -1    0    0    0    0  0.00000000000E+00  0.00000000000E+00  0.74505805969E-08  0.10566000000E+00  0.10566000000E+00 0. -1.
     999900   -1    0    0    0    0 -0.00000000000E+00 -0.00000000000E+00 -0.74505805969E-08  0.93827000000E+00  0.93827000000E+00 0.  1.
     999902    2    1    2    0    0  0.20880631303E-01  0.17667464436E-02 -0.10471048074E-01  0.10205042662E+01  0.10202353612E+01 0.  0.
     999903    2    3    3    0    0  0.10194359348E+00 -0.30919995300E-01  0.75493794158E-01  0.13200576815E+00  0.19433669423E-01 0.  0.
         14    1    1    2    0    0 -0.20880631303E-01 -0.17667464436E-02  0.10471048074E-01  0.23425733807E-01  0.00000000000E+00 0. -1.
     999901    1    3    3    0    0 -0.81062962180E-01  0.32686741744E-01 -0.85964842232E-01  0.88849849804E+00  0.88000000000E+00 0.  1.
        -11    1    4    4    0    0  0.10016972925E-01 -0.12055714328E-02  0.12851155115E-02  0.10183604074E-01  0.51100000000E-03 0. -1.
         11    1    4    4    0    0  0.91926620558E-01 -0.29714423867E-01  0.74208678647E-01  0.12182216408E+00  0.51100000000E-03 0.  1.
</event>
<event>
 8    1  0.1128298E+005  0.1043930E+01  0.7957747E-01            NaN
         13   -1    0    0    0    0  0.00000000000E+00  0.00000000000E+00  0.74505805969E-08  0.10566000000E+00  0.10566000000E+00 0.  1.
     999900   -1    0    0    0    0 -0.00000000000E+00 -0.00000000000E+00 -0.74505805969E-08  0.93827000000E+00  0.93827000000E+00 0. -1.
     999902    2    1    2    0    0 -0.20283856947E-01 -0.10334637428E-01  0.44767563345E-02  0.10207291179E+01  0.10204654091E+01 0.  0.
     999903    2    3    3    0    0 -0.46336380444E-02  0.24422242614E-01  0.12747555202E+00  0.13135761295E+00  0.19669508936E-01 0.  0.
         14    1    1    2    0    0  0.20283856947E-01  0.10334637428E-01 -0.44767563345E-02  0.23200882110E-01  0.00000000000E+00 0. -1.
     999901    1    3    3    0    0 -0.15650218903E-01 -0.34756880041E-01 -0.12299879568E+00  0.88937150494E+00  0.88000000000E+00 0. -1.
        -11    1    4    4    0    0 -0.11207615729E-01  0.94560029392E-02  0.46998889097E-01  0.49235996377E-01  0.51100000000E-03 0. -1.
         11    1    4    4    0    0  0.65739776843E-02  0.14966239675E-01  0.80476662920E-01  0.82121616572E-01  0.51100000000E-03 0.  1.
</event>
<event>
 8    1  0.1128298E+005  0.1043930E+01  0.7957747E-01            NaN
         13   -1    0    0    0    0  0.00000000000E+00  0.00000000000E+00  0.74505805969E-08  0.10566000000E+00  0.10566000000E+00 0. -1.
     999900   -1    0    0    0    0 -0.00000000000E+00 -0.00000000000E+00 -0.74505805969E-08  0.93827000000E+00  0.93827000000E+00 0. -1.
     999902    2    1    2    0    0 -0.23487455732E-02  0.15080781974E-01  0.18103610240E-01  0.10202511636E+01  0.10199763475E+01 0.  0.
     999903    2    3    3    0    0 -0.54690591347E-01 -0.27450301992E-01 -0.11147628564E+00  0.12820883760E+00  0.16308400158E-01 0.  0.
         14    1    1    2    0    0  0.23487455732E-02 -0.15080781974E-01 -0.18103610240E-01  0.23678836425E-01  0.00000000000E+00 0. -1.
     999901    1    3    3    0    0  0.52341845774E-01  0.42531083966E-01  0.12957989588E+00  0.89204232598E+00  0.88000000000E+00 0. -1.
        -11    1    4    4    0    0 -0.43835956833E-01 -0.20302663099E-01 -0.72523291068E-01  0.87141712794E-01  0.51100000000E-03 0.  1.
         11    1    4    4    0    0 -0.10854634515E-01 -0.71476388933E-02 -0.38952994574E-01  0.41067124802E-01  0.51100000000E-03 0. -1.
</event>
<event>
 8    1  0.1128298E+005  0.1043930E+01  0.7957747E-01            NaN
         13   -1    0    0    0    0  0.00000000000E+00  0.00000000000E+00  0.74505805969E-08  0.10566000000E+00  0.10566000000E+00 0.  1.
     999900   -1    0    0    0    0 -0.00000000000E+00 -0.00000000000E+00 -0.74505805969E-08  0.93827000000E+00  0.93827000000E+00 0. -1.
     999902    2    1    2    0    0 -0.49672791377E-02  0.22014791384E-01 -0.68812065845E-02  0.10203360197E+01  0.10200631928E+01 0.  0.
     999903    2    3    3    0    0  0.23228739069E-01 -0.99655552456E-01 -0.75813162325E-01  0.12884832909E+00  0.19581952741E-01 0.  0.
         14    1    1    2    0    0  0.49672791377E-02 -0.22014791384E-01  0.68812065845E-02  0.23593980287E-01  0.00000000000E+00 0. -1.
     999901    1    3    3    0    0 -0.28196018207E-01  0.12167034384E+00  0.68931955740E-01  0.89148769062E+00  0.88000000000E+00 0.  1.
        -11    1    4    4    0    0 -0.31890324883E-02 -0.17322000907E-01 -0.14929606442E-01  0.23094932630E-01  0.51100000000E-03 0. -1.
         11    1    4    4    0    0  0.26417771558E-01 -0.82333551549E-01 -0.60883555882E-01  0.10575339646E+00  0.51100000000E-03 0.  1.
</event>
<event>
 8    1  0.1128298E+005  0.1043930E+01  0.7957747E-01            NaN
         13   -1    0    0    0    0  0.00000000000E+00  0.00000000000E+00  0.74505805969E-08  0.10566000000E+00  0.10566000000E+00 0.  1.
     999900   -1    0    0    0    0 -0.00000000000E+00 -0.00000000000E+00 -0.74505805969E-08  0.93827000000E+00  0.93827000000E+00 0.  1.
     999902    2    1    2    0    0  0.15942002852E-01 -0.37315710870E-02  0.19079267887E-01  0.10187885891E+01  0.10184783251E+01 0.  0.
     999903    2    3    3    0    0  0.12166590317E+00  0.37293580211E-01  0.25706085204E-01  0.13148676852E+00  0.20846207321E-01 0.  0.
         14    1    1    2    0    0 -0.15942002852E-01  0.37315710870E-02 -0.19079267887E-01  0.25141410875E-01  0.00000000000E+00 0.  1.
     999901    1    3    3    0    0 -0.10572390032E+00 -0.41025151298E-01 -0.66268173175E-02  0.88730182060E+00  0.88000000000E+00 0.  1.
        -11    1    4    4    0    0  0.47341615485E-01  0.24571111422E-01  0.70351409243E-02  0.53802624490E-01  0.51100000000E-03 0.  1.
         11    1    4    4    0    0  0.74324287689E-01  0.12722468789E-01  0.18670944280E-01  0.77684144031E-01  0.51100000000E-03 0. -1.
</event>
<event>
 8    1  0.1128298E+005  0.1043930E+01  0.7957747E-01            NaN
         13   -1    0    0    0    0  0.00000000000E+00  0.00000000000E+00  0.74505805969E-08  0.10566000000E+00  0.10566000000E+00 0.  1.
     999900   -1    0    0    0    0 -0.00000000000E+00 -0.00000000000E+00 -0.74505805969E-08  0.93827000000E+00  0.93827000000E+00 0.  1.
     999902    2    1    2    0    0 -0.73481994204E-02 -0.20823997984E-01 -0.12724733444E-01  0.10184436553E+01  0.10181247100E+01 0.  0.
     999903    2    3    3    0    0 -0.10625829766E+00  0.43899083137E-01 -0.56120658774E-01  0.12948050018E+00  0.19942824879E-01 0.  0.
         14    1    1    2    0    0  0.73481994204E-02  0.20823997984E-01  0.12724733444E-01  0.25486344735E-01  0.00000000000E+00 0.  1.
     999901    1    3    3    0    0  0.98910098238E-01 -0.64723081121E-01  0.43395925330E-01  0.88896315508E+00  0.88000000000E+00 0. -1.
        -11    1    4    4    0    0 -0.56920797613E-01  0.29201063757E-01 -0.21721904344E-01  0.67563167294E-01  0.51100000000E-03 0. -1.
         11    1    4    4    0    0 -0.49337500045E-01  0.14698019380E-01 -0.34398754429E-01  0.61917332886E-01  0.51100000000E-03 0.  1.
</event>
<event>
 8    1  0.1128298E+005  0.1043930E+01  0.7957747E-01            NaN
         13   -1    0    0    0    0  0.00000000000E+00  0.00000000000E+00  0.74505805969E-08  0.10566000000E+00  0.10566000000E+00 0. -1.
     999900   -1    0    0    0    0 -0.00000000000E+00 -0.00000000000E+00 -0.74505805969E-08  0.93827000000E+00  0.93827000000E+00 0.  1.
     999902    2    1    2    0    0  0.14335639355E-01  0.74626877292E-02  0.19151171223E-01  0.10188706779E+01  0.10185624619E+01 0.  0.
     999903    2    3    3    0    0  0.10046424981E+00 -0.22682359230E-01 -0.75333936531E-01  0.12912110811E+00  0.19735846963E-01 0.  0.
         14    1    1    2    0    0 -0.14335639355E-01 -0.74626877292E-02 -0.19151171223E-01  0.25059322079E-01  0.00000000000E+00 0.  1.
     999901    1    3    3    0    0 -0.86128610456E-01  0.30145046959E-01  0.94485107754E-01  0.88974956981E+00  0.88000000000E+00 0. -1.
        -11    1    4    4    0    0  0.43049099736E-01 -0.18496119684E-01 -0.27959028662E-01  0.54564639064E-01  0.51100000000E-03 0.  1.
         11    1    4    4    0    0  0.57415150075E-01 -0.41862395457E-02 -0.47374907869E-01  0.74556469043E-01  0.51100000000E-03 0. -1.
</event>
<event>
 8    1  0.1128298E+005  0.1043930E+01  0.7957747E-01            NaN
         13   -1    0    0    0    0  0.00000000000E+00  0.00000000000E+00  0.74505805969E-08  0.10566000000E+00  0.10566000000E+00 0.  1.
     999900   -1    0    0    0    0 -0.00000000000E+00 -0.00000000000E+00 -0.74505805969E-08  0.93827000000E+00  0.93827000000E+00 0. -1.
     999902    2    1    2    0    0  0.10181150450E-01  0.19353295467E-01 -0.90465722667E-02  0.10202647018E+01  0.10199902036E+01 0.  0.
     999903    2    3    3    0    0 -0.97992801660E-01 -0.78912152953E-01 -0.16249257167E-01  0.12818310185E+00  0.18361704198E-01 0.  0.
         14    1    1    2    0    0 -0.10181150450E-01 -0.19353295467E-01  0.90465722667E-02  0.23665298216E-01  0.00000000000E+00 0.  1.
     999901    1    3    3    0    0  0.10817395211E+00  0.98265448419E-01  0.72026849004E-02  0.89208159993E+00  0.88000000000E+00 0.  1.
        -11    1    4    4    0    0 -0.39578806496E-01 -0.20891154964E-01 -0.38748055692E-02  0.44924353290E-01  0.51100000000E-03 0. -1.
         11    1    4    4    0    0 -0.58413995164E-01 -0.58020997989E-01 -0.12374451598E-01  0.83258748561E-01  0.51100000000E-03 0.  1.
</event>
<event>
 8    1  0.1128298E+005  0.1043930E+01  0.7957747E-01            NaN
         13   -1    0    0    0    0  0.00000000000E+00  0.00000000000E+00  0.74505805969E-08  0.10566000000E+00  0.10566000000E+00 0. -1.
     999900   -1    0    0    0    0 -0.00000000000E+00 -0.00000000000E+00 -0.74505805969E-08  0.93827000000E+00  0.93827000000E+00 0.  1.
     999902    2    1    2    0    0 -0.19998780963E-01 -0.15510374527E-01  0.57712576621E-02  0.10179717571E+01  0.10176407362E+01 0.  0.
     999903    2    3    3    0    0 -0.10104909541E+00  0.21032758234E-01 -0.76065135633E-01  0.12971405280E+00  0.19660468817E-01 0.  0.
         14    1    1    2    0    0  0.19998780963E-01  0.15510374527E-01 -0.57712576621E-02  0.25958242871E-01  0.00000000000E+00 0. -1.
     999901    1    3    3    0    0  0.81050314446E-01 -0.36543132761E-01  0.81836393295E-01  0.88825770432E+00  0.88000000000E+00 0. -1.
        -11    1    4    4    0    0 -0.60082540579E-01  0.21946677298E-01 -0.49408092119E-01  0.80826907739E-01  0.51100000000E-03 0.  1.
         11    1    4    4    0    0 -0.40966554830E-01 -0.91391906399E-03 -0.26657043514E-01  0.48887145065E-01  0.51100000000E-03 0. -1.
</event>
<event>
 8    1  0.1128298E+005  0.1043930E+01  0.7957747E-01            NaN
         13   -1    0    0    0    0  0.00000000000E+00  0.00000000000E+00  0.74505805969E-08  0.10566000000E+00  0.10566000000E+00 0.  1.
     999900   -1    0    0    0    0 -0.00000000000E+00 -0.00000000000E+00 -0.74505805969E-08  0.93827000000E+00  0.93827000000E+00 0.  1.
     999902    2    1    2    0    0 -0.38605137181E-02  0.75831944953E-03 -0.21315712338E-01  0.10222542484E+01  0.10220244176E+01 0.  0.
     999903    2    3    3    0    0 -0.11615862563E+00 -0.49153074841E-01 -0.39018859246E-01  0.13353865013E+00  0.20031191333E-01 0.  0.
         14    1    1    2    0    0  0.38605137181E-02 -0.75831944953E-03  0.21315712338E-01  0.21675751591E-01  0.00000000000E+00 0.  1.
     999901    1    3    3    0    0  0.11229811191E+00  0.49911394291E-01  0.17703146908E-01  0.88871559828E+00  0.88000000000E+00 0. -1.
        -11    1    4    4    0    0 -0.47269498857E-01 -0.95097143403E-02 -0.15483349975E-01  0.50644204372E-01  0.51100000000E-03 0. -1.
         11    1    4    4    0    0 -0.68889126774E-01 -0.39643360501E-01 -0.23535509271E-01  0.82894445756E-01  0.51100000000E-03 0.  1.
</event>
<event>
 8    1  0.1128298E+005  0.1043930E+01  0.7957747E-01            NaN
         13   -1    0    0    0    0  0.00000000000E+00  0.00000000000E+00  0.74505805969E-08  0.10566000000E+00  0.10566000000E+00 0. -1.
     999900   -1    0    0    0    0 -0.00000000000E+00 -0.00000000000E+00 -0.74505805969E-08  0.93827000000E+00  0.93827000000E+00 0. -1.
     999902    2    1    2    0    0 -0.22094695453E-01 -0.59581918554E-02 -0.73326746762E-03  0.10210342952E+01  0.10207775559E+01 0.  0.
     999903    2    3    3    0    0  0.65679914777E-01 -0.45392217432E-02 -0.10993939660E+00  0.12994935294E+00  0.21580261002E-01 0.  0.
         14    1    1    2    0    0  0.22094695453E-01  0.59581918554E-02  0.73326746762E-03  0.22895704805E-01  0.00000000000E+00 0. -1.
     999901    1    3    3    0    0 -0.87774610230E-01 -0.14189701122E-02  0.10920612913E+00  0.89108494226E+00  0.88000000000E+00 0.  1.
        -11    1    4    4    0    0  0.55398795701E-01  0.43759637494E-02 -0.90873956980E-01  0.10652001127E+00  0.51100000000E-03 0.  1.
         11    1    4    4    0    0  0.10281119076E-01 -0.89151854925E-02 -0.19065439621E-01  0.23429341663E-01  0.51100000000E-03 0. -1.
</event>
<event>
 8    1  0.1128298E+005  0.1043930E+01  0.7957747E-01            NaN
         13   -1    0    0    0    0  0.00000000000E+00  0.00000000000E+00  0.74505805969E-08  0.10566000000E+00  0.10566000000E+00 0.  1.
     999900   -1    0    0    0    0 -0.00000000000E+00 -0.00000000000E+00 -0.74505805969E-08  0.93827000000E+00  0.93827000000E+00 0. -1.
     999902    2    1    2    0    0  0.85074057235E-02 -0.14082148197E-01 -0.16958782417E-01  0.10203019838E+01  0.10200283599E+01 0.  0.
     999903    2    3    3    0    0 -0.91516681477E-01  0.53594580651E-01  0.68668089911E-01  0.12793607288E+00  0.20115916794E-01 0.  0.
         14    1    1    2    0    0 -0.85074057235E-02  0.14082148197E-01  0.16958782417E-01  0.23628016232E-01  0.00000000000E+00 0.  1.
     999901    1    3    3    0    0  0.10002408720E+00 -0.67676728849E-01 -0.85626872328E-01  0.89236591089E+00  0.88000000000E+00 0. -1.
        -11    1    4    4    0    0 -0.23807542554E-01  0.19092648915E-01  0.29472451713E-01  0.42428938898E-01  0.51100000000E-03 0.  1.
         11    1    4    4    0    0 -0.67709138923E-01  0.34501931736E-01  0.39195638199E-01  0.85507133984E-01  0.51100000000E-03 0. -1.
</event>
<event>
 8    1  0.1128298E+005  0.1043930E+01  0.7957747E-01            NaN
         13   -1    0    0    0    0  0.00000000000E+00  0.00000000000E+00  0.74505805969E-08  0.10566000000E+00  0.10566000000E+00 0.  1.
     999900   -1    0    0    0    0 -0.00000000000E+00 -0.00000000000E+00 -0.74505805969E-08  0.93827000000E+00  0.93827000000E+00 0. -1.
     999902    2    1    2    0    0 -0.12608203621E-01 -0.40997475325E-02 -0.23024050758E-01  0.10173615668E+01  0.10170145899E+01 0.  0.
     999903    2    3    3    0    0  0.32175092741E-01 -0.11581604231E+00  0.36093491646E-01  0.12720373926E+00  0.20723389973E-01 0.  0.
         14    1    1    2    0    0  0.12608203621E-01  0.40997475325E-02  0.23024050758E-01  0.26568433181E-01  0.00000000000E+00 0.  1.
     999901    1    3    3    0    0 -0.44783296362E-01  0.11171629478E+00 -0.59117542404E-01  0.89015782756E+00  0.88000000000E+00 0. -1.
        -11    1    4    4    0    0  0.82972623696E-02 -0.44625222241E-01  0.40861557261E-02  0.45576450196E-01  0.51100000000E-03 0.  1.
         11    1    4    4    0    0  0.23877830371E-01 -0.71190820070E-01  0.32007335920E-01  0.81627289060E-01  0.51100000000E-03 0. -1.
</event>
<event>
 8    1  0.1128298E+005  0.1043930E+01  0.7957747E-01            NaN
         13   -1    0    0    0    0  0.00000000000E+00  0.00000000000E+00  0.74505805969E-08  0.10566000000E+00  0.10566000000E+00 0.  1.
     999900   -1    0    0    0    0 -0.00000000000E+00 -0.00000000000E+00 -0.74505805969E-08  0.93827000000E+00  0.93827000000E+00 0. -1.
     999902    2    1    2    0    0 -0.89880357783E-02  0.97376756748E-02 -0.20090189159E-01  0.10198629517E+01  0.10195789412E+01 0.  0.
     999903    2    3    3    0    0  0.10419247882E+00 -0.31789714414E-01 -0.68648516208E-01  0.13031685161E+00  0.20079951447E-01 0.  0.
         14    1    1    2    0    0  0.89880357783E-02 -0.97376756748E-02  0.20090189159E-01  0.24067048326E-01  0.00000000000E+00 0.  1.
     999901    1    3    3    0    0 -0.11318051460E+00  0.41527390089E-01  0.48558327049E-01  0.88954610006E+00  0.88000000000E+00 0.  1.
        -11    1    4    4    0    0  0.15737676002E-01 -0.27017910172E-02 -0.18889063493E-01  0.24739279725E-01  0.51100000000E-03 0. -1.
         11    1    4    4    0    0  0.88454802822E-01 -0.29087923397E-01 -0.49759452715E-01  0.10557757189E+00  0.51100000000E-03 0.  1.
</event>
<event>
 8    1  0.1128298E+005  0.1043930E+01  0.7957747E-01            NaN
         13   -1    0    0    0    0  0.00000000000E+00  0.00000000000E+00  0.74505805969E-08  0.10566000000E+00  0.10566000000E+00 0.  1.
     999900   -1    0    0    0    0 -0.00000000000E+00 -0.00000000000E+00 -0.74505805969E-08  0.93827000000E+00  0.93827000000E+00 0.  1.
     999902    2    1    2    0    0 -0.61880731209E-02 -0.21439806747E-01 -0.67702721614E-02  0.10206106058E+01  0.10203441647E+01 0.  0.
     999903    2    3    3    0    0  0.11048551762E-01 -0.10009671043E+00 -0.85057310302E-01  0.13347314738E+00  0.20950253009E-01 0.  0.
         14    1    1    2    0    0  0.61880731209E-02  0.21439806747E-01  0.67702721614E-02  0.23319394234E-01  0.00000000000E+00 0. -1.
     999901    1    3    3    0    0 -0.17236624882E-01  0.78656903679E-01  0.78287038141E-01  0.88713745839E+00  0.88000000000E+00 0. -1.
        -11    1    4    4    0    0  0.69022665058E-02 -0.55509191196E-01 -0.33586315962E-01  0.65247324321E-01  0.51100000000E-03 0. -1.
         11    1    4    4    0    0  0.41462852558E-02 -0.44587519230E-01 -0.51470994340E-01  0.68225823057E-01  0.51100000000E-03 0.  1.
</event>
<event>
 8    1  0.1128298E+005  0.1043930E+01  0.7957747E-01            NaN
         13   -1    0    0    0    0  0.00000000000E+00  0.00000000000E+00  0.74505805969E-08  0.10566000000E+00  0.10566000000E+00 0. -1.
     999900   -1    0    0    0    0 -0.00000000000E+00 -0.00000000000E+00 -0.74505805969E-08  0.93827000000E+00  0.93827000000E+00 0.  1.
     999902    2    1    2    0    0  0.22270444691E-01  0.12317788883E-03 -0.96977888339E-02  0.10196393642E+01  0.10193499880E+01 0.  0.
     999903    2    3    3    0    0  0.79155192403E-01  0.60670708587E-01  0.82466935839E-01  0.13093456817E+00  0.19914473926E-01 0.  0.
         14    1    1    2    0    0 -0.22270444691E-01 -0.12317788883E-03  0.96977888339E-02  0.24290635805E-01  0.00000000000E+00 0. -1.
     999901    1    3    3    0    0 -0.56884747711E-01 -0.60547530698E-01 -0.92164724673E-01  0.88870479602E+00  0.88000000000E+00 0.  1.
        -11    1    4    4    0    0  0.15743088548E-01  0.31363587923E-02  0.13874500087E-01  0.21223676806E-01  0.51100000000E-03 0.  1.
         11    1    4    4    0    0  0.63412103854E-01  0.57534349794E-01  0.68592435752E-01  0.10971089137E+00  0.51100000000E-03 0. -1.
</event>
<event>
 8    1  0.1128298E+005  0.1043930E+01  0.7957747E-01            NaN
         13   -1    0    0    0    0  0.00000000000E+00  0.00000000000E+00  0.74505805969E-08  0.10566000000E+00  0.10566000000E+00 0. -1.
     999900   -1    0    0    0    0 -0.00000000000E+00 -0.00000000000E+00 -0.74505805969E-08  0.93827000000E+00  0.93827000000E+00 0. -1.
     999902    2    1    2    0    0 -0.81684577565E-02 -0.18094761222E-01 -0.12813491168E-01  0.10203010000E+01  0.10200273530E+01 0.  0.
     999903    2    3    3    0    0  0.81448650198E-01 -0.10026807770E+00 -0.17219480251E-01  0.13192996673E+00  0.20528896654E-01 0.  0.
         14    1    1    2    0    0  0.81684577565E-02  0.18094761222E-01  0.12813491168E-01  0.23629000015E-01  0.00000000000E+00 0.  1.
     999901    1    3    3    0    0 -0.89617107954E-01  0.82173316477E-01  0.44059890829E-02  0.88837103325E+00  0.88000000000E+00 0.  1.
        -11    1    4    4    0    0  0.54687101586E-01 -0.67528617615E-01 -0.21227470903E-01  0.89451997847E-01  0.51100000000E-03 0.  1.
         11    1    4    4    0    0  0.26761548612E-01 -0.32739460084E-01  0.40079906524E-02  0.42477968887E-01  0.51100000000E-03 0. -1.
</event>
<event>
 8    1  0.1128298E+005  0.1043930E+01  0.7957747E-01            NaN
         13   -1    0    0    0    0  0.00000000000E+00  0.00000000000E+00  0.74505805969E-08  0.10566000000E+00  0.10566000000E+00 0.  1.
     999900   -1    0    0    0    0 -0.00000000000E+00 -0.00000000000E+00 -0.74505805969E-08  0.93827000000E+00  0.93827000000E+00 0. -1.
     999902    2    1    2    0    0  0.84489798586E-04  0.17594323893E-01 -0.15584855390E-01  0.10204256368E+01  0.10201549025E+01 0.  0.
     999903    2    3    3    0    0 -0.88825615389E-01 -0.91409906946E-01 -0.81462718602E-02  0.12922293165E+00  0.19658160702E-01 0.  0.
         14    1    1    2    0    0 -0.84489798586E-04 -0.17594323893E-01  0.15584855390E-01  0.23504363197E-01  0.00000000000E+00 0. -1.
     999901    1    3    3    0    0  0.88910105188E-01  0.10900423084E+00 -0.74385835296E-02  0.89120270515E+00  0.88000000000E+00 0. -1.
        -11    1    4    4    0    0 -0.21699109717E-01 -0.11596038649E-01  0.79312195872E-04  0.24608675021E-01  0.51100000000E-03 0. -1.
         11    1    4    4    0    0 -0.67126505672E-01 -0.79813868297E-01 -0.82255840561E-02  0.10461425663E+00  0.51100000000E-03 0.  1.
</event>
<event>
 7    1  0.1128298E+005  0.1043930E+01  0.7957747E-01            NaN
         13   -1    0    0    0    0  0.00000000000E+00  0.00000000000E+00  0.74505805969E-08  0.10566000000E+00  0.10566000000E+00 0. -1.
     999900   -1    0    0    0    0 -0.00000000000E+00 -0.00000000000E+00 -0.74505805969E-08  0.93827000000E+00  0.93827000000E+00 0. -1.
     999903    2    1    2    0    0 -0.56361832282E-02 -0.63465037401E-01 -0.80662948061E-01  0.10584274670E+00  0.25230899830E-01 0.  0.
         14    1    1    2    0    0 -0.14426297334E-01  0.54225914406E-03  0.53265577634E-01  0.55187261759E-01  0.00000000000E+00 0. -1.
     999901    1    1    2    0    0  0.20062480562E-01  0.62922778257E-01  0.27397370427E-01  0.88289999154E+00  0.88000000000E+00 0. -1.
        -11    1    3    3    0    0 -0.13377821403E-01 -0.21258256749E-01 -0.23821548902E-01  0.34620902625E-01  0.51100000000E-03 0. -1.
         11    1    3    3    0    0  0.77416381744E-02 -0.42206780652E-01 -0.56841399159E-01  0.71221844078E-01  0.51100000000E-03 0.  1.
</event>
