<event>
 8    1  0.1122465E+005  0.1043930E+01  0.7957747E-01            NaN
         13   -1    0    0    0    0  0.00000000000E+00  0.00000000000E+00  0.74505805969E-08  0.10566000000E+00  0.10566000000E+00 0. -1.
     999900   -1    0    0    0    0 -0.00000000000E+00 -0.00000000000E+00 -0.74505805969E-08  0.93827000000E+00  0.93827000000E+00 0.  1.
     999902    2    1    2    0    0  0.79823947294E-02 -0.89998182971E-02  0.20318357857E-01  0.10203174817E+01  0.10200442208E+01 0.  0.
     999903    2    3    3    0    0 -0.61493722397E-02  0.10827065267E+00 -0.64912203237E-01  0.12834420925E+00  0.22322475450E-01 0.  0.
         14    1    1    2    0    0 -0.79823947294E-02  0.89998182971E-02 -0.20318357857E-01  0.23612518311E-01  0.00000000000E+00 0.  1.
     999901    1    3    3    0    0  0.14131766969E-01 -0.11727047097E+00  0.85230561094E-01  0.89197327244E+00  0.88000000000E+00 0. -1.
        -11    1    4    4    0    0 -0.14495210960E-01  0.60038986884E-01 -0.36551843540E-01  0.71771090796E-01  0.51100000000E-03 0. -1.
         11    1    4    4    0    0  0.83458387199E-02  0.48231665788E-01 -0.28360359697E-01  0.56573118455E-01  0.51100000000E-03 0.  1.
</event>
<event>
 8    1  0.1122465E+005  0.1043930E+01  0.7957747E-01            NaN
         13   -1    0    0    0    0  0.00000000000E+00  0.00000000000E+00  0.74505805969E-08  0.10566000000E+00  0.10566000000E+00 0.  1.
     999900   -1    0    0    0    0 -0.00000000000E+00 -0.00000000000E+00 -0.74505805969E-08  0.93827000000E+00  0.93827000000E+00 0.  1.
     999902    2    1    2    0    0 -0.26794111989E-02 -0.23845411854E-01 -0.67983644136E-02  0.10189900587E+01  0.10186848085E+01 0.  0.
     999903    2    3    3    0    0  0.69832235489E-02  0.11636871361E+00 -0.46071641920E-01  0.12697225746E+00  0.20221648201E-01 0.  0.
         14    1    1    2    0    0  0.26794111989E-02  0.23845411854E-01  0.67983644136E-02  0.24939941251E-01  0.00000000000E+00 0. -1.
     999901    1    3    3    0    0 -0.96626347478E-02 -0.14021412547E+00  0.39273277507E-01  0.89201780129E+00  0.88000000000E+00 0. -1.
        -11    1    4    4    0    0  0.98498226320E-02  0.34758177950E-01 -0.19729361392E-01  0.41166233277E-01  0.51100000000E-03 0.  1.
         11    1    4    4    0    0 -0.28665990831E-02  0.81610535664E-01 -0.26342280529E-01  0.85806024183E-01  0.51100000000E-03 0. -1.
</event>
<event>
 8    1  0.1122465E+005  0.1043930E+01  0.7957747E-01            NaN
         13   -1    0    0    0    0  0.00000000000E+00  0.00000000000E+00  0.74505805969E-08  0.10566000000E+00  0.10566000000E+00 0. -1.
     999900   -1    0    0    0    0 -0.00000000000E+00 -0.00000000000E+00 -0.74505805969E-08  0.93827000000E+00  0.93827000000E+00 0.  1.
     999902    2    1    2    0    0 -0.14836713962E-02 -0.20320946389E-01 -0.88675351517E-02  0.10217089442E+01  0.10214672737E+01 0.  0.
     999903    2    3    3    0    0 -0.56844424644E-01 -0.24518160797E-01  0.11429585901E+00  0.13139908166E+00  0.19228792287E-01 0.  0.
         14    1    1    2    0    0  0.14836713962E-02  0.20320946389E-01  0.88675351517E-02  0.22221055839E-01  0.00000000000E+00 0. -1.
     999901    1    3    3    0    0  0.55360753248E-01  0.41972144084E-02 -0.12316339416E+00  0.89030986250E+00  0.88000000000E+00 0.  1.
        -11    1    4    4    0    0 -0.14842619209E-01 -0.10048143357E-02  0.41846929545E-01  0.44415533659E-01  0.51100000000E-03 0. -1.
         11    1    4    4    0    0 -0.42001805435E-01 -0.23513346462E-01  0.72448929460E-01  0.86983547999E-01  0.51100000000E-03 0.  1.
</event>
<event>
 8    1  0.1122465E+005  0.1043930E+01  0.7957747E-01            NaN
         13   -1    0    0    0    0  0.00000000000E+00  0.00000000000E+00  0.74505805969E-08  0.10566000000E+00  0.10566000000E+00 0. -1.
     999900   -1    0    0    0    0 -0.00000000000E+00 -0.00000000000E+00 -0.74505805969E-08  0.93827000000E+00  0.93827000000E+00 0. -1.
     999902    2    1    2    0    0 -0.26638728280E-02  0.87065572561E-02 -0.21071457570E-01  0.10209755520E+01  0.10207174786E+01 0.  0.
     999903    2    3    3    0    0  0.74896038226E-01 -0.96013470632E-01 -0.44187403921E-01  0.13107883273E+00  0.20028246026E-01 0.  0.
         14    1    1    2    0    0  0.26638728280E-02 -0.87065572561E-02  0.21071457570E-01  0.22954447975E-01  0.00000000000E+00 0. -1.
     999901    1    3    3    0    0 -0.77559911054E-01  0.10472002789E+00  0.23115946351E-01  0.88989671930E+00  0.88000000000E+00 0. -1.
        -11    1    4    4    0    0  0.21783638371E-01 -0.22579134485E-01 -0.29768699802E-02  0.31519312979E-01  0.51100000000E-03 0.  1.
         11    1    4    4    0    0  0.53112399855E-01 -0.73434336146E-01 -0.41210533941E-01  0.99559519747E-01  0.51100000000E-03 0. -1.
</event>
<event>
 8    1  0.1122465E+005  0.1043930E+01  0.7957747E-01            NaN
         13   -1    0    0    0    0  0.00000000000E+00  0.00000000000E+00  0.74505805969E-08  0.10566000000E+00  0.10566000000E+00 0. -1.
     999900   -1    0    0    0    0 -0.00000000000E+00 -0.00000000000E+00 -0.74505805969E-08  0.93827000000E+00  0.93827000000E+00 0. -1.
     999902    2    1    2    0    0 -0.19107819815E-01  0.10991095805E-02 -0.13998382339E-01  0.10202177346E+01  0.10199421329E+01 0.  0.
     999903    2    3    3    0    0  0.11922682391E+00  0.38556520918E-02  0.40768906104E-01  0.12772486181E+00  0.20533753382E-01 0.  0.
         14    1    1    2    0    0  0.19107819815E-01 -0.10991095805E-02  0.13998382339E-01  0.23712265351E-01  0.00000000000E+00 0.  1.
     999901    1    3    3    0    0 -0.13833464372E+00 -0.27565425113E-02 -0.54767288443E-01  0.89249287284E+00  0.88000000000E+00 0. -1.
        -11    1    4    4    0    0  0.72000315087E-01 -0.76617004138E-02  0.23207994225E-01  0.76036959058E-01  0.51100000000E-03 0. -1.
         11    1    4    4    0    0  0.47226508820E-01  0.11517352506E-01  0.17560911880E-01  0.51687902754E-01  0.51100000000E-03 0.  1.
</event>
<event>
 8    1  0.1122465E+005  0.1043930E+01  0.7957747E-01            NaN
         13   -1    0    0    0    0  0.00000000000E+00  0.00000000000E+00  0.74505805969E-08  0.10566000000E+00  0.10566000000E+00 0.  1.
     999900   -1    0    0    0    0 -0.00000000000E+00 -0.00000000000E+00 -0.74505805969E-08  0.93827000000E+00  0.93827000000E+00 0.  1.
     999902    2    1    2    0    0 -0.20502113327E-02 -0.45383683919E-02  0.22827459803E-01  0.10205656452E+01  0.10202981638E+01 0.  0.
     999903    2    3    3    0    0  0.18016005230E-01 -0.29279637933E-02 -0.12508243152E+00  0.12799487355E+00  0.20097849743E-01 0.  0.
         14    1    1    2    0    0  0.20502113327E-02  0.45383683919E-02 -0.22827459803E-01  0.23364354800E-01  0.00000000000E+00 0. -1.
     999901    1    3    3    0    0 -0.20066216562E-01 -0.16104045987E-02  0.14790989132E+00  0.89257077165E+00  0.88000000000E+00 0. -1.
        -11    1    4    4    0    0  0.50180385627E-02  0.64511986295E-02 -0.74064751108E-01  0.74516086535E-01  0.51100000000E-03 0.  1.
         11    1    4    4    0    0  0.12997966667E-01 -0.93791624228E-02 -0.51017680411E-01  0.53478787016E-01  0.51100000000E-03 0. -1.
</event>
<event>
 8    1  0.1122465E+005  0.1043930E+01  0.7957747E-01            NaN
         13   -1    0    0    0    0  0.00000000000E+00  0.00000000000E+00  0.74505805969E-08  0.10566000000E+00  0.10566000000E+00 0.  1.
     999900   -1    0    0    0    0 -0.00000000000E+00 -0.00000000000E+00 -0.74505805969E-08  0.93827000000E+00  0.93827000000E+00 0. -1.
     999902    2    1    2    0    0 -0.17230863986E-01  0.11183097312E-01 -0.12619877949E-01  0.10198213779E+01  0.10195363737E+01 0.  0.
     999903    2    3    3    0    0  0.68160942400E-01 -0.73340971375E-01  0.75852699639E-01  0.12726130948E+00  0.20420496991E-01 0.  0.
         14    1    1    2    0    0  0.17230863986E-01 -0.11183097312E-01  0.12619877949E-01  0.24108622081E-01  0.00000000000E+00 0.  1.
     999901    1    3    3    0    0 -0.85391806385E-01  0.84524068687E-01 -0.88472577588E-01  0.89256006844E+00  0.88000000000E+00 0. -1.
        -11    1    4    4    0    0  0.59029038313E-02 -0.10697876027E-01  0.17705810447E-01  0.21518495991E-01  0.51100000000E-03 0. -1.
         11    1    4    4    0    0  0.62258038569E-01 -0.62643095348E-01  0.58146889192E-01  0.10574281349E+00  0.51100000000E-03 0.  1.
</event>
<event>
 8    1  0.1122465E+005  0.1043930E+01  0.7957747E-01            NaN
         13   -1    0    0    0    0  0.00000000000E+00  0.00000000000E+00  0.74505805969E-08  0.10566000000E+00  0.10566000000E+00 0.  1.
     999900   -1    0    0    0    0 -0.00000000000E+00 -0.00000000000E+00 -0.74505805969E-08  0.93827000000E+00  0.93827000000E+00 0.  1.
     999902    2    1    2    0    0  0.69023608185E-02 -0.18005432790E-01 -0.13695809572E-01  0.10202780784E+01  0.10200038941E+01 0.  0.
     999903    2    3    3    0    0 -0.47070062017E-01 -0.36834271965E-01  0.11300848701E+00  0.12936757428E+00  0.19816579131E-01 0.  0.
         14    1    1    2    0    0 -0.69023608185E-02  0.18005432790E-01  0.13695809572E-01  0.23651921585E-01  0.00000000000E+00 0.  1.
     999901    1    3    3    0    0  0.53972422836E-01  0.18828839175E-01 -0.12670429658E+00  0.89091050414E+00  0.88000000000E+00 0. -1.
        -11    1    4    4    0    0 -0.56943757479E-02 -0.33172957805E-02  0.30203213137E-01  0.30918046046E-01  0.51100000000E-03 0. -1.
         11    1    4    4    0    0 -0.41375686269E-01 -0.33516976184E-01  0.82805273873E-01  0.98449528231E-01  0.51100000000E-03 0.  1.
</event>
<event>
 8    1  0.1122465E+005  0.1043930E+01  0.7957747E-01            NaN
         13   -1    0    0    0    0  0.00000000000E+00  0.00000000000E+00  0.74505805969E-08  0.10566000000E+00  0.10566000000E+00 0.  1.
     999900   -1    0    0    0    0 -0.00000000000E+00 -0.00000000000E+00 -0.74505805969E-08  0.93827000000E+00  0.93827000000E+00 0. -1.
     999902    2    1    2    0    0  0.13938767110E-01 -0.19282944933E-01  0.26597975772E-03  0.10201352119E+01  0.10198576659E+01 0.  0.
     999903    2    3    3    0    0  0.86391127217E-01  0.13763275573E-01  0.95765092386E-01  0.13139369851E+00  0.20988007802E-01 0.  0.
         14    1    1    2    0    0 -0.13938767110E-01  0.19282944933E-01 -0.26597975772E-03  0.23794788065E-01  0.00000000000E+00 0.  1.
     999901    1    3    3    0    0 -0.72452360108E-01 -0.33046220506E-01 -0.95499112629E-01  0.88874151343E+00  0.88000000000E+00 0. -1.
        -11    1    4    4    0    0  0.29331729847E-01  0.13736152281E-01  0.28118547780E-01  0.42894592964E-01  0.51100000000E-03 0. -1.
         11    1    4    4    0    0  0.57059397370E-01  0.27123292511E-04  0.67646544606E-01  0.88499105544E-01  0.51100000000E-03 0.  1.
</event>
<event>
 7    1  0.1122465E+005  0.1043930E+01  0.7957747E-01            NaN
         13   -1    0    0    0    0  0.00000000000E+00  0.00000000000E+00  0.74505805969E-08  0.10566000000E+00  0.10566000000E+00 0.  1.
     999900   -1    0    0    0    0 -0.00000000000E+00 -0.00000000000E+00 -0.74505805969E-08  0.93827000000E+00  0.93827000000E+00 0.  1.
     999902    2    1    2    0    0  0.40747882270E-02 -0.22380817227E-01  0.64106037331E-02  0.10202952646E+01  0.10200214832E+01 0.  0.
         14    1    1    2    0    0 -0.40747882270E-02  0.22380817227E-01 -0.64106037331E-02  0.23634735434E-01  0.00000000000E+00 0.  1.
     999901    1    3    3    0    0  0.98248238872E-02  0.71321250030E-01 -0.77403278044E-01  0.88632641579E+00  0.88000000000E+00 0.  1.
        -11    1    3    3    0    0 -0.24814904434E-01 -0.51143912831E-01  0.36633965442E-01  0.67629785204E-01  0.51100000000E-03 0.  1.
         11    1    3    3    0    0  0.19064868774E-01 -0.42558154426E-01  0.47179916336E-01  0.66339063574E-01  0.51100000000E-03 0. -1.
</event>
<event>
 8    1  0.1122465E+005  0.1043930E+01  0.7957747E-01            NaN
         13   -1    0    0    0    0  0.00000000000E+00  0.00000000000E+00  0.74505805969E-08  0.10566000000E+00  0.10566000000E+00 0. -1.
     999900   -1    0    0    0    0 -0.00000000000E+00 -0.00000000000E+00 -0.74505805969E-08  0.93827000000E+00  0.93827000000E+00 0.  1.
     999902    2    1    2    0    0 -0.15415977459E-02  0.71522555861E-02 -0.23537764217E-01  0.10192813159E+01  0.10189832400E+01 0.  0.
     999903    2    3    3    0    0 -0.57135887537E-01 -0.99342404191E-01 -0.58860341423E-01  0.13041714063E+00  0.20264941705E-01 0.  0.
         14    1    1    2    0    0  0.15415977459E-02 -0.71522555861E-02  0.23537764217E-01  0.24648684101E-01  0.00000000000E+00 0. -1.
     999901    1    3    3    0    0  0.55594289791E-01  0.10649465978E+00  0.35322577206E-01  0.88886417527E+00  0.88000000000E+00 0. -1.
        -11    1    4    4    0    0 -0.11535564781E-01 -0.34581944289E-01 -0.11976384869E-01  0.38375448417E-01  0.51100000000E-03 0. -1.
         11    1    4    4    0    0 -0.45600322756E-01 -0.64760459901E-01 -0.46883956554E-01  0.92041692212E-01  0.51100000000E-03 0.  1.
</event>
<event>
 8    1  0.1122465E+005  0.1043930E+01  0.7957747E-01            NaN
         13   -1    0    0    0    0  0.00000000000E+00  0.00000000000E+00  0.74505805969E-08  0.10566000000E+00  0.10566000000E+00 0.  1.
     999900   -1    0    0    0    0 -0.00000000000E+00 -0.00000000000E+00 -0.74505805969E-08  0.93827000000E+00  0.93827000000E+00 0. -1.
     999902    2    1    2    0    0 -0.22210133078E-01 -0.10428229954E-02 -0.12664038926E-01  0.10183418118E+01  0.10180202799E+01 0.  0.
     999903    2    3    3    0    0 -0.32802783992E-01  0.11962458769E+00 -0.32649762129E-01  0.12981929812E+00  0.20024449557E-01 0.  0.
         14    1    1    2    0    0  0.22210133078E-01  0.10428229954E-02  0.12664038926E-01  0.25588188155E-01  0.00000000000E+00 0.  1.
     999901    1    3    3    0    0  0.10592650914E-01 -0.12066741069E+00  0.19985723204E-01  0.88852251372E+00  0.88000000000E+00 0. -1.
        -11    1    4    4    0    0 -0.27280181484E-01  0.87440680992E-01 -0.32399576570E-01  0.97160046712E-01  0.51100000000E-03 0. -1.
         11    1    4    4    0    0 -0.55226025075E-02  0.32183906702E-01 -0.25018555911E-03  0.32659251413E-01  0.51100000000E-03 0.  1.
</event>
<event>
 8    1  0.1122465E+005  0.1043930E+01  0.7957747E-01            NaN
         13   -1    0    0    0    0  0.00000000000E+00  0.00000000000E+00  0.74505805969E-08  0.10566000000E+00  0.10566000000E+00 0.  1.
     999900   -1    0    0    0    0 -0.00000000000E+00 -0.00000000000E+00 -0.74505805969E-08  0.93827000000E+00  0.93827000000E+00 0.  1.
     999902    2    1    2    0    0 -0.46800342543E-02 -0.23162524330E-01  0.18831764460E-02  0.10202244815E+01  0.10199490385E+01 0.  0.
     999903    2    3    3    0    0  0.28006092460E-01  0.59948490034E-01 -0.10864713228E+00  0.12882514745E+00  0.20336090827E-01 0.  0.
         14    1    1    2    0    0  0.46800342543E-02  0.23162524330E-01 -0.18831764460E-02  0.23705518503E-01  0.00000000000E+00 0.  1.
     999901    1    3    3    0    0 -0.32686126714E-01 -0.83111014365E-01  0.11053030873E+00  0.89139933405E+00  0.88000000000E+00 0. -1.
        -11    1    4    4    0    0  0.93617712130E-02  0.42694049102E-01 -0.65287653215E-01  0.78569481176E-01  0.51100000000E-03 0.  1.
         11    1    4    4    0    0  0.18644321247E-01  0.17254440932E-01 -0.43359479069E-01  0.50255666275E-01  0.51100000000E-03 0. -1.
</event>
<event>
 8    1  0.1122465E+005  0.1043930E+01  0.7957747E-01            NaN
         13   -1    0    0    0    0  0.00000000000E+00  0.00000000000E+00  0.74505805969E-08  0.10566000000E+00  0.10566000000E+00 0. -1.
     999900   -1    0    0    0    0 -0.00000000000E+00 -0.00000000000E+00 -0.74505805969E-08  0.93827000000E+00  0.93827000000E+00 0. -1.
     999902    2    1    2    0    0  0.11496550936E-02 -0.10069437649E-01 -0.21595902871E-01  0.10200742187E+01  0.10197952311E+01 0.  0.
     999903    2    3    3    0    0 -0.10652363570E+00  0.22305362986E-01  0.65571196802E-01  0.12864852434E+00  0.20150602609E-01 0.  0.
         14    1    1    2    0    0 -0.11496550936E-02  0.10069437649E-01  0.21595902871E-01  0.23855781317E-01  0.00000000000E+00 0. -1.
     999901    1    3    3    0    0  0.10767329079E+00 -0.32374800635E-01 -0.87167099673E-01  0.89142569434E+00  0.88000000000E+00 0.  1.
        -11    1    4    4    0    0 -0.51209313677E-01  0.98236175342E-02  0.43097384222E-01  0.67650150897E-01  0.51100000000E-03 0.  1.
         11    1    4    4    0    0 -0.55314322020E-01  0.12481745452E-01  0.22473812580E-01  0.60998373445E-01  0.51100000000E-03 0. -1.
</event>
<event>
 8    1  0.1122465E+005  0.1043930E+01  0.7957747E-01            NaN
         13   -1    0    0    0    0  0.00000000000E+00  0.00000000000E+00  0.74505805969E-08  0.10566000000E+00  0.10566000000E+00 0. -1.
     999900   -1    0    0    0    0 -0.00000000000E+00 -0.00000000000E+00 -0.74505805969E-08  0.93827000000E+00  0.93827000000E+00 0.  1.
     999902    2    1    2    0    0 -0.22078833308E-01  0.61148039990E-03  0.85409635368E-02  0.10202488504E+01  0.10199739800E+01 0.  0.
     999903    2    3    3    0    0 -0.53819230044E-01  0.37042958779E-01  0.11367683561E+00  0.13267448337E+00  0.20283127630E-01 0.  0.
         14    1    1    2    0    0  0.22078833308E-01 -0.61148039990E-03 -0.85409635368E-02  0.23681149606E-01  0.00000000000E+00 0. -1.
     999901    1    3    3    0    0  0.31740396736E-01 -0.36431478379E-01 -0.10513587207E+00  0.88757436702E+00  0.88000000000E+00 0.  1.
        -11    1    4    4    0    0 -0.16269759934E-01  0.22744883673E-01  0.41056897491E-01  0.49678614858E-01  0.51100000000E-03 0. -1.
         11    1    4    4    0    0 -0.37549470110E-01  0.14298075107E-01  0.72619938115E-01  0.82995868512E-01  0.51100000000E-03 0.  1.
</event>
<event>
 8    1  0.1122465E+005  0.1043930E+01  0.7957747E-01            NaN
         13   -1    0    0    0    0  0.00000000000E+00  0.00000000000E+00  0.74505805969E-08  0.10566000000E+00  0.10566000000E+00 0. -1.
     999900   -1    0    0    0    0 -0.00000000000E+00 -0.00000000000E+00 -0.74505805969E-08  0.93827000000E+00  0.93827000000E+00 0. -1.
     999902    2    1    2    0    0 -0.13210924383E-01  0.17650903884E-01  0.92620526003E-02  0.10200162268E+01  0.10197358650E+01 0.  0.
     999903    2    3    3    0    0 -0.10761055562E+00 -0.42772510128E-01  0.59019529506E-01  0.13151294269E+00  0.20070623527E-01 0.  0.
         14    1    1    2    0    0  0.13210924383E-01 -0.17650903884E-01 -0.92620526003E-02  0.23913773214E-01  0.00000000000E+00 0.  1.
     999901    1    3    3    0    0  0.94399631236E-01  0.60423414012E-01 -0.49757476906E-01  0.88850328409E+00  0.88000000000E+00 0.  1.
        -11    1    4    4    0    0 -0.73012707372E-01 -0.19731092553E-01  0.33390604754E-01  0.82676266594E-01  0.51100000000E-03 0. -1.
         11    1    4    4    0    0 -0.34597848247E-01 -0.23041417576E-01  0.25628924752E-01  0.48836676097E-01  0.51100000000E-03 0.  1.
</event>
<event>
 8    1  0.1122465E+005  0.1043930E+01  0.7957747E-01            NaN
         13   -1    0    0    0    0  0.00000000000E+00  0.00000000000E+00  0.74505805969E-08  0.10566000000E+00  0.10566000000E+00 0.  1.
     999900   -1    0    0    0    0 -0.00000000000E+00 -0.00000000000E+00 -0.74505805969E-08  0.93827000000E+00  0.93827000000E+00 0.  1.
     999902    2    1    2    0    0  0.27809754382E-02 -0.22498497106E-01 -0.25843148394E-02  0.10211134516E+01  0.10208585045E+01 0.  0.
     999903    2    3    3    0    0  0.11822789649E+00  0.39572886581E-01  0.33645034658E-01  0.13066782498E+00  0.19956033318E-01 0.  0.
         14    1    1    2    0    0 -0.27809754382E-02  0.22498497106E-01  0.25843148394E-02  0.22816548372E-01  0.00000000000E+00 0. -1.
     999901    1    3    3    0    0 -0.11544692106E+00 -0.62071383687E-01 -0.36229349497E-01  0.89044562665E+00  0.88000000000E+00 0.  1.
        -11    1    4    4    0    0  0.36256785246E-01  0.14663176328E-01  0.14355269461E-02  0.39139303456E-01  0.51100000000E-03 0. -1.
         11    1    4    4    0    0  0.81971111248E-01  0.24909710253E-01  0.32209507712E-01  0.91528521522E-01  0.51100000000E-03 0.  1.
</event>
<event>
 8    1  0.1122465E+005  0.1043930E+01  0.7957747E-01            NaN
         13   -1    0    0    0    0  0.00000000000E+00  0.00000000000E+00  0.74505805969E-08  0.10566000000E+00  0.10566000000E+00 0. -1.
     999900   -1    0    0    0    0 -0.00000000000E+00 -0.00000000000E+00 -0.74505805969E-08  0.93827000000E+00  0.93827000000E+00 0.  1.
     999902    2    1    2    0    0  0.98472318820E-02 -0.59691669130E-02 -0.21442245767E-01  0.10195913716E+01  0.10193008369E+01 0.  0.
     999903    2    3    3    0    0 -0.46583735001E-01  0.55238837916E-03 -0.12195446841E+00  0.13204999700E+00  0.19848421660E-01 0.  0.
         14    1    1    2    0    0 -0.98472318820E-02  0.59691669130E-02  0.21442245767E-01  0.24338628410E-01  0.00000000000E+00 0. -1.
     999901    1    3    3    0    0  0.56430966883E-01 -0.65215552922E-02  0.10051222265E+00  0.88754137459E+00  0.88000000000E+00 0. -1.
        -11    1    4    4    0    0 -0.40785881901E-01 -0.57880185210E-02 -0.90438697141E-01  0.99380120660E-01  0.51100000000E-03 0. -1.
         11    1    4    4    0    0 -0.57978530997E-02  0.63404069002E-02 -0.31515771272E-01  0.32669876340E-01  0.51100000000E-03 0.  1.
</event>
<event>
 8    1  0.1122465E+005  0.1043930E+01  0.7957747E-01            NaN
         13   -1    0    0    0    0  0.00000000000E+00  0.00000000000E+00  0.74505805969E-08  0.10566000000E+00  0.10566000000E+00 0. -1.
     999900   -1    0    0    0    0 -0.00000000000E+00 -0.00000000000E+00 -0.74505805969E-08  0.93827000000E+00  0.93827000000E+00 0. -1.
     999902    2    1    2    0    0 -0.21396830791E-01 -0.38705615278E-02 -0.84108980320E-02  0.10206158665E+01  0.10203495470E+01 0.  0.
     999903    2    3    3    0    0  0.12476677964E+00  0.21051363705E-01  0.54914825625E-02  0.12810358113E+00  0.19247386902E-01 0.  0.
         14    1    1    2    0    0  0.21396830791E-01  0.38705615278E-02  0.84108980320E-02  0.23314133485E-01  0.00000000000E+00 0.  1.
     999901    1    3    3    0    0 -0.14616361043E+00 -0.24921925233E-01 -0.13902380595E-01  0.89251228538E+00  0.88000000000E+00 0. -1.
        -11    1    4    4    0    0  0.41198714237E-01 -0.21309124242E-02  0.13312576957E-02  0.41278423063E-01  0.51100000000E-03 0.  1.
         11    1    4    4    0    0  0.83568065404E-01  0.23182276129E-01  0.41602248669E-02  0.86825158069E-01  0.51100000000E-03 0. -1.
</event>
<event>
 8    1  0.1122465E+005  0.1043930E+01  0.7957747E-01            NaN
         13   -1    0    0    0    0  0.00000000000E+00  0.00000000000E+00  0.74505805969E-08  0.10566000000E+00  0.10566000000E+00 0. -1.
     999900   -1    0    0    0    0 -0.00000000000E+00 -0.00000000000E+00 -0.74505805969E-08  0.93827000000E+00  0.93827000000E+00 0. -1.
     999902    2    1    2    0    0  0.19809343126E-01  0.12625810259E-01  0.36889538779E-02  0.10201512376E+01  0.10198740697E+01 0.  0.
     999903    2    3    3    0    0  0.25643938132E-01 -0.88692083941E-01 -0.88174755454E-01  0.12956811445E+00  0.22118125263E-01 0.  0.
         14    1    1    2    0    0 -0.19809343126E-01 -0.12625810259E-01 -0.36889538779E-02  0.23778762383E-01  0.00000000000E+00 0.  1.
     999901    1    3    3    0    0 -0.58345950061E-02  0.10131789420E+00  0.91863709331E-01  0.89058312317E+00  0.88000000000E+00 0.  1.
        -11    1    4    4    0    0  0.13964319419E-01 -0.68092749699E-01 -0.75791175842E-01  0.10284059624E+00  0.51100000000E-03 0. -1.
         11    1    4    4    0    0  0.11679618713E-01 -0.20599334242E-01 -0.12383579612E-01  0.26727518207E-01  0.51100000000E-03 0.  1.
</event>
<event>
 8    1  0.1122465E+005  0.1043930E+01  0.7957747E-01            NaN
         13   -1    0    0    0    0  0.00000000000E+00  0.00000000000E+00  0.74505805969E-08  0.10566000000E+00  0.10566000000E+00 0.  1.
     999900   -1    0    0    0    0 -0.00000000000E+00 -0.00000000000E+00 -0.74505805969E-08  0.93827000000E+00  0.93827000000E+00 0.  1.
     999902    2    1    2    0    0  0.71729766743E-02 -0.22544712204E-01 -0.20923491249E-02  0.10201793460E+01  0.10199028406E+01 0.  0.
     999903    2    3    3    0    0  0.40438482473E-02 -0.11562808495E+00 -0.62504685598E-01  0.13320473745E+00  0.21224034031E-01 0.  0.
         14    1    1    2    0    0 -0.71729766743E-02  0.22544712204E-01  0.20923491249E-02  0.23750654046E-01  0.00000000000E+00 0. -1.
     999901    1    3    3    0    0  0.31291284270E-02  0.93083372746E-01  0.60412336473E-01  0.88697460850E+00  0.88000000000E+00 0.  1.
        -11    1    4    4    0    0 -0.67378372827E-02 -0.24406222021E-01 -0.88599558167E-02  0.26829499858E-01  0.51100000000E-03 0.  1.
         11    1    4    4    0    0  0.10781685530E-01 -0.91221862930E-01 -0.53644729781E-01  0.10637523760E+00  0.51100000000E-03 0. -1.
</event>
<event>
 7    1  0.1122465E+005  0.1043930E+01  0.7957747E-01            NaN
         13   -1    0    0    0    0  0.00000000000E+00  0.00000000000E+00  0.74505805969E-08  0.10566000000E+00  0.10566000000E+00 0.  1.
     999900   -1    0    0    0    0 -0.00000000000E+00 -0.00000000000E+00 -0.74505805969E-08  0.93827000000E+00  0.93827000000E+00 0. -1.
     999902    2    1    2    0    0 -0.18045765159E-01  0.15257475641E-01 -0.39558042370E-02  0.10199698541E+01  0.10196883910E+01 0.  0.
         14    1    1    2    0    0  0.18045765159E-01 -0.15257475641E-01  0.39558042370E-02  0.23960145873E-01  0.00000000000E+00 0. -1.
     999901    1    3    3    0    0  0.95117785617E-01  0.54197554193E-01 -0.85813194761E-02  0.88682490215E+00  0.88000000000E+00 0.  1.
        -11    1    3    3    0    0 -0.44695030782E-01 -0.40840727777E-01  0.18392401619E-01  0.63278372137E-01  0.51100000000E-03 0. -1.
         11    1    3    3    0    0 -0.68468519994E-01  0.19006492255E-02 -0.13766886380E-01  0.69866579845E-01  0.51100000000E-03 0.  1.
</event>
<event>
 8    1  0.1122465E+005  0.1043930E+01  0.7957747E-01            NaN
         13   -1    0    0    0    0  0.00000000000E+00  0.00000000000E+00  0.74505805969E-08  0.10566000000E+00  0.10566000000E+00 0.  1.
     999900   -1    0    0    0    0 -0.00000000000E+00 -0.00000000000E+00 -0.74505805969E-08  0.93827000000E+00  0.93827000000E+00 0.  1.
     999902    2    1    2    0    0 -0.22808742327E-01 -0.35271417637E-02 -0.70984797012E-02  0.10197832017E+01  0.10194972832E+01 0.  0.
     999903    2    3    3    0    0 -0.30926826344E-01 -0.12190055435E+00  0.30709470906E-01  0.13101573533E+00  0.20145410421E-01 0.  0.
         14    1    1    2    0    0  0.22808742327E-01  0.35271417637E-02  0.70984797012E-02  0.24146798330E-01  0.00000000000E+00 0.  1.
     999901    1    3    3    0    0  0.81180840176E-02  0.11837341259E+00 -0.37807950608E-01  0.88876746634E+00  0.88000000000E+00 0.  1.
        -11    1    4    4    0    0 -0.29136211238E-01 -0.11721939603E+00  0.33378643134E-01  0.12531440679E+00  0.51100000000E-03 0. -1.
         11    1    4    4    0    0 -0.17906151066E-02 -0.46811583203E-02 -0.26691722281E-02  0.57013285349E-02  0.51100000000E-03 0.  1.
</event>
<event>
 8    1  0.1122465E+005  0.1043930E+01  0.7957747E-01            NaN
         13   -1    0    0    0    0  0.00000000000E+00  0.00000000000E+00  0.74505805969E-08  0.10566000000E+00  0.10566000000E+00 0.  1.
     999900   -1    0    0    0    0 -0.00000000000E+00 -0.00000000000E+00 -0.74505805969E-08  0.93827000000E+00  0.93827000000E+00 0. -1.
     999902    2    1    2    0    0 -0.11626630592E-01  0.65814615467E-02  0.19616475310E-01  0.10201960522E+01  0.10199199403E+01 0.  0.
     999903    2    3    3    0    0  0.26944841752E-01  0.15950511189E-01 -0.12188922677E+00  0.12800806679E+00  0.23423028362E-01 0.  0.
         14    1    1    2    0    0  0.11626630592E-01 -0.65814615467E-02 -0.19616475310E-01  0.23733947809E-01  0.00000000000E+00 0.  1.
     999901    1    3    3    0    0 -0.38571472344E-01 -0.93690496423E-02  0.14150570208E+00  0.89218798540E+00  0.88000000000E+00 0.  1.
        -11    1    4    4    0    0  0.26900055552E-01  0.18387397952E-01 -0.84967509917E-01  0.91002462904E-01  0.51100000000E-03 0. -1.
         11    1    4    4    0    0  0.44786199315E-04 -0.24368867632E-02 -0.36921716850E-01  0.37005603888E-01  0.51100000000E-03 0.  1.
</event>
<event>
 8    1  0.1122465E+005  0.1043930E+01  0.7957747E-01            NaN
         13   -1    0    0    0    0  0.00000000000E+00  0.00000000000E+00  0.74505805969E-08  0.10566000000E+00  0.10566000000E+00 0. -1.
     999900   -1    0    0    0    0 -0.00000000000E+00 -0.00000000000E+00 -0.74505805969E-08  0.93827000000E+00  0.93827000000E+00 0.  1.
     999902    2    1    2    0    0  0.15005610712E-02  0.21256918574E-01 -0.17533493780E-01  0.10163341366E+01  0.10159594212E+01 0.  0.
     999903    2    3    3    0    0  0.98369702117E-01 -0.18572655579E-02 -0.80205695726E-01  0.12850211373E+00  0.19994796238E-01 0.  0.
         14    1    1    2    0    0 -0.15005610712E-02 -0.21256918574E-01  0.17533493780E-01  0.27595863366E-01  0.00000000000E+00 0.  1.
     999901    1    3    3    0    0 -0.96869141046E-01  0.23114184131E-01  0.62672201945E-01  0.88783202290E+00  0.88000000000E+00 0.  1.
        -11    1    4    4    0    0  0.58400925184E-01  0.20562135913E-02 -0.59168534396E-01  0.83162928401E-01  0.51100000000E-03 0.  1.
         11    1    4    4    0    0  0.39968776933E-01 -0.39134791492E-02 -0.21037161329E-01  0.45339185330E-01  0.51100000000E-03 0. -1.
</event>
<event>
 7    1  0.1122465E+005  0.1043930E+01  0.7957747E-01            NaN
         13   -1    0    0    0    0  0.00000000000E+00  0.00000000000E+00  0.74505805969E-08  0.10566000000E+00  0.10566000000E+00 0.  1.
     999900   -1    0    0    0    0 -0.00000000000E+00 -0.00000000000E+00 -0.74505805969E-08  0.93827000000E+00  0.93827000000E+00 0.  1.
     999903    2    1    2    0    0 -0.54304861426E-01  0.73401095448E-01  0.48459505628E-01  0.10532161284E+00  0.20188602172E-01 0.  0.
         14    1    1    2    0    0 -0.27536725763E-01  0.95803765353E-02 -0.41720152951E-01  0.50898192920E-01  0.00000000000E+00 0. -1.
     999901    1    1    2    0    0  0.81841587188E-01 -0.82981471983E-01 -0.67393526772E-02  0.88771019424E+00  0.88000000000E+00 0.  1.
        -11    1    3    3    0    0 -0.13652830741E-01  0.13707439032E-01  0.19603466600E-01  0.27547244795E-01  0.51100000000E-03 0.  1.
         11    1    3    3    0    0 -0.40652030685E-01  0.59693656416E-01  0.28856039028E-01  0.77774368043E-01  0.51100000000E-03 0. -1.
</event>
<event>
 8    1  0.1122465E+005  0.1043930E+01  0.7957747E-01            NaN
         13   -1    0    0    0    0  0.00000000000E+00  0.00000000000E+00  0.74505805969E-08  0.10566000000E+00  0.10566000000E+00 0.  1.
     999900   -1    0    0    0    0 -0.00000000000E+00 -0.00000000000E+00 -0.74505805969E-08  0.93827000000E+00  0.93827000000E+00 0.  1.
     999902    2    1    2    0    0 -0.77126498872E-03 -0.17712967859E-01  0.71705288553E-02  0.10248051323E+01  0.10246266631E+01 0.  0.
     999903    2    3    3    0    0  0.11334098800E+00 -0.47888555208E-01  0.53664860233E-01  0.13570789623E+00  0.19930443920E-01 0.  0.
         14    1    1    2    0    0  0.77126498872E-03  0.17712967859E-01 -0.71705288553E-02  0.19124867689E-01  0.00000000000E+00 0. -1.
     999901    1    3    3    0    0 -0.11411225299E+00  0.30175587349E-01 -0.46494331378E-01  0.88909723608E+00  0.88000000000E+00 0.  1.
        -11    1    4    4    0    0  0.26063725650E-01 -0.59812842746E-02  0.45015219593E-02  0.27122285621E-01  0.51100000000E-03 0.  1.
         11    1    4    4    0    0  0.87277262350E-01 -0.41907270934E-01  0.49163338274E-01  0.10858561061E+00  0.51100000000E-03 0. -1.
</event>
<event>
 8    1  0.1122465E+005  0.1043930E+01  0.7957747E-01            NaN
         13   -1    0    0    0    0  0.00000000000E+00  0.00000000000E+00  0.74505805969E-08  0.10566000000E+00  0.10566000000E+00 0.  1.
     999900   -1    0    0    0    0 -0.00000000000E+00 -0.00000000000E+00 -0.74505805969E-08  0.93827000000E+00  0.93827000000E+00 0. -1.
     999902    2    1    2    0    0 -0.20818643016E-01  0.34284031693E-02 -0.94352449502E-02  0.10208173694E+01  0.10205556859E+01 0.  0.
     999903    2    3    3    0    0 -0.36332291287E-01  0.34644687853E-02  0.12345679765E+00  0.13070447232E+00  0.22584071071E-01 0.  0.
         14    1    1    2    0    0  0.20818643016E-01 -0.34284031693E-02  0.94352449502E-02  0.23112630586E-01  0.00000000000E+00 0.  1.
     999901    1    3    3    0    0  0.15513648271E-01 -0.36065615979E-04 -0.13289204260E+00  0.89011289709E+00  0.88000000000E+00 0. -1.
        -11    1    4    4    0    0 -0.26607946656E-01 -0.78874552549E-02  0.73945284288E-01  0.78983295482E-01  0.51100000000E-03 0. -1.
         11    1    4    4    0    0 -0.97243446312E-02  0.11351924040E-01  0.49511513357E-01  0.51721176841E-01  0.51100000000E-03 0.  1.
</event>
<event>
 8    1  0.1122465E+005  0.1043930E+01  0.7957747E-01            NaN
         13   -1    0    0    0    0  0.00000000000E+00  0.00000000000E+00  0.74505805969E-08  0.10566000000E+00  0.10566000000E+00 0.  1.
     999900   -1    0    0    0    0 -0.00000000000E+00 -0.00000000000E+00 -0.74505805969E-08  0.93827000000E+00  0.93827000000E+00 0.  1.
     999902    2    1    2    0    0 -0.33533907431E-02 -0.15154130483E-02 -0.21993090157E-01  0.10216311722E+01  0.10213877884E+01 0.  0.
     999903    2    3    3    0    0  0.43682032526E-01 -0.68017728362E-01  0.99284437281E-01  0.12958681925E+00  0.20020312189E-01 0.  0.
         14    1    1    2    0    0  0.33533907431E-02  0.15154130483E-02  0.21993090157E-01  0.22298827791E-01  0.00000000000E+00 0.  1.
     999901    1    3    3    0    0 -0.47035423270E-01  0.66502315314E-01 -0.12127752744E+00  0.89204435296E+00  0.88000000000E+00 0.  1.
        -11    1    4    4    0    0  0.91797336329E-02 -0.28728633064E-01  0.27816648183E-01  0.41032047285E-01  0.51100000000E-03 0.  1.
         11    1    4    4    0    0  0.34502298894E-01 -0.39289095298E-01  0.71467789098E-01  0.88554771965E-01  0.51100000000E-03 0. -1.
</event>
<event>
 8    1  0.1122465E+005  0.1043930E+01  0.7957747E-01            NaN
         13   -1    0    0    0    0  0.00000000000E+00  0.00000000000E+00  0.74505805969E-08  0.10566000000E+00  0.10566000000E+00 0.  1.
     999900   -1    0    0    0    0 -0.00000000000E+00 -0.00000000000E+00 -0.74505805969E-08  0.93827000000E+00  0.93827000000E+00 0.  1.
     999902    2    1    2    0    0 -0.68767484225E-02 -0.19493448468E-01 -0.56496726878E-02  0.10225009775E+01  0.10222764039E+01 0.  0.
     999903    2    3    3    0    0 -0.12796182506E+00 -0.33967003708E-01  0.30816050713E-02  0.13404877579E+00  0.20774792143E-01 0.  0.
         14    1    1    2    0    0  0.68767484225E-02  0.19493448468E-01  0.56496726878E-02  0.21429022458E-01  0.00000000000E+00 0. -1.
     999901    1    3    3    0    0  0.12108507663E+00  0.14473555240E-01 -0.87312777590E-02  0.88845220175E+00  0.88000000000E+00 0. -1.
        -11    1    4    4    0    0 -0.54212214497E-01 -0.24742407873E-01  0.38608225837E-02  0.59718657219E-01  0.51100000000E-03 0.  1.
         11    1    4    4    0    0 -0.73749610559E-01 -0.92245958349E-02 -0.77921751240E-03  0.74330118572E-01  0.51100000000E-03 0. -1.
</event>
<event>
 8    1  0.1122465E+005  0.1043930E+01  0.7957747E-01            NaN
         13   -1    0    0    0    0  0.00000000000E+00  0.00000000000E+00  0.74505805969E-08  0.10566000000E+00  0.10566000000E+00 0.  1.
     999900   -1    0    0    0    0 -0.00000000000E+00 -0.00000000000E+00 -0.74505805969E-08  0.93827000000E+00  0.93827000000E+00 0. -1.
     999902    2    1    2    0    0 -0.86129640255E-02 -0.11736402591E-01  0.18676859281E-01  0.10202498106E+01  0.10199749628E+01 0.  0.
     999903    2    3    3    0    0  0.57393537177E-02  0.12396791060E+00  0.31745639828E-01  0.12963629028E+00  0.19919815986E-01 0.  0.
         14    1    1    2    0    0  0.86129640255E-02  0.11736402591E-01 -0.18676859281E-01  0.23680189351E-01  0.00000000000E+00 0. -1.
     999901    1    3    3    0    0 -0.14352317743E-01 -0.13570431319E+00 -0.13068780547E-01  0.89061352037E+00  0.88000000000E+00 0. -1.
        -11    1    4    4    0    0 -0.27415860256E-02  0.24394112278E-01  0.13595711633E-01  0.28065877923E-01  0.51100000000E-03 0.  1.
         11    1    4    4    0    0  0.84809397433E-02  0.99573798323E-01  0.18149928195E-01  0.10157041235E+00  0.51100000000E-03 0. -1.
</event>
<event>
 8    1  0.1122465E+005  0.1043930E+01  0.7957747E-01            NaN
         13   -1    0    0    0    0  0.00000000000E+00  0.00000000000E+00  0.74505805969E-08  0.10566000000E+00  0.10566000000E+00 0. -1.
     999900   -1    0    0    0    0 -0.00000000000E+00 -0.00000000000E+00 -0.74505805969E-08  0.93827000000E+00  0.93827000000E+00 0.  1.
     999902    2    1    2    0    0 -0.14168393700E-01  0.84254318782E-04  0.18678382983E-01  0.10204857583E+01  0.10202164233E+01 0.  0.
     999903    2    3    3    0    0  0.12462691770E-01  0.33878056277E-01  0.12646641108E+00  0.13286562852E+00  0.18880697234E-01 0.  0.
         14    1    1    2    0    0  0.14168393700E-01 -0.84254318782E-04 -0.18678382983E-01  0.23444241717E-01  0.00000000000E+00 0. -1.
     999901    1    3    3    0    0 -0.26631085470E-01 -0.33793801958E-01 -0.10778802809E+00  0.88762012977E+00  0.88000000000E+00 0.  1.
        -11    1    4    4    0    0  0.18086043615E-02  0.21757676311E-01  0.47701126949E-01  0.52462616799E-01  0.51100000000E-03 0.  1.
         11    1    4    4    0    0  0.10654087409E-01  0.12120379965E-01  0.78765284126E-01  0.80403011719E-01  0.51100000000E-03 0. -1.
</event>
<event>
 8    1  0.1122465E+005  0.1043930E+01  0.7957747E-01            NaN
         13   -1    0    0    0    0  0.00000000000E+00  0.00000000000E+00  0.74505805969E-08  0.10566000000E+00  0.10566000000E+00 0.  1.
     999900   -1    0    0    0    0 -0.00000000000E+00 -0.00000000000E+00 -0.74505805969E-08  0.93827000000E+00  0.93827000000E+00 0. -1.
     999902    2    1    2    0    0  0.74585869729E-02  0.26015362624E-02 -0.24296591789E-01  0.10183815581E+01  0.10180610370E+01 0.  0.
     999903    2    3    3    0    0  0.10935611932E-01 -0.84875256123E-01  0.91120261159E-01  0.12653777759E+00  0.19634420104E-01 0.  0.
         14    1    1    2    0    0 -0.74585869729E-02 -0.26015362624E-02  0.24296591789E-01  0.25548441892E-01  0.00000000000E+00 0.  1.
     999901    1    3    3    0    0 -0.34770249592E-02  0.87476792385E-01 -0.11541685295E+00  0.89184378052E+00  0.88000000000E+00 0. -1.
        -11    1    4    4    0    0  0.76893802596E-02 -0.36861836492E-01  0.53637046227E-01  0.65537129990E-01  0.51100000000E-03 0.  1.
         11    1    4    4    0    0  0.32462316725E-02 -0.48013419630E-01  0.37483214933E-01  0.61000647598E-01  0.51100000000E-03 0. -1.
</event>
<event>
 7    1  0.1122465E+005  0.1043930E+01  0.7957747E-01            NaN
         13   -1    0    0    0    0  0.00000000000E+00  0.00000000000E+00  0.74505805969E-08  0.10566000000E+00  0.10566000000E+00 0. -1.
     999900   -1    0    0    0    0 -0.00000000000E+00 -0.00000000000E+00 -0.74505805969E-08  0.93827000000E+00  0.93827000000E+00 0.  1.
     999903    2    1    2    0    0  0.11698472132E-01  0.63659214715E-01 -0.58452395453E-01  0.87692915091E-01  0.91659671916E-02 0.  0.
         14    1    1    2    0    0 -0.11778211373E-02  0.22690636098E-01 -0.59898751800E-01  0.64063349088E-01  0.00000000000E+00 0.  1.
     999901    1    1    2    0    0 -0.10520650995E-01 -0.86349850813E-01  0.11835114725E+00  0.89217373582E+00  0.88000000000E+00 0. -1.
        -11    1    3    3    0    0  0.65082492512E-02  0.41642751865E-01 -0.43504061906E-01  0.60575082456E-01  0.51100000000E-03 0.  1.
         11    1    3    3    0    0  0.51902228813E-02  0.22016462850E-01 -0.14948333547E-01  0.27117832635E-01  0.51100000000E-03 0. -1.
</event>
<event>
 8    1  0.1122465E+005  0.1043930E+01  0.7957747E-01            NaN
         13   -1    0    0    0    0  0.00000000000E+00  0.00000000000E+00  0.74505805969E-08  0.10566000000E+00  0.10566000000E+00 0. -1.
     999900   -1    0    0    0    0 -0.00000000000E+00 -0.00000000000E+00 -0.74505805969E-08  0.93827000000E+00  0.93827000000E+00 0. -1.
     999902    2    1    2    0    0 -0.22972374307E-02 -0.21027962995E-01 -0.58981512187E-02  0.10219700201E+01  0.10217340561E+01 0.  0.
     999903    2    3    3    0    0 -0.47760119160E-01 -0.86034520564E-01  0.88676737262E-01  0.13335472899E+00  0.15393255055E-01 0.  0.
         14    1    1    2    0    0  0.22972374307E-02  0.21027962995E-01  0.58981512187E-02  0.21959979857E-01  0.00000000000E+00 0.  1.
     999901    1    3    3    0    0  0.45462881730E-01  0.65006557569E-01 -0.94574888481E-01  0.88861529115E+00  0.88000000000E+00 0. -1.
        -11    1    4    4    0    0 -0.71926314329E-02 -0.23413822196E-01  0.27817868006E-01  0.37067990479E-01  0.51100000000E-03 0.  1.
         11    1    4    4    0    0 -0.40567487727E-01 -0.62620698368E-01  0.60858869256E-01  0.96286738510E-01  0.51100000000E-03 0. -1.
</event>
<event>
 8    1  0.1122465E+005  0.1043930E+01  0.7957747E-01            NaN
         13   -1    0    0    0    0  0.00000000000E+00  0.00000000000E+00  0.74505805969E-08  0.10566000000E+00  0.10566000000E+00 0. -1.
     999900   -1    0    0    0    0 -0.00000000000E+00 -0.00000000000E+00 -0.74505805969E-08  0.93827000000E+00  0.93827000000E+00 0.  1.
     999902    2    1    2    0    0 -0.20178696857E-01  0.88424618578E-02 -0.71453408091E-02  0.10207691530E+01  0.10205063640E+01 0.  0.
     999903    2    3    3    0    0  0.25480305996E-01 -0.86536771931E-01 -0.91964077790E-01  0.13038936834E+00  0.20152838096E-01 0.  0.
         14    1    1    2    0    0  0.20178696857E-01 -0.88424618578E-02  0.71453408091E-02  0.23160847002E-01  0.00000000000E+00 0. -1.
     999901    1    3    3    0    0 -0.45659002854E-01  0.95379233788E-01  0.84818736981E-01  0.89037978466E+00  0.88000000000E+00 0. -1.
        -11    1    4    4    0    0  0.90578426948E-02 -0.10259853656E-01 -0.20024472783E-01  0.24260044159E-01  0.51100000000E-03 0.  1.
         11    1    4    4    0    0  0.16422463301E-01 -0.76276918274E-01 -0.71939605006E-01  0.10612932418E+00  0.51100000000E-03 0. -1.
</event>
<event>
 8    1  0.1122465E+005  0.1043930E+01  0.7957747E-01            NaN
         13   -1    0    0    0    0  0.00000000000E+00  0.00000000000E+00  0.74505805969E-08  0.10566000000E+00  0.10566000000E+00 0.  1.
     999900   -1    0    0    0    0 -0.00000000000E+00 -0.00000000000E+00 -0.74505805969E-08  0.93827000000E+00  0.93827000000E+00 0.  1.
     999902    2    1    2    0    0 -0.14170203719E-01 -0.16309995567E-01 -0.30522895161E-02  0.10221096632E+01  0.10218767227E+01 0.  0.
     999903    2    3    3    0    0  0.68776815941E-01 -0.96419432532E-01 -0.56846488612E-01  0.13295751317E+00  0.20474854340E-01 0.  0.
         14    1    1    2    0    0  0.14170203719E-01  0.16309995567E-01  0.30522895161E-02  0.21820336847E-01  0.00000000000E+00 0. -1.
     999901    1    3    3    0    0 -0.82947019659E-01  0.80109436965E-01  0.53794199096E-01  0.88915214998E+00  0.88000000000E+00 0.  1.
        -11    1    4    4    0    0  0.30500792554E-01 -0.58553872860E-01 -0.36157774655E-01  0.75276159322E-01  0.51100000000E-03 0. -1.
         11    1    4    4    0    0  0.38276023387E-01 -0.37865559673E-01 -0.20688713957E-01  0.57681353849E-01  0.51100000000E-03 0.  1.
</event>
<event>
 8    1  0.1122465E+005  0.1043930E+01  0.7957747E-01            NaN
         13   -1    0    0    0    0  0.00000000000E+00  0.00000000000E+00  0.74505805969E-08  0.10566000000E+00  0.10566000000E+00 0. -1.
     999900   -1    0    0    0    0 -0.00000000000E+00 -0.00000000000E+00 -0.74505805969E-08  0.93827000000E+00  0.93827000000E+00 0.  1.
     999902    2    1    2    0    0  0.12098565903E-01 -0.15322385458E-01 -0.11191738314E-01  0.10214265381E+01  0.10211786165E+01 0.  0.
     999903    2    3    3    0    0  0.29826478817E-01  0.80671514548E-01 -0.97829235452E-01  0.13180012003E+00  0.20079846440E-01 0.  0.
         14    1    1    2    0    0 -0.12098565903E-01  0.15322385458E-01  0.11191738314E-01  0.22503461945E-01  0.00000000000E+00 0.  1.
     999901    1    3    3    0    0 -0.17727912914E-01 -0.95993900006E-01  0.86637497139E-01  0.88962641802E+00  0.88000000000E+00 0.  1.
        -11    1    4    4    0    0  0.97202030510E-02  0.52285615885E-01 -0.53340825410E-01  0.75324449896E-01  0.51100000000E-03 0.  1.
         11    1    4    4    0    0  0.20106275766E-01  0.28385898663E-01 -0.44488410043E-01  0.56475670135E-01  0.51100000000E-03 0. -1.
</event>
<event>
 8    1  0.1122465E+005  0.1043930E+01  0.7957747E-01            NaN
         13   -1    0    0    0    0  0.00000000000E+00  0.00000000000E+00  0.74505805969E-08  0.10566000000E+00  0.10566000000E+00 0.  1.
     999900   -1    0    0    0    0 -0.00000000000E+00 -0.00000000000E+00 -0.74505805969E-08  0.93827000000E+00  0.93827000000E+00 0. -1.
     999902    2    1    2    0    0  0.50324760546E-02 -0.17105892113E-01 -0.47327541517E-02  0.10254817935E+01  0.10253158404E+01 0.  0.
     999903    2    3    3    0    0  0.25028137079E-01 -0.10960041356E+00 -0.76788736720E-01  0.13748003250E+00  0.19120432833E-01 0.  0.
         14    1    1    2    0    0 -0.50324760546E-02  0.17105892113E-01  0.47327541517E-02  0.18448206473E-01  0.00000000000E+00 0. -1.
     999901    1    3    3    0    0 -0.19995661024E-01  0.92494521447E-01  0.72055982569E-01  0.88800176102E+00  0.88000000000E+00 0. -1.
        -11    1    4    4    0    0  0.14969146826E-01 -0.69790500318E-01 -0.37423459109E-01  0.80595072455E-01  0.51100000000E-03 0. -1.
         11    1    4    4    0    0  0.10058990252E-01 -0.39809913242E-01 -0.39365277611E-01  0.56884960048E-01  0.51100000000E-03 0.  1.
</event>
<event>
 8    1  0.1122465E+005  0.1043930E+01  0.7957747E-01            NaN
         13   -1    0    0    0    0  0.00000000000E+00  0.00000000000E+00  0.74505805969E-08  0.10566000000E+00  0.10566000000E+00 0.  1.
     999900   -1    0    0    0    0 -0.00000000000E+00 -0.00000000000E+00 -0.74505805969E-08  0.93827000000E+00  0.93827000000E+00 0. -1.
     999902    2    1    2    0    0  0.92596438497E-02  0.15715728192E-01  0.15047321943E-01  0.10202837103E+01  0.10200096581E+01 0.  0.
     999903    2    3    3    0    0 -0.46549450597E-03 -0.95289535592E-01  0.86674295463E-01  0.13036957390E+00  0.20086812265E-01 0.  0.
         14    1    1    2    0    0 -0.92596438497E-02 -0.15715728192E-01 -0.15047321943E-01  0.23646289655E-01  0.00000000000E+00 0.  1.
     999901    1    3    3    0    0  0.97251383557E-02  0.11100526378E+00 -0.71626973521E-01  0.88991413644E+00  0.88000000000E+00 0. -1.
        -11    1    4    4    0    0 -0.57215521088E-02 -0.54861248205E-01  0.38554333169E-01  0.67299260325E-01  0.51100000000E-03 0.  1.
         11    1    4    4    0    0  0.52560576029E-02 -0.40428287387E-01  0.48119962295E-01  0.63070313578E-01  0.51100000000E-03 0. -1.
</event>
<event>
 8    1  0.1122465E+005  0.1043930E+01  0.7957747E-01            NaN
         13   -1    0    0    0    0  0.00000000000E+00  0.00000000000E+00  0.74505805969E-08  0.10566000000E+00  0.10566000000E+00 0. -1.
     999900   -1    0    0    0    0 -0.00000000000E+00 -0.00000000000E+00 -0.74505805969E-08  0.93827000000E+00  0.93827000000E+00 0. -1.
     999902    2    1    2    0    0 -0.78384937967E-02 -0.34191075203E-02 -0.20791317004E-01  0.10214486490E+01  0.10212012198E+01 0.  0.
     999903    2    3    3    0    0  0.55483602522E-01  0.51812034257E-01 -0.10767098745E+00  0.13318728876E+00  0.19567710829E-01 0.  0.
         14    1    1    2    0    0  0.78384937967E-02  0.34191075203E-02  0.20791317004E-01  0.22481351027E-01  0.00000000000E+00 0. -1.
     999901    1    3    3    0    0 -0.63322096318E-01 -0.55231141778E-01  0.86879670445E-01  0.88826136021E+00  0.88000000000E+00 0. -1.
        -11    1    4    4    0    0  0.21971061521E-01  0.31857212326E-01 -0.62417835862E-01  0.73442881726E-01  0.51100000000E-03 0. -1.
         11    1    4    4    0    0  0.33512541000E-01  0.19954821931E-01 -0.45253151587E-01  0.59744407037E-01  0.51100000000E-03 0.  1.
</event>
<event>
 8    1  0.1122465E+005  0.1043930E+01  0.7957747E-01            NaN
         13   -1    0    0    0    0  0.00000000000E+00  0.00000000000E+00  0.74505805969E-08  0.10566000000E+00  0.10566000000E+00 0.  1.
     999900   -1    0    0    0    0 -0.00000000000E+00 -0.00000000000E+00 -0.74505805969E-08  0.93827000000E+00  0.93827000000E+00 0.  1.
     999902    2    1    2    0    0  0.23380255200E-01  0.27919007052E-02 -0.14134101397E-02  0.10203412575E+01  0.10200685531E+01 0.  0.
     999903    2    3    3    0    0 -0.68204119839E-01  0.15082353568E-01 -0.10713714008E+00  0.12920924708E+00  0.18367999217E-01 0.  0.
         14    1    1    2    0    0 -0.23380255200E-01 -0.27919007052E-02  0.14134101397E-02  0.23588742463E-01  0.00000000000E+00 0.  1.
     999901    1    3    3    0    0  0.91584375040E-01 -0.12290452863E-01  0.10572372994E+00  0.89113201045E+00  0.88000000000E+00 0. -1.
        -11    1    4    4    0    0 -0.22175289673E-01  0.13804083981E-01 -0.36463093419E-01  0.44856599395E-01  0.51100000000E-03 0. -1.
         11    1    4    4    0    0 -0.46028830166E-01  0.12782695875E-02 -0.70674046660E-01  0.84352647688E-01  0.51100000000E-03 0.  1.
</event>
<event>
 8    1  0.1122465E+005  0.1043930E+01  0.7957747E-01            NaN
         13   -1    0    0    0    0  0.00000000000E+00  0.00000000000E+00  0.74505805969E-08  0.10566000000E+00  0.10566000000E+00 0. -1.
     999900   -1    0    0    0    0 -0.00000000000E+00 -0.00000000000E+00 -0.74505805969E-08  0.93827000000E+00  0.93827000000E+00 0. -1.
     999902    2    1    2    0    0 -0.23043751826E-02  0.17139738903E-01 -0.15395480036E-01  0.10207761321E+01  0.10205135032E+01 0.  0.
     999903    2    3    3    0    0  0.84210087143E-01 -0.66953922019E-01 -0.72143888429E-01  0.13073294331E+00  0.17669051430E-01 0.  0.
         14    1    1    2    0    0  0.23043751826E-02 -0.17139738903E-01  0.15395480036E-01  0.23153867932E-01  0.00000000000E+00 0. -1.
     999901    1    3    3    0    0 -0.86514462326E-01  0.84093660922E-01  0.56748408393E-01  0.89004318876E+00  0.88000000000E+00 0. -1.
        -11    1    4    4    0    0  0.10067670304E-01 -0.68045179307E-02 -0.15565290359E-01  0.19753451207E-01  0.51100000000E-03 0. -1.
         11    1    4    4    0    0  0.74142416839E-01 -0.60149404089E-01 -0.56578598071E-01  0.11097949210E+00  0.51100000000E-03 0.  1.
</event>
<event>
 8    1  0.1122465E+005  0.1043930E+01  0.7957747E-01            NaN
         13   -1    0    0    0    0  0.00000000000E+00  0.00000000000E+00  0.74505805969E-08  0.10566000000E+00  0.10566000000E+00 0. -1.
     999900   -1    0    0    0    0 -0.00000000000E+00 -0.00000000000E+00 -0.74505805969E-08  0.93827000000E+00  0.93827000000E+00 0. -1.
     999902    2    1    2    0    0  0.89868386053E-02  0.21688691012E-01  0.67704425449E-03  0.10204433873E+01  0.10201730666E+01 0.  0.
     999903    2    3    3    0    0  0.41995540231E-01  0.98189066356E-01  0.77069716924E-01  0.13321302139E+00  0.20031216862E-01 0.  0.
         14    1    1    2    0    0 -0.89868386053E-02 -0.21688691012E-01 -0.67704425449E-03  0.23486612673E-01  0.00000000000E+00 0. -1.
     999901    1    3    3    0    0 -0.33008701626E-01 -0.76500375344E-01 -0.76392672669E-01  0.88723036594E+00  0.88000000000E+00 0. -1.
        -11    1    4    4    0    0  0.29786580885E-01  0.44872559482E-01  0.41022544531E-01  0.67704484904E-01  0.51100000000E-03 0.  1.
         11    1    4    4    0    0  0.12208959346E-01  0.53316506874E-01  0.36047172393E-01  0.65508536482E-01  0.51100000000E-03 0. -1.
</event>
<event>
 8    1  0.1122465E+005  0.1043930E+01  0.7957747E-01            NaN
         13   -1    0    0    0    0  0.00000000000E+00  0.00000000000E+00  0.74505805969E-08  0.10566000000E+00  0.10566000000E+00 0.  1.
     999900   -1    0    0    0    0 -0.00000000000E+00 -0.00000000000E+00 -0.74505805969E-08  0.93827000000E+00  0.93827000000E+00 0.  1.
     999902    2    1    2    0    0  0.95694700195E-02  0.10383691240E-01  0.18305874113E-01  0.10208107261E+01  0.10205488904E+01 0.  0.
     999903    2    3    3    0    0 -0.31133853423E-01  0.11088082522E+00 -0.58793700553E-01  0.13081028849E+00  0.19767602780E-01 0.  0.
         14    1    1    2    0    0 -0.95694700195E-02 -0.10383691240E-01 -0.18305874113E-01  0.23119273935E-01  0.00000000000E+00 0. -1.
     999901    1    3    3    0    0  0.40703323442E-01 -0.10049713398E+00  0.77099574666E-01  0.89000043758E+00  0.88000000000E+00 0. -1.
        -11    1    4    4    0    0  0.20522260283E-02  0.19460583186E-01 -0.89700755512E-02  0.21532517410E-01  0.51100000000E-03 0.  1.
         11    1    4    4    0    0 -0.33186079451E-01  0.91420242030E-01 -0.49823625002E-01  0.10927777108E+00  0.51100000000E-03 0. -1.
</event>
<event>
 8    1  0.1122465E+005  0.1043930E+01  0.7957747E-01            NaN
         13   -1    0    0    0    0  0.00000000000E+00  0.00000000000E+00  0.74505805969E-08  0.10566000000E+00  0.10566000000E+00 0.  1.
     999900   -1    0    0    0    0 -0.00000000000E+00 -0.00000000000E+00 -0.74505805969E-08  0.93827000000E+00  0.93827000000E+00 0.  1.
     999902    2    1    2    0    0 -0.22059031564E-01 -0.11537445760E-01  0.56998967916E-02  0.10183917473E+01  0.10180714850E+01 0.  0.
     999903    2    3    3    0    0 -0.24051646746E-01 -0.72071563552E-01  0.10482081886E+00  0.13075820402E+00  0.18371496100E-01 0.  0.
         14    1    1    2    0    0  0.22059031564E-01  0.11537445760E-01 -0.56998967916E-02  0.25538252713E-01  0.00000000000E+00 0.  1.
     999901    1    3    3    0    0  0.19926151821E-02  0.60534117792E-01 -0.99120922070E-01  0.88763354326E+00  0.88000000000E+00 0. -1.
        -11    1    4    4    0    0 -0.21342103955E-01 -0.50217518795E-01  0.61918109502E-01  0.82531194105E-01  0.51100000000E-03 0. -1.
         11    1    4    4    0    0 -0.27095427915E-02 -0.21854044757E-01  0.42902709359E-01  0.48227009919E-01  0.51100000000E-03 0.  1.
</event>
<event>
 8    1  0.1122465E+005  0.1043930E+01  0.7957747E-01            NaN
         13   -1    0    0    0    0  0.00000000000E+00  0.00000000000E+00  0.74505805969E-08  0.10566000000E+00  0.10566000000E+00 0.  1.
     999900   -1    0    0    0    0 -0.00000000000E+00 -0.00000000000E+00 -0.74505805969E-08  0.93827000000E+00  0.93827000000E+00 0. -1.
     999902    2    1    2    0    0  0.20961656124E-01 -0.55524053129E-02 -0.90385148502E-02  0.10204371291E+01  0.10201666626E+01 0.  0.
     999903    2    3    3    0    0  0.11329259538E+00  0.32730972975E-01  0.56662990569E-01  0.13234518161E+00  0.19950534715E-01 0.  0.
         14    1    1    2    0    0 -0.20961656124E-01  0.55524053129E-02  0.90385148502E-02  0.23492870896E-01  0.00000000000E+00 0.  1.
     999901    1    3    3    0    0 -0.92330939252E-01 -0.38283378288E-01 -0.65701505419E-01  0.88809194750E+00  0.88000000000E+00 0. -1.
        -11    1    4    4    0    0  0.64603187510E-01  0.18749695429E-01  0.21295325709E-01  0.70561143224E-01  0.51100000000E-03 0. -1.
         11    1    4    4    0    0  0.48689407866E-01  0.13981277546E-01  0.35367664860E-01  0.61784038382E-01  0.51100000000E-03 0.  1.
</event>
<event>
 8    1  0.1122465E+005  0.1043930E+01  0.7957747E-01            NaN
         13   -1    0    0    0    0  0.00000000000E+00  0.00000000000E+00  0.74505805969E-08  0.10566000000E+00  0.10566000000E+00 0.  1.
     999900   -1    0    0    0    0 -0.00000000000E+00 -0.00000000000E+00 -0.74505805969E-08  0.93827000000E+00  0.93827000000E+00 0.  1.
     999902    2    1    2    0    0  0.14198207163E-01  0.16544567126E-01  0.84575936568E-02  0.10205453324E+01  0.10202773803E+01 0.  0.
     999903    2    3    3    0    0 -0.79230130974E-01  0.24116097686E-01 -0.97259918716E-01  0.12927524154E+00  0.19839265757E-01 0.  0.
         14    1    1    2    0    0 -0.14198207163E-01 -0.16544567126E-01 -0.84575936568E-02  0.23384667595E-01  0.00000000000E+00 0.  1.
     999901    1    3    3    0    0  0.93428338137E-01 -0.75715305600E-02  0.10571751237E+00  0.89127009086E+00  0.88000000000E+00 0. -1.
        -11    1    4    4    0    0 -0.65745377775E-01  0.25302699709E-01 -0.72740944067E-01  0.10126296152E+00  0.51100000000E-03 0. -1.
         11    1    4    4    0    0 -0.13484753199E-01 -0.11866020229E-02 -0.24518974649E-01  0.28012280022E-01  0.51100000000E-03 0.  1.
</event>
<event>
 8    1  0.1122465E+005  0.1043930E+01  0.7957747E-01            NaN
         13   -1    0    0    0    0  0.00000000000E+00  0.00000000000E+00  0.74505805969E-08  0.10566000000E+00  0.10566000000E+00 0.  1.
     999900   -1    0    0    0    0 -0.00000000000E+00 -0.00000000000E+00 -0.74505805969E-08  0.93827000000E+00  0.93827000000E+00 0. -1.
     999902    2    1    2    0    0 -0.24008284657E-01 -0.45616680041E-03  0.92094533085E-03  0.10198997282E+01  0.10196165954E+01 0.  0.
     999903    2    3    3    0    0  0.49139975884E-01 -0.11671008197E+00  0.13883803790E-01  0.12915078690E+00  0.21241122517E-01 0.  0.
         14    1    1    2    0    0  0.24008284657E-01  0.45616680041E-03 -0.92094533085E-03  0.24030271755E-01  0.00000000000E+00 0.  1.
     999901    1    3    3    0    0 -0.73148260541E-01  0.11625391517E+00 -0.12962858459E-01  0.89074894135E+00  0.88000000000E+00 0. -1.
        -11    1    4    4    0    0  0.26003237831E-01 -0.86629564271E-01  0.96850849023E-02  0.90966542058E-01  0.51100000000E-03 0.  1.
         11    1    4    4    0    0  0.23136738053E-01 -0.30080517697E-01  0.41987188878E-02  0.38184244839E-01  0.51100000000E-03 0. -1.
</event>
<event>
 8    1  0.1122465E+005  0.1043930E+01  0.7957747E-01            NaN
         13   -1    0    0    0    0  0.00000000000E+00  0.00000000000E+00  0.74505805969E-08  0.10566000000E+00  0.10566000000E+00 0. -1.
     999900   -1    0    0    0    0 -0.00000000000E+00 -0.00000000000E+00 -0.74505805969E-08  0.93827000000E+00  0.93827000000E+00 0.  1.
     999902    2    1    2    0    0  0.52463870572E-02  0.21927531344E-01 -0.39924013468E-02  0.10210328282E+01  0.10207760556E+01 0.  0.
     999903    2    3    3    0    0 -0.33176684666E-01 -0.12199842976E+00 -0.11042149975E-01  0.12848551087E+00  0.20057122382E-01 0.  0.
         14    1    1    2    0    0 -0.52463870572E-02 -0.21927531344E-01  0.39924013468E-02  0.22897171802E-01  0.00000000000E+00 0. -1.
     999901    1    3    3    0    0  0.38423071723E-01  0.14392596110E+00  0.70497486284E-02  0.89254731733E+00  0.88000000000E+00 0.  1.
        -11    1    4    4    0    0 -0.33601223552E-01 -0.98119447438E-01 -0.12955977018E-01  0.10452074747E+00  0.51100000000E-03 0. -1.
         11    1    4    4    0    0  0.42453888628E-03 -0.23878982318E-01  0.19138270428E-02  0.23964763399E-01  0.51100000000E-03 0.  1.
</event>
<event>
 8    1  0.1122465E+005  0.1043930E+01  0.7957747E-01            NaN
         13   -1    0    0    0    0  0.00000000000E+00  0.00000000000E+00  0.74505805969E-08  0.10566000000E+00  0.10566000000E+00 0.  1.
     999900   -1    0    0    0    0 -0.00000000000E+00 -0.00000000000E+00 -0.74505805969E-08  0.93827000000E+00  0.93827000000E+00 0.  1.
     999902    2    1    2    0    0  0.14677589585E-01 -0.10665329362E-01 -0.17012332676E-01  0.10190583223E+01  0.10187547615E+01 0.  0.
     999903    2    3    3    0    0 -0.95581702330E-02  0.98633141162E-01  0.76776878591E-01  0.12702135906E+00  0.20491008212E-01 0.  0.
         14    1    1    2    0    0 -0.14677589585E-01  0.10665329362E-01  0.17012332676E-01  0.24871677657E-01  0.00000000000E+00 0.  1.
     999901    1    3    3    0    0  0.24235759818E-01 -0.10929847052E+00 -0.93789211267E-01  0.89203696328E+00  0.88000000000E+00 0.  1.
        -11    1    4    4    0    0 -0.66540067766E-02  0.23593797926E-01  0.29166759944E-01  0.38103859560E-01  0.51100000000E-03 0. -1.
         11    1    4    4    0    0 -0.29041634564E-02  0.75039343236E-01  0.47610118647E-01  0.88917499499E-01  0.51100000000E-03 0.  1.
</event>
<event>
 8    1  0.1122465E+005  0.1043930E+01  0.7957747E-01            NaN
         13   -1    0    0    0    0  0.00000000000E+00  0.00000000000E+00  0.74505805969E-08  0.10566000000E+00  0.10566000000E+00 0. -1.
     999900   -1    0    0    0    0 -0.00000000000E+00 -0.00000000000E+00 -0.74505805969E-08  0.93827000000E+00  0.93827000000E+00 0.  1.
     999902    2    1    2    0    0 -0.13190340869E-01 -0.63422857851E-02 -0.18433473323E-01  0.10203927398E+01  0.10201212382E+01 0.  0.
     999903    2    3    3    0    0 -0.56541650234E-01  0.10566174965E+00 -0.50679860031E-01  0.13164976823E+00  0.20046189437E-01 0.  0.
         14    1    1    2    0    0  0.13190340869E-01  0.63422857851E-02  0.18433473323E-01  0.23537260248E-01  0.00000000000E+00 0. -1.
     999901    1    3    3    0    0  0.43351309366E-01 -0.11200403544E+00  0.32246386708E-01  0.88874297152E+00  0.88000000000E+00 0. -1.
        -11    1    4    4    0    0 -0.14350654385E-01  0.34072441848E-01 -0.65163855979E-02  0.37544599838E-01  0.51100000000E-03 0. -1.
         11    1    4    4    0    0 -0.42190995849E-01  0.71589307804E-01 -0.44163474434E-01  0.94105168390E-01  0.51100000000E-03 0.  1.
</event>
<event>
 8    1  0.1122465E+005  0.1043930E+01  0.7957747E-01            NaN
         13   -1    0    0    0    0  0.00000000000E+00  0.00000000000E+00  0.74505805969E-08  0.10566000000E+00  0.10566000000E+00 0.  1.
     999900   -1    0    0    0    0 -0.00000000000E+00 -0.00000000000E+00 -0.74505805969E-08  0.93827000000E+00  0.93827000000E+00 0.  1.
     999902    2    1    2    0    0  0.12696408991E-01 -0.18410124901E-01  0.90807222076E-02  0.10197930777E+01  0.10195073960E+01 0.  0.
     999903    2    3    3    0    0 -0.54845606100E-01 -0.41548386183E-01 -0.10771771699E+00  0.12920946104E+00  0.18912148670E-01 0.  0.
         14    1    1    2    0    0 -0.12696408991E-01  0.18410124901E-01 -0.90807222076E-02  0.24136922255E-01  0.00000000000E+00 0. -1.
     999901    1    3    3    0    0  0.67542015090E-01  0.23138261282E-01  0.11679843920E+00  0.89058361670E+00  0.88000000000E+00 0. -1.
        -11    1    4    4    0    0 -0.14335046404E-01 -0.15539048805E-02 -0.22041751209E-01  0.26344033350E-01  0.51100000000E-03 0.  1.
         11    1    4    4    0    0 -0.40510559695E-01 -0.39994481303E-01 -0.85675965779E-01  0.10286542769E+00  0.51100000000E-03 0. -1.
</event>
<event>
 8    1  0.1122465E+005  0.1043930E+01  0.7957747E-01            NaN
         13   -1    0    0    0    0  0.00000000000E+00  0.00000000000E+00  0.74505805969E-08  0.10566000000E+00  0.10566000000E+00 0.  1.
     999900   -1    0    0    0    0 -0.00000000000E+00 -0.00000000000E+00 -0.74505805969E-08  0.93827000000E+00  0.93827000000E+00 0. -1.
     999902    2    1    2    0    0  0.22672704074E-01  0.72765499926E-02  0.81559827091E-02  0.10187601819E+01  0.10184492076E+01 0.  0.
     999903    2    3    3    0    0 -0.37448334422E-01  0.37626433108E-01 -0.11441816785E+00  0.12771580754E+00  0.20042059303E-01 0.  0.
         14    1    1    2    0    0 -0.22672704074E-01 -0.72765499926E-02 -0.81559827091E-02  0.25169818112E-01  0.00000000000E+00 0. -1.
     999901    1    3    3    0    0  0.60121038496E-01 -0.30349883115E-01  0.12257415056E+00  0.89104437435E+00  0.88000000000E+00 0.  1.
        -11    1    4    4    0    0 -0.27416374781E-01  0.14353810108E-01 -0.70753677404E-01  0.77227154926E-01  0.51100000000E-03 0. -1.
         11    1    4    4    0    0 -0.10031959641E-01  0.23272623000E-01 -0.43664490448E-01  0.50488652612E-01  0.51100000000E-03 0.  1.
</event>
<event>
 8    1  0.1122465E+005  0.1043930E+01  0.7957747E-01            NaN
         13   -1    0    0    0    0  0.00000000000E+00  0.00000000000E+00  0.74505805969E-08  0.10566000000E+00  0.10566000000E+00 0. -1.
     999900   -1    0    0    0    0 -0.00000000000E+00 -0.00000000000E+00 -0.74505805969E-08  0.93827000000E+00  0.93827000000E+00 0. -1.
     999902    2    1    2    0    0  0.12171247191E-01 -0.19313962295E-01 -0.67108323619E-02  0.10201349655E+01  0.10198574136E+01 0.  0.
     999903    2    3    3    0    0  0.59072967298E-01 -0.92714863996E-01  0.70873778016E-01  0.13243747448E+00  0.20758871982E-01 0.  0.
         14    1    1    2    0    0 -0.12171247191E-01  0.19313962295E-01  0.67108323619E-02  0.23795034540E-01  0.00000000000E+00 0. -1.
     999901    1    3    3    0    0 -0.46901720107E-01  0.73400901701E-01 -0.77584610378E-01  0.88769749098E+00  0.88000000000E+00 0. -1.
        -11    1    4    4    0    0  0.26270771215E-01 -0.58472871248E-01  0.45888966356E-01  0.78837100698E-01  0.51100000000E-03 0.  1.
         11    1    4    4    0    0  0.32802196083E-01 -0.34241992748E-01  0.24984811660E-01  0.53600373785E-01  0.51100000000E-03 0. -1.
</event>
<event>
 8    1  0.1122465E+005  0.1043930E+01  0.7957747E-01            NaN
         13   -1    0    0    0    0  0.00000000000E+00  0.00000000000E+00  0.74505805969E-08  0.10566000000E+00  0.10566000000E+00 0.  1.
     999900   -1    0    0    0    0 -0.00000000000E+00 -0.00000000000E+00 -0.74505805969E-08  0.93827000000E+00  0.93827000000E+00 0. -1.
     999902    2    1    2    0    0 -0.14138754317E-01 -0.99202986357E-02  0.18222500708E-01  0.10188227056E+01  0.10185132936E+01 0.  0.
     999903    2    3    3    0    0 -0.17939653820E-01 -0.67626435904E-01  0.11051901796E+00  0.13210793062E+00  0.18517180930E-01 0.  0.
         14    1    1    2    0    0  0.14138754317E-01  0.99202986357E-02 -0.18222500708E-01  0.25107294373E-01  0.00000000000E+00 0.  1.
     999901    1    3    3    0    0  0.38008995035E-02  0.57706137268E-01 -0.92296517254E-01  0.88671477501E+00  0.88000000000E+00 0. -1.
        -11    1    4    4    0    0 -0.11484095350E-02 -0.30978420320E-01  0.59401451163E-01  0.67005782521E-01  0.51100000000E-03 0.  1.
         11    1    4    4    0    0 -0.16791244285E-01 -0.36648015584E-01  0.51117566800E-01  0.65102148101E-01  0.51100000000E-03 0. -1.
</event>
<event>
 8    1  0.1122465E+005  0.1043930E+01  0.7957747E-01            NaN
         13   -1    0    0    0    0  0.00000000000E+00  0.00000000000E+00  0.74505805969E-08  0.10566000000E+00  0.10566000000E+00 0.  1.
     999900   -1    0    0    0    0 -0.00000000000E+00 -0.00000000000E+00 -0.74505805969E-08  0.93827000000E+00  0.93827000000E+00 0. -1.
     999902    2    1    2    0    0  0.17319566068E-01 -0.14659820115E-01  0.55369282060E-02  0.10205733036E+01  0.10203059995E+01 0.  0.
     999903    2    3    3    0    0 -0.36242259431E-01 -0.45960095332E-01  0.11586829158E+00  0.13151673274E+00  0.21103513088E-01 0.  0.
         14    1    1    2    0    0 -0.17319566068E-01  0.14659820115E-01 -0.55369282060E-02  0.23356696439E-01  0.00000000000E+00 0. -1.
     999901    1    3    3    0    0  0.53561825499E-01  0.31300275217E-01 -0.11033136337E+00  0.88905657082E+00  0.88000000000E+00 0. -1.
        -11    1    4    4    0    0 -0.23124911812E-01 -0.41123119502E-01  0.98480303585E-01  0.10919937646E+00  0.51100000000E-03 0. -1.
         11    1    4    4    0    0 -0.13117347619E-01 -0.48369758306E-02  0.17387987996E-01  0.22317356280E-01  0.51100000000E-03 0.  1.
</event>
<event>
 8    1  0.1122465E+005  0.1043930E+01  0.7957747E-01            NaN
         13   -1    0    0    0    0  0.00000000000E+00  0.00000000000E+00  0.74505805969E-08  0.10566000000E+00  0.10566000000E+00 0.  1.
     999900   -1    0    0    0    0 -0.00000000000E+00 -0.00000000000E+00 -0.74505805969E-08  0.93827000000E+00  0.93827000000E+00 0.  1.
     999902    2    1    2    0    0 -0.11988123084E-01 -0.12738210555E-01 -0.16889829307E-01  0.10196145021E+01  0.10193245261E+01 0.  0.
     999903    2    3    3    0    0 -0.42149426044E-01 -0.11416331254E+00 -0.47828284240E-01  0.13273573729E+00  0.22834078356E-01 0.  0.
         14    1    1    2    0    0  0.11988123084E-01  0.12738210555E-01  0.16889829307E-01  0.24315497882E-01  0.00000000000E+00 0.  1.
     999901    1    3    3    0    0  0.30161302960E-01  0.10142510199E+00  0.30938454933E-01  0.88687876483E+00  0.88000000000E+00 0. -1.
        -11    1    4    4    0    0 -0.39966938995E-01 -0.81312075869E-01 -0.31033838251E-01  0.95772491522E-01  0.51100000000E-03 0. -1.
         11    1    4    4    0    0 -0.21824870488E-02 -0.32851236673E-01 -0.16794445990E-01  0.36963245768E-01  0.51100000000E-03 0.  1.
</event>
<event>
 8    1  0.1122465E+005  0.1043930E+01  0.7957747E-01            NaN
         13   -1    0    0    0    0  0.00000000000E+00  0.00000000000E+00  0.74505805969E-08  0.10566000000E+00  0.10566000000E+00 0. -1.
     999900   -1    0    0    0    0 -0.00000000000E+00 -0.00000000000E+00 -0.74505805969E-08  0.93827000000E+00  0.93827000000E+00 0.  1.
     999902    2    1    2    0    0  0.10631931687E-01  0.12144839396E-01 -0.96554801154E-02  0.10251214011E+01  0.10249488395E+01 0.  0.
     999903    2    3    3    0    0 -0.13115610394E+00  0.17899942238E-01 -0.96816840172E-02  0.13375336886E+00  0.16549838206E-01 0.  0.
         14    1    1    2    0    0 -0.10631931687E-01 -0.12144839396E-01  0.96554801154E-02  0.18808598874E-01  0.00000000000E+00 0. -1.
     999901    1    3    3    0    0  0.14178803562E+00 -0.57551028421E-02  0.26203901843E-04  0.89136803226E+00  0.88000000000E+00 0.  1.
        -11    1    4    4    0    0 -0.59658237431E-01  0.11091769054E-01 -0.12153231095E-01  0.61887759543E-01  0.51100000000E-03 0. -1.
         11    1    4    4    0    0 -0.71497866505E-01  0.68081731840E-02  0.24715470782E-02  0.71865609319E-01  0.51100000000E-03 0.  1.
</event>
<event>
 8    1  0.1122465E+005  0.1043930E+01  0.7957747E-01            NaN
         13   -1    0    0    0    0  0.00000000000E+00  0.00000000000E+00  0.74505805969E-08  0.10566000000E+00  0.10566000000E+00 0.  1.
     999900   -1    0    0    0    0 -0.00000000000E+00 -0.00000000000E+00 -0.74505805969E-08  0.93827000000E+00  0.93827000000E+00 0. -1.
     999902    2    1    2    0    0  0.14053041811E-01  0.18592860438E-01  0.10880094403E-02  0.10205983432E+01  0.10203316186E+01 0.  0.
     999903    2    3    3    0    0 -0.54508995656E-01  0.92705617406E-01 -0.73300867133E-01  0.13170737202E+00  0.20205262093E-01 0.  0.
         14    1    1    2    0    0 -0.14053041811E-01 -0.18592860438E-01 -0.10880094403E-02  0.23331656777E-01  0.00000000000E+00 0. -1.
     999901    1    3    3    0    0  0.68562037467E-01 -0.74112756967E-01  0.74388876573E-01  0.88889097120E+00  0.88000000000E+00 0.  1.
        -11    1    4    4    0    0 -0.17181206243E-01  0.45415527504E-01 -0.39695690838E-01  0.62719797341E-01  0.51100000000E-03 0.  1.
         11    1    4    4    0    0 -0.37327789413E-01  0.47290089902E-01 -0.33605176295E-01  0.68987574680E-01  0.51100000000E-03 0. -1.
</event>
<event>
 8    1  0.1122465E+005  0.1043930E+01  0.7957747E-01            NaN
         13   -1    0    0    0    0  0.00000000000E+00  0.00000000000E+00  0.74505805969E-08  0.10566000000E+00  0.10566000000E+00 0.  1.
     999900   -1    0    0    0    0 -0.00000000000E+00 -0.00000000000E+00 -0.74505805969E-08  0.93827000000E+00  0.93827000000E+00 0. -1.
     999902    2    1    2    0    0  0.75982733651E-02 -0.20060748792E-01 -0.10733004895E-01  0.10199432371E+01  0.10196611408E+01 0.  0.
     999903    2    3    3    0    0 -0.62022559096E-01  0.45154671796E-01 -0.10169543816E+00  0.13012624712E+00  0.26554393711E-01 0.  0.
         14    1    1    2    0    0 -0.75982733651E-02  0.20060748792E-01  0.10733004895E-01  0.23986762897E-01  0.00000000000E+00 0. -1.
     999901    1    3    3    0    0  0.69620832461E-01 -0.65215420588E-01  0.90962433265E-01  0.88981698998E+00  0.88000000000E+00 0.  1.
        -11    1    4    4    0    0 -0.50875576683E-01  0.40871510887E-01 -0.67445965303E-01  0.93851073844E-01  0.51100000000E-03 0. -1.
         11    1    4    4    0    0 -0.11146982413E-01  0.42831609094E-02 -0.34249472857E-01  0.36275173277E-01  0.51100000000E-03 0.  1.
</event>
<event>
 8    1  0.1122465E+005  0.1043930E+01  0.7957747E-01            NaN
         13   -1    0    0    0    0  0.00000000000E+00  0.00000000000E+00  0.74505805969E-08  0.10566000000E+00  0.10566000000E+00 0. -1.
     999900   -1    0    0    0    0 -0.00000000000E+00 -0.00000000000E+00 -0.74505805969E-08  0.93827000000E+00  0.93827000000E+00 0. -1.
     999902    2    1    2    0    0  0.37849645494E-02 -0.89397779837E-02  0.21691218579E-01  0.10201654350E+01  0.10198886018E+01 0.  0.
     999903    2    3    3    0    0  0.28760264897E-01  0.11885683735E+00  0.40818265691E-01  0.13037805339E+00  0.19447502893E-01 0.  0.
         14    1    1    2    0    0 -0.37849645494E-02  0.89397779837E-02 -0.21691218579E-01  0.23764565017E-01  0.00000000000E+00 0.  1.
     999901    1    3    3    0    0 -0.24975300347E-01 -0.12779661533E+00 -0.19127047113E-01  0.88978738160E+00  0.88000000000E+00 0.  1.
        -11    1    4    4    0    0  0.14704927605E-02  0.44633892638E-01  0.12486213074E-01  0.46373627839E-01  0.51100000000E-03 0. -1.
         11    1    4    4    0    0  0.27289772136E-01  0.74222944712E-01  0.28332052617E-01  0.84004425547E-01  0.51100000000E-03 0.  1.
</event>
<event>
 8    1  0.1122465E+005  0.1043930E+01  0.7957747E-01            NaN
         13   -1    0    0    0    0  0.00000000000E+00  0.00000000000E+00  0.74505805969E-08  0.10566000000E+00  0.10566000000E+00 0.  1.
     999900   -1    0    0    0    0 -0.00000000000E+00 -0.00000000000E+00 -0.74505805969E-08  0.93827000000E+00  0.93827000000E+00 0.  1.
     999902    2    1    2    0    0  0.18890202573E-01 -0.10062769736E-01 -0.85599623778E-02  0.10208784915E+01  0.10206182060E+01 0.  0.
     999903    2    3    3    0    0 -0.11557216346E+00  0.12948600930E-01 -0.52879217269E-01  0.12926543226E+00  0.19716721999E-01 0.  0.
         14    1    1    2    0    0 -0.18890202573E-01  0.10062769736E-01  0.85599623778E-02  0.23051508496E-01  0.00000000000E+00 0.  1.
     999901    1    3    3    0    0  0.13446236603E+00 -0.23011370666E-01  0.44319254892E-01  0.89161305924E+00  0.88000000000E+00 0. -1.
        -11    1    4    4    0    0 -0.95892961184E-02  0.67602982371E-02 -0.41971307415E-02  0.12471297437E-01  0.51100000000E-03 0.  1.
         11    1    4    4    0    0 -0.10598286734E+00  0.61883026928E-02 -0.48682086528E-01  0.11679413482E+00  0.51100000000E-03 0. -1.
</event>
<event>
 8    1  0.1122465E+005  0.1043930E+01  0.7957747E-01            NaN
         13   -1    0    0    0    0  0.00000000000E+00  0.00000000000E+00  0.74505805969E-08  0.10566000000E+00  0.10566000000E+00 0. -1.
     999900   -1    0    0    0    0 -0.00000000000E+00 -0.00000000000E+00 -0.74505805969E-08  0.93827000000E+00  0.93827000000E+00 0. -1.
     999902    2    1    2    0    0  0.69545211349E-02  0.11552321375E-01 -0.19066660904E-01  0.10205770762E+01  0.10203098595E+01 0.  0.
     999903    2    3    3    0    0 -0.17560425814E-01  0.12207581713E+00  0.40395941542E-01  0.13133457447E+00  0.20151046514E-01 0.  0.
         14    1    1    2    0    0 -0.69545211349E-02 -0.11552321375E-01  0.19066660904E-01  0.23352923830E-01  0.00000000000E+00 0. -1.
     999901    1    3    3    0    0  0.24514946949E-01 -0.11052349576E+00 -0.59462602447E-01  0.88924250170E+00  0.88000000000E+00 0.  1.
        -11    1    4    4    0    0 -0.16243538411E-01  0.10406554680E+00  0.26683633832E-01  0.10865435107E+00  0.51100000000E-03 0. -1.
         11    1    4    4    0    0 -0.13168874022E-02  0.18010270332E-01  0.13712307711E-01  0.22680223403E-01  0.51100000000E-03 0.  1.
</event>
<event>
 8    1  0.1122465E+005  0.1043930E+01  0.7957747E-01            NaN
         13   -1    0    0    0    0  0.00000000000E+00  0.00000000000E+00  0.74505805969E-08  0.10566000000E+00  0.10566000000E+00 0.  1.
     999900   -1    0    0    0    0 -0.00000000000E+00 -0.00000000000E+00 -0.74505805969E-08  0.93827000000E+00  0.93827000000E+00 0. -1.
     999902    2    1    2    0    0  0.54820373901E-02 -0.28307559472E-01 -0.16496466380E-02  0.10150493492E+01  0.10146384032E+01 0.  0.
     999903    2    3    3    0    0 -0.46349206606E-01  0.61765669952E-01  0.94658366424E-01  0.12371613546E+00  0.19550675237E-01 0.  0.
         14    1    1    2    0    0 -0.54820373901E-02  0.28307559472E-01  0.16496466380E-02  0.28880650810E-01  0.00000000000E+00 0.  1.
     999901    1    3    3    0    0  0.51831243996E-01 -0.90073229423E-01 -0.96308013062E-01  0.89133321373E+00  0.88000000000E+00 0. -1.
        -11    1    4    4    0    0 -0.24967394229E-01  0.42284996644E-01  0.47067588873E-01  0.68022134332E-01  0.51100000000E-03 0.  1.
         11    1    4    4    0    0 -0.21381812376E-01  0.19480673308E-01  0.47590777551E-01  0.55694001131E-01  0.51100000000E-03 0. -1.
</event>
<event>
 8    1  0.1122465E+005  0.1043930E+01  0.7957747E-01            NaN
         13   -1    0    0    0    0  0.00000000000E+00  0.00000000000E+00  0.74505805969E-08  0.10566000000E+00  0.10566000000E+00 0.  1.
     999900   -1    0    0    0    0 -0.00000000000E+00 -0.00000000000E+00 -0.74505805969E-08  0.93827000000E+00  0.93827000000E+00 0.  1.
     999902    2    1    2    0    0  0.22229871286E-01 -0.64505334764E-02 -0.62522519766E-02  0.10199536113E+01  0.10196717619E+01 0.  0.
     999903    2    3    3    0    0 -0.65504217584E-01  0.37487180137E-01 -0.10287057588E+00  0.12924440313E+00  0.20631751368E-01 0.  0.
         14    1    1    2    0    0 -0.22229871286E-01  0.64505334764E-02  0.62522519766E-02  0.23976388684E-01  0.00000000000E+00 0. -1.
     999901    1    3    3    0    0  0.87734088870E-01 -0.43937713613E-01  0.96618323899E-01  0.89070920818E+00  0.88000000000E+00 0. -1.
        -11    1    4    4    0    0 -0.55244793592E-01  0.27286164096E-01 -0.69576219768E-01  0.92938869416E-01  0.51100000000E-03 0.  1.
         11    1    4    4    0    0 -0.10259423992E-01  0.10201016040E-01 -0.33294356108E-01  0.36305533718E-01  0.51100000000E-03 0. -1.
</event>
<event>
 8    1  0.1122465E+005  0.1043930E+01  0.7957747E-01            NaN
         13   -1    0    0    0    0  0.00000000000E+00  0.00000000000E+00  0.74505805969E-08  0.10566000000E+00  0.10566000000E+00 0.  1.
     999900   -1    0    0    0    0 -0.00000000000E+00 -0.00000000000E+00 -0.74505805969E-08  0.93827000000E+00  0.93827000000E+00 0. -1.
     999902    2    1    2    0    0  0.75885275179E-02  0.21201037319E-01  0.71476456630E-02  0.10203046202E+01  0.10200310580E+01 0.  0.
     999903    2    3    3    0    0 -0.42795296148E-01 -0.55488553896E-01 -0.10602830256E+00  0.12832445316E+00  0.17741120293E-01 0.  0.
         14    1    1    2    0    0 -0.75885275179E-02 -0.21201037319E-01 -0.71476456630E-02  0.23625379824E-01  0.00000000000E+00 0. -1.
     999901    1    3    3    0    0  0.50383823666E-01  0.76689591216E-01  0.11317594823E+00  0.89198016701E+00  0.88000000000E+00 0.  1.
        -11    1    4    4    0    0 -0.10847348761E-01 -0.19734811840E-01 -0.21479627743E-01  0.31124962691E-01  0.51100000000E-03 0.  1.
         11    1    4    4    0    0 -0.31947947387E-01 -0.35753742056E-01 -0.84548674820E-01  0.97199490472E-01  0.51100000000E-03 0. -1.
</event>
<event>
 8    1  0.1122465E+005  0.1043930E+01  0.7957747E-01            NaN
         13   -1    0    0    0    0  0.00000000000E+00  0.00000000000E+00  0.74505805969E-08  0.10566000000E+00  0.10566000000E+00 0.  1.
     999900   -1    0    0    0    0 -0.00000000000E+00 -0.00000000000E+00 -0.74505805969E-08  0.93827000000E+00  0.93827000000E+00 0. -1.
     999902    2    1    2    0    0  0.15329000377E-01 -0.18208737304E-01  0.35997079846E-02  0.10198573129E+01  0.10195731678E+01 0.  0.
     999903    2    3    3    0    0  0.29051982277E-01  0.71336851908E-01  0.10238285813E+00  0.12970853683E+00  0.20225992525E-01 0.  0.
         14    1    1    2    0    0 -0.15329000377E-01  0.18208737304E-01 -0.35997079846E-02  0.24072687102E-01  0.00000000000E+00 0. -1.
     999901    1    3    3    0    0 -0.13722981900E-01 -0.89545589212E-01 -0.98783150146E-01  0.89014877607E+00  0.88000000000E+00 0. -1.
        -11    1    4    4    0    0  0.28176548255E-02  0.33230208881E-01  0.41576020362E-01  0.53301149623E-01  0.51100000000E-03 0. -1.
         11    1    4    4    0    0  0.26234327451E-01  0.38106643027E-01  0.60806837768E-01  0.76407387208E-01  0.51100000000E-03 0.  1.
</event>
<event>
 8    1  0.1122465E+005  0.1043930E+01  0.7957747E-01            NaN
         13   -1    0    0    0    0  0.00000000000E+00  0.00000000000E+00  0.74505805969E-08  0.10566000000E+00  0.10566000000E+00 0. -1.
     999900   -1    0    0    0    0 -0.00000000000E+00 -0.00000000000E+00 -0.74505805969E-08  0.93827000000E+00  0.93827000000E+00 0.  1.
     999902    2    1    2    0    0 -0.32374399955E-02 -0.21711397676E-01 -0.13594253844E-01  0.10181100553E+01  0.10177825972E+01 0.  0.
     999903    2    3    3    0    0  0.74492151909E-01  0.91936234982E-01  0.38168157881E-01  0.12590098724E+00  0.19821662705E-01 0.  0.
         14    1    1    2    0    0  0.32374399955E-02  0.21711397676E-01  0.13594253844E-01  0.25819944700E-01  0.00000000000E+00 0. -1.
     999901    1    3    3    0    0 -0.77729591905E-01 -0.11364763266E+00 -0.51762411726E-01  0.89220906806E+00  0.88000000000E+00 0. -1.
        -11    1    4    4    0    0  0.53069520879E-01  0.69877059183E-01  0.36699861127E-01  0.95112135788E-01  0.51100000000E-03 0. -1.
         11    1    4    4    0    0  0.21422631030E-01  0.22059175799E-01  0.14682967545E-02  0.30788851449E-01  0.51100000000E-03 0.  1.
</event>
<event>
 8    1  0.1122465E+005  0.1043930E+01  0.7957747E-01            NaN
         13   -1    0    0    0    0  0.00000000000E+00  0.00000000000E+00  0.74505805969E-08  0.10566000000E+00  0.10566000000E+00 0.  1.
     999900   -1    0    0    0    0 -0.00000000000E+00 -0.00000000000E+00 -0.74505805969E-08  0.93827000000E+00  0.93827000000E+00 0.  1.
     999902    2    1    2    0    0  0.27834773564E-02 -0.20730456239E-01 -0.95866970794E-02  0.10209212120E+01  0.10206619014E+01 0.  0.
     999903    2    3    3    0    0 -0.22977221358E-01 -0.22416638870E-01 -0.12758254078E+00  0.13267041642E+00  0.17136985747E-01 0.  0.
         14    1    1    2    0    0 -0.27834773564E-02  0.20730456239E-01  0.95866970794E-02  0.23008787951E-01  0.00000000000E+00 0.  1.
     999901    1    3    3    0    0  0.25760698714E-01  0.16861826307E-02  0.11799584370E+00  0.88825079563E+00  0.88000000000E+00 0. -1.
        -11    1    4    4    0    0 -0.15858348611E-01 -0.84654006019E-02 -0.42364703644E-01  0.46023683727E-01  0.51100000000E-03 0. -1.
         11    1    4    4    0    0 -0.71188727472E-02 -0.13951238268E-01 -0.85217837138E-01  0.86646732690E-01  0.51100000000E-03 0.  1.
</event>
<event>
 8    1  0.1122465E+005  0.1043930E+01  0.7957747E-01            NaN
         13   -1    0    0    0    0  0.00000000000E+00  0.00000000000E+00  0.74505805969E-08  0.10566000000E+00  0.10566000000E+00 0. -1.
     999900   -1    0    0    0    0 -0.00000000000E+00 -0.00000000000E+00 -0.74505805969E-08  0.93827000000E+00  0.93827000000E+00 0. -1.
     999902    2    1    2    0    0 -0.12248054012E-01  0.17973554269E-01  0.10075671323E-02  0.10221566523E+01  0.10219247248E+01 0.  0.
     999903    2    3    3    0    0 -0.66676940286E-01 -0.64868168146E-01  0.91583307626E-01  0.13197171676E+00  0.19373646631E-01 0.  0.
         14    1    1    2    0    0  0.12248054012E-01 -0.17973554269E-01 -0.10075671323E-02  0.21773347737E-01  0.00000000000E+00 0. -1.
     999901    1    3    3    0    0  0.54428886274E-01  0.82841722415E-01 -0.90575740494E-01  0.89018493550E+00  0.88000000000E+00 0.  1.
        -11    1    4    4    0    0 -0.34479440198E-01 -0.38963156757E-01  0.63069239031E-01  0.81761539943E-01  0.51100000000E-03 0. -1.
         11    1    4    4    0    0 -0.32197500088E-01 -0.25905011389E-01  0.28514068595E-01  0.50210176815E-01  0.51100000000E-03 0.  1.
</event>
<event>
 8    1  0.1122465E+005  0.1043930E+01  0.7957747E-01            NaN
         13   -1    0    0    0    0  0.00000000000E+00  0.00000000000E+00  0.74505805969E-08  0.10566000000E+00  0.10566000000E+00 0. -1.
     999900   -1    0    0    0    0 -0.00000000000E+00 -0.00000000000E+00 -0.74505805969E-08  0.93827000000E+00  0.93827000000E+00 0.  1.
     999902    2    1    2    0    0  0.17760255042E-01  0.10376226432E-01  0.12625585743E-01  0.10197950016E+01  0.10195093659E+01 0.  0.
     999903    2    3    3    0    0  0.35616882525E-01 -0.10746386818E+00 -0.58404211833E-01  0.12892442781E+00  0.19834586966E-01 0.  0.
         14    1    1    2    0    0 -0.17760255042E-01 -0.10376226432E-01 -0.12625585743E-01  0.24134998435E-01  0.00000000000E+00 0.  1.
     999901    1    3    3    0    0 -0.17856627483E-01  0.11784009461E+00  0.71029797575E-01  0.89087057376E+00  0.88000000000E+00 0. -1.
        -11    1    4    4    0    0  0.31396829569E-01 -0.76642246391E-01 -0.34656883684E-01  0.89783938132E-01  0.51100000000E-03 0.  1.
         11    1    4    4    0    0  0.42200529562E-02 -0.30821621791E-01 -0.23747328149E-01  0.39140489675E-01  0.51100000000E-03 0. -1.
</event>
<event>
 8    1  0.1122465E+005  0.1043930E+01  0.7957747E-01            NaN
         13   -1    0    0    0    0  0.00000000000E+00  0.00000000000E+00  0.74505805969E-08  0.10566000000E+00  0.10566000000E+00 0. -1.
     999900   -1    0    0    0    0 -0.00000000000E+00 -0.00000000000E+00 -0.74505805969E-08  0.93827000000E+00  0.93827000000E+00 0.  1.
     999902    2    1    2    0    0  0.12225139368E-01  0.11801969218E-01 -0.16915257266E-01  0.10199536275E+01  0.10196717785E+01 0.  0.
     999903    2    3    3    0    0  0.20374944981E-01  0.10105052929E-01  0.12485996250E+00  0.12856734098E+00  0.20549950205E-01 0.  0.
         14    1    1    2    0    0 -0.12225139368E-01 -0.11801969218E-01  0.16915257266E-01  0.23976372502E-01  0.00000000000E+00 0. -1.
     999901    1    3    3    0    0 -0.81498056124E-02  0.16969162884E-02 -0.14177521976E+00  0.89138628652E+00  0.88000000000E+00 0.  1.
        -11    1    4    4    0    0  0.19545575899E-01  0.13837502224E-01  0.11997563237E+00  0.12234344890E+00  0.51100000000E-03 0.  1.
         11    1    4    4    0    0  0.82936908200E-03 -0.37324492944E-02  0.48843301294E-02  0.62238920799E-02  0.51100000000E-03 0. -1.
</event>
<event>
 8    1  0.1122465E+005  0.1043930E+01  0.7957747E-01            NaN
         13   -1    0    0    0    0  0.00000000000E+00  0.00000000000E+00  0.74505805969E-08  0.10566000000E+00  0.10566000000E+00 0.  1.
     999900   -1    0    0    0    0 -0.00000000000E+00 -0.00000000000E+00 -0.74505805969E-08  0.93827000000E+00  0.93827000000E+00 0. -1.
     999902    2    1    2    0    0  0.22692936382E-01 -0.38587974091E-02 -0.60079811672E-02  0.10201401804E+01  0.10198627516E+01 0.  0.
     999903    2    3    3    0    0  0.10315542653E+00  0.66349986114E-01 -0.46433971814E-01  0.13276328960E+00  0.20654651927E-01 0.  0.
         14    1    1    2    0    0 -0.22692936382E-01  0.38587974091E-02  0.60079811672E-02  0.23789819604E-01  0.00000000000E+00 0. -1.
     999901    1    3    3    0    0 -0.80462490148E-01 -0.70208783524E-01  0.40425990647E-01  0.88737689080E+00  0.88000000000E+00 0.  1.
        -11    1    4    4    0    0  0.55188591571E-01  0.36793720805E-01 -0.14143173646E-01  0.67822186724E-01  0.51100000000E-03 0.  1.
         11    1    4    4    0    0  0.47966834959E-01  0.29556265310E-01 -0.32290798167E-01  0.64941102873E-01  0.51100000000E-03 0. -1.
</event>
<event>
 8    1  0.1122465E+005  0.1043930E+01  0.7957747E-01            NaN
         13   -1    0    0    0    0  0.00000000000E+00  0.00000000000E+00  0.74505805969E-08  0.10566000000E+00  0.10566000000E+00 0. -1.
     999900   -1    0    0    0    0 -0.00000000000E+00 -0.00000000000E+00 -0.74505805969E-08  0.93827000000E+00  0.93827000000E+00 0.  1.
     999902    2    1    2    0    0 -0.12202447406E-01  0.15028453325E-01  0.13466692961E-01  0.10203481012E+01  0.10200755568E+01 0.  0.
     999903    2    3    3    0    0 -0.21028542151E-01 -0.98950870827E-02 -0.12532951136E+00  0.12907739644E+00  0.20331638410E-01 0.  0.
         14    1    1    2    0    0  0.12202447406E-01 -0.15028453325E-01 -0.13466692961E-01  0.23581898807E-01  0.00000000000E+00 0. -1.
     999901    1    3    3    0    0  0.88260947450E-02  0.24923540408E-01  0.13879620432E+00  0.89127070475E+00  0.88000000000E+00 0. -1.
        -11    1    4    4    0    0 -0.85651688985E-02  0.30834890848E-02 -0.17272657303E-01  0.19531406363E-01  0.51100000000E-03 0. -1.
         11    1    4    4    0    0 -0.12463373252E-01 -0.12978576167E-01 -0.10805685406E+00  0.10954599008E+00  0.51100000000E-03 0.  1.
</event>
<event>
 8    1  0.1122465E+005  0.1043930E+01  0.7957747E-01            NaN
         13   -1    0    0    0    0  0.00000000000E+00  0.00000000000E+00  0.74505805969E-08  0.10566000000E+00  0.10566000000E+00 0.  1.
     999900   -1    0    0    0    0 -0.00000000000E+00 -0.00000000000E+00 -0.74505805969E-08  0.93827000000E+00  0.93827000000E+00 0.  1.
     999902    2    1    2    0    0  0.12657690091E-01  0.17705830850E-01  0.81246140042E-02  0.10206980626E+01  0.10204336392E+01 0.  0.
     999903    2    3    3    0    0  0.55253756102E-01  0.10823313349E+00  0.51652019899E-01  0.13396007847E+00  0.22582796885E-01 0.  0.
         14    1    1    2    0    0 -0.12657690091E-01 -0.17705830850E-01 -0.81246140042E-02  0.23231937441E-01  0.00000000000E+00 0. -1.
     999901    1    3    3    0    0 -0.42596066011E-01 -0.90527302641E-01 -0.43527405895E-01  0.88673798409E+00  0.88000000000E+00 0. -1.
        -11    1    4    4    0    0  0.26285122066E-01  0.69491304681E-01  0.23199261764E-01  0.77835826813E-01  0.51100000000E-03 0.  1.
         11    1    4    4    0    0  0.28968634036E-01  0.38741828810E-01  0.28452758135E-01  0.56124251656E-01  0.51100000000E-03 0. -1.
</event>
<event>
 8    1  0.1122465E+005  0.1043930E+01  0.7957747E-01            NaN
         13   -1    0    0    0    0  0.00000000000E+00  0.00000000000E+00  0.74505805969E-08  0.10566000000E+00  0.10566000000E+00 0.  1.
     999900   -1    0    0    0    0 -0.00000000000E+00 -0.00000000000E+00 -0.74505805969E-08  0.93827000000E+00  0.93827000000E+00 0.  1.
     999902    2    1    2    0    0  0.14407231218E-01 -0.15807414319E-01 -0.10509282069E-01  0.10200996062E+01  0.10198212191E+01 0.  0.
     999903    2    3    3    0    0  0.44320730467E-01  0.39280386139E-01 -0.11572635965E+00  0.13161768933E+00  0.20575469463E-01 0.  0.
         14    1    1    2    0    0 -0.14407231218E-01  0.15807414319E-01  0.10509282069E-01  0.23830393795E-01  0.00000000000E+00 0.  1.
     999901    1    3    3    0    0 -0.29913499250E-01 -0.55087800458E-01  0.10521707758E+00  0.88848191687E+00  0.88000000000E+00 0. -1.
        -11    1    4    4    0    0  0.18907785427E-01  0.20560940802E-01 -0.33995220923E-01  0.44002190889E-01  0.51100000000E-03 0. -1.
         11    1    4    4    0    0  0.25412945040E-01  0.18719445337E-01 -0.81731138724E-01  0.87615498443E-01  0.51100000000E-03 0.  1.
</event>
<event>
 8    1  0.1122465E+005  0.1043930E+01  0.7957747E-01            NaN
         13   -1    0    0    0    0  0.00000000000E+00  0.00000000000E+00  0.74505805969E-08  0.10566000000E+00  0.10566000000E+00 0. -1.
     999900   -1    0    0    0    0 -0.00000000000E+00 -0.00000000000E+00 -0.74505805969E-08  0.93827000000E+00  0.93827000000E+00 0. -1.
     999902    2    1    2    0    0  0.54347132841E-02  0.23439182114E-01 -0.58088678689E-02  0.10191777413E+01  0.10188771241E+01 0.  0.
     999903    2    3    3    0    0  0.52180662331E-01 -0.76003921178E-01 -0.87257285140E-01  0.12861165207E+00  0.20681046459E-01 0.  0.
         14    1    1    2    0    0 -0.54347132841E-02 -0.23439182114E-01  0.58088678689E-02  0.24752258737E-01  0.00000000000E+00 0.  1.
     999901    1    3    3    0    0 -0.46745949046E-01  0.99443103292E-01  0.81448417271E-01  0.89056608919E+00  0.88000000000E+00 0.  1.
        -11    1    4    4    0    0  0.29394165969E-01 -0.34298630398E-01 -0.30133881134E-01  0.54302163432E-01  0.51100000000E-03 0.  1.
         11    1    4    4    0    0  0.22786496361E-01 -0.41705290780E-01 -0.57123404006E-01  0.74309488638E-01  0.51100000000E-03 0. -1.
</event>
<event>
 8    1  0.1122465E+005  0.1043930E+01  0.7957747E-01            NaN
         13   -1    0    0    0    0  0.00000000000E+00  0.00000000000E+00  0.74505805969E-08  0.10566000000E+00  0.10566000000E+00 0.  1.
     999900   -1    0    0    0    0 -0.00000000000E+00 -0.00000000000E+00 -0.74505805969E-08  0.93827000000E+00  0.93827000000E+00 0.  1.
     999902    2    1    2    0    0 -0.20452133746E-01  0.21375264712E-01  0.19692839742E-02  0.10142808888E+01  0.10138474498E+01 0.  0.
     999903    2    3    3    0    0  0.34728378991E-01 -0.69502788615E-01 -0.92411291681E-01  0.12287110501E+00  0.22820247210E-01 0.  0.
         14    1    1    2    0    0  0.20452133746E-01 -0.21375264712E-01 -0.19692839742E-02  0.29649111211E-01  0.00000000000E+00 0. -1.
     999901    1    3    3    0    0 -0.55180512736E-01  0.90878053326E-01  0.94380575655E-01  0.89140978378E+00  0.88000000000E+00 0. -1.
        -11    1    4    4    0    0  0.14897097114E-01 -0.26194576672E-01 -0.53323100497E-01  0.61251069517E-01  0.51100000000E-03 0.  1.
         11    1    4    4    0    0  0.19831281877E-01 -0.43308211943E-01 -0.39088191184E-01  0.61620035489E-01  0.51100000000E-03 0. -1.
</event>
<event>
 8    1  0.1122465E+005  0.1043930E+01  0.7957747E-01            NaN
         13   -1    0    0    0    0  0.00000000000E+00  0.00000000000E+00  0.74505805969E-08  0.10566000000E+00  0.10566000000E+00 0. -1.
     999900   -1    0    0    0    0 -0.00000000000E+00 -0.00000000000E+00 -0.74505805969E-08  0.93827000000E+00  0.93827000000E+00 0.  1.
     999902    2    1    2    0    0  0.23364064975E-01  0.56380189364E-02 -0.28141160579E-02  0.10197311149E+01  0.10194439468E+01 0.  0.
     999903    2    3    3    0    0 -0.76477095431E-01  0.67300839070E-01 -0.76481859434E-01  0.12889022166E+00  0.19623082124E-01 0.  0.
         14    1    1    2    0    0 -0.23364064975E-01 -0.56380189364E-02  0.28141160579E-02  0.24198885075E-01  0.00000000000E+00 0. -1.
     999901    1    3    3    0    0  0.99841160406E-01 -0.61662820134E-01  0.73667743377E-01  0.89084089326E+00  0.88000000000E+00 0. -1.
        -11    1    4    4    0    0 -0.67900722639E-01  0.58681191055E-01 -0.58328666988E-01  0.10703497014E+00  0.51100000000E-03 0.  1.
         11    1    4    4    0    0 -0.85763727923E-02  0.86196480147E-02 -0.18153192447E-01  0.21855251524E-01  0.51100000000E-03 0. -1.
</event>
<event>
 8    1  0.1122465E+005  0.1043930E+01  0.7957747E-01            NaN
         13   -1    0    0    0    0  0.00000000000E+00  0.00000000000E+00  0.74505805969E-08  0.10566000000E+00  0.10566000000E+00 0.  1.
     999900   -1    0    0    0    0 -0.00000000000E+00 -0.00000000000E+00 -0.74505805969E-08  0.93827000000E+00  0.93827000000E+00 0. -1.
     999902    2    1    2    0    0  0.21620204382E-01  0.10604421016E-01  0.32159757078E-02  0.10196353610E+01  0.10193458883E+01 0.  0.
     999903    2    3    3    0    0  0.11374607107E+00 -0.51135519702E-01  0.38939164803E-01  0.13195572185E+00  0.18521444718E-01 0.  0.
         14    1    1    2    0    0 -0.21620204382E-01 -0.10604421016E-01 -0.32159757078E-02  0.24294638963E-01  0.00000000000E+00 0. -1.
     999901    1    3    3    0    0 -0.92125866684E-01  0.61739940718E-01 -0.35723189095E-01  0.88767963919E+00  0.88000000000E+00 0. -1.
        -11    1    4    4    0    0  0.38916316040E-01 -0.21083920685E-01  0.22511279425E-01  0.49659140024E-01  0.51100000000E-03 0. -1.
         11    1    4    4    0    0  0.74829755027E-01 -0.30051599017E-01  0.16427885378E-01  0.82296581823E-01  0.51100000000E-03 0.  1.
</event>
<event>
 8    1  0.1122465E+005  0.1043930E+01  0.7957747E-01            NaN
         13   -1    0    0    0    0  0.00000000000E+00  0.00000000000E+00  0.74505805969E-08  0.10566000000E+00  0.10566000000E+00 0.  1.
     999900   -1    0    0    0    0 -0.00000000000E+00 -0.00000000000E+00 -0.74505805969E-08  0.93827000000E+00  0.93827000000E+00 0.  1.
     999902    2    1    2    0    0 -0.22420956479E-01  0.14582638497E-03 -0.11159962000E-01  0.10188847348E+01  0.10185768688E+01 0.  0.
     999903    2    3    3    0    0 -0.13018530625E+00  0.81311591935E-02 -0.94095811904E-02  0.13227321651E+00  0.19832646638E-01 0.  0.
         14    1    1    2    0    0  0.22420956479E-01 -0.14582638497E-03  0.11159962000E-01  0.25045265154E-01  0.00000000000E+00 0.  1.
     999901    1    3    3    0    0  0.10776434977E+00 -0.79853328085E-02 -0.17503808097E-02  0.88661151834E+00  0.88000000000E+00 0.  1.
        -11    1    4    4    0    0 -0.89131220466E-01  0.91465956197E-03  0.16200951826E-02  0.89152099769E-01  0.51100000000E-03 0.  1.
         11    1    4    4    0    0 -0.41054085786E-01  0.72164996315E-02 -0.11029676373E-01  0.43121116736E-01  0.51100000000E-03 0. -1.
</event>
<event>
 8    1  0.1122465E+005  0.1043930E+01  0.7957747E-01            NaN
         13   -1    0    0    0    0  0.00000000000E+00  0.00000000000E+00  0.74505805969E-08  0.10566000000E+00  0.10566000000E+00 0.  1.
     999900   -1    0    0    0    0 -0.00000000000E+00 -0.00000000000E+00 -0.74505805969E-08  0.93827000000E+00  0.93827000000E+00 0. -1.
     999902    2    1    2    0    0 -0.17590883514E-01  0.15981530012E-01 -0.31784281807E-02  0.10199518664E+01  0.10196699755E+01 0.  0.
     999903    2    3    3    0    0 -0.30837254350E-01  0.12594317502E+00  0.20641940916E-01  0.13268953785E+00  0.19178220502E-01 0.  0.
         14    1    1    2    0    0  0.17590883514E-01 -0.15981530012E-01  0.31784281807E-02  0.23978133581E-01  0.00000000000E+00 0.  1.
     999901    1    3    3    0    0  0.13246370836E-01 -0.10996164500E+00 -0.23820369097E-01  0.88726232857E+00  0.88000000000E+00 0.  1.
        -11    1    4    4    0    0 -0.22048462375E-01  0.50934240849E-01  0.10488239588E-01  0.56486245004E-01  0.51100000000E-03 0.  1.
         11    1    4    4    0    0 -0.87887919744E-02  0.75008934166E-01  0.10153701328E-01  0.76203292847E-01  0.51100000000E-03 0. -1.
</event>
<event>
 8    1  0.1122465E+005  0.1043930E+01  0.7957747E-01            NaN
         13   -1    0    0    0    0  0.00000000000E+00  0.00000000000E+00  0.74505805969E-08  0.10566000000E+00  0.10566000000E+00 0.  1.
     999900   -1    0    0    0    0 -0.00000000000E+00 -0.00000000000E+00 -0.74505805969E-08  0.93827000000E+00  0.93827000000E+00 0.  1.
     999902    2    1    2    0    0 -0.18542618284E-02 -0.22830296704E-01 -0.54581456405E-02  0.10203831937E+01  0.10201114693E+01 0.  0.
     999903    2    3    3    0    0 -0.96595379248E-01 -0.85243904547E-01  0.24113388840E-01  0.13260742613E+00  0.20151510859E-01 0.  0.
         14    1    1    2    0    0  0.18542618284E-02  0.22830296704E-01  0.54581456405E-02  0.23546806330E-01  0.00000000000E+00 0. -1.
     999901    1    3    3    0    0  0.94741117419E-01  0.62413607844E-01 -0.29571534480E-01  0.88777576754E+00  0.88000000000E+00 0. -1.
        -11    1    4    4    0    0 -0.28911906745E-01 -0.31606470215E-01 -0.37924097403E-03  0.42840077682E-01  0.51100000000E-03 0.  1.
         11    1    4    4    0    0 -0.67683472503E-01 -0.53637434332E-01  0.24492629814E-01  0.89767348451E-01  0.51100000000E-03 0. -1.
</event>
<event>
 8    1  0.1122465E+005  0.1043930E+01  0.7957747E-01            NaN
         13   -1    0    0    0    0  0.00000000000E+00  0.00000000000E+00  0.74505805969E-08  0.10566000000E+00  0.10566000000E+00 0.  1.
     999900   -1    0    0    0    0 -0.00000000000E+00 -0.00000000000E+00 -0.74505805969E-08  0.93827000000E+00  0.93827000000E+00 0. -1.
     999902    2    1    2    0    0  0.14720417138E-01 -0.96021021821E-02  0.17586416591E-01  0.10190669130E+01  0.10187635644E+01 0.  0.
     999903    2    3    3    0    0 -0.17093727749E-02 -0.10467928490E+00  0.77354174226E-01  0.13177789947E+00  0.20520035972E-01 0.  0.
         14    1    1    2    0    0 -0.14720417138E-01  0.96021021821E-02 -0.17586416591E-01  0.24863087007E-01  0.00000000000E+00 0. -1.
     999901    1    3    3    0    0  0.16429789913E-01  0.95077182714E-01 -0.59767757635E-01  0.88728901352E+00  0.88000000000E+00 0. -1.
        -11    1    4    4    0    0  0.23348711025E-02 -0.27475407785E-02  0.68939661853E-02  0.77966976445E-02  0.51100000000E-03 0. -1.
         11    1    4    4    0    0 -0.40442438774E-02 -0.10193174412E+00  0.70460208041E-01  0.12398120182E+00  0.51100000000E-03 0.  1.
</event>
<event>
 8    1  0.1122465E+005  0.1043930E+01  0.7957747E-01            NaN
         13   -1    0    0    0    0  0.00000000000E+00  0.00000000000E+00  0.74505805969E-08  0.10566000000E+00  0.10566000000E+00 0.  1.
     999900   -1    0    0    0    0 -0.00000000000E+00 -0.00000000000E+00 -0.74505805969E-08  0.93827000000E+00  0.93827000000E+00 0.  1.
     999902    2    1    2    0    0  0.13246965661E-01 -0.13526137630E-01  0.12913444114E-01  0.10210128549E+01  0.10207556291E+01 0.  0.
     999903    2    3    3    0    0  0.24763889309E-01  0.92001565375E-01  0.88364014319E-01  0.13142782575E+00  0.19685936844E-01 0.  0.
         14    1    1    2    0    0 -0.13246965661E-01  0.13526137630E-01 -0.12913444114E-01  0.22917145051E-01  0.00000000000E+00 0. -1.
     999901    1    3    3    0    0 -0.11516923648E-01 -0.10552770300E+00 -0.75450570205E-01  0.88958502920E+00  0.88000000000E+00 0.  1.
        -11    1    4    4    0    0 -0.26837948725E-02  0.20658437301E-01  0.19608945954E-01  0.28613732176E-01  0.51100000000E-03 0.  1.
         11    1    4    4    0    0  0.27447684182E-01  0.71343128074E-01  0.68755068366E-01  0.10281409357E+00  0.51100000000E-03 0. -1.
</event>
<event>
 8    1  0.1122465E+005  0.1043930E+01  0.7957747E-01            NaN
         13   -1    0    0    0    0  0.00000000000E+00  0.00000000000E+00  0.74505805969E-08  0.10566000000E+00  0.10566000000E+00 0.  1.
     999900   -1    0    0    0    0 -0.00000000000E+00 -0.00000000000E+00 -0.74505805969E-08  0.93827000000E+00  0.93827000000E+00 0. -1.
     999902    2    1    2    0    0  0.19218844197E-01  0.13625009266E-01 -0.16407883823E-02  0.10203143900E+01  0.10200410567E+01 0.  0.
     999903    2    3    3    0    0 -0.30925017781E-01  0.22370583250E-01  0.12280496342E+00  0.13010225959E+00  0.19716470076E-01 0.  0.
         14    1    1    2    0    0 -0.19218844197E-01 -0.13625009266E-01  0.16407883823E-02  0.23615610013E-01  0.00000000000E+00 0.  1.
     999901    1    3    3    0    0  0.50143861978E-01 -0.87455739834E-02 -0.12444575180E+00  0.89021213039E+00  0.88000000000E+00 0.  1.
        -11    1    4    4    0    0 -0.21614582425E-01  0.35377249280E-02  0.65369268910E-01  0.68942788672E-01  0.51100000000E-03 0.  1.
         11    1    4    4    0    0 -0.93104353558E-02  0.18832858322E-01  0.57435694506E-01  0.61159470922E-01  0.51100000000E-03 0. -1.
</event>
<event>
 8    1  0.1122465E+005  0.1043930E+01  0.7957747E-01            NaN
         13   -1    0    0    0    0  0.00000000000E+00  0.00000000000E+00  0.74505805969E-08  0.10566000000E+00  0.10566000000E+00 0. -1.
     999900   -1    0    0    0    0 -0.00000000000E+00 -0.00000000000E+00 -0.74505805969E-08  0.93827000000E+00  0.93827000000E+00 0. -1.
     999902    2    1    2    0    0  0.12442265821E-02 -0.14303849731E-02 -0.23600296098E-01  0.10202536811E+01  0.10199789242E+01 0.  0.
     999903    2    3    3    0    0  0.12525273307E+00 -0.10572850348E-01 -0.33247015618E-01  0.13145969284E+00  0.19397280423E-01 0.  0.
         14    1    1    2    0    0 -0.12442265821E-02  0.14303849731E-02  0.23600296098E-01  0.23676318905E-01  0.00000000000E+00 0. -1.
     999901    1    3    3    0    0 -0.12400850649E+00  0.91424653753E-02  0.96467195199E-02  0.88879398825E+00  0.88000000000E+00 0.  1.
        -11    1    4    4    0    0  0.50860428153E-01  0.49469433487E-02 -0.15761091777E-01  0.53478299668E-01  0.51100000000E-03 0. -1.
         11    1    4    4    0    0  0.74392304922E-01 -0.15519793697E-01 -0.17485923841E-01  0.77981393175E-01  0.51100000000E-03 0.  1.
</event>
<event>
 8    1  0.1122465E+005  0.1043930E+01  0.7957747E-01            NaN
         13   -1    0    0    0    0  0.00000000000E+00  0.00000000000E+00  0.74505805969E-08  0.10566000000E+00  0.10566000000E+00 0. -1.
     999900   -1    0    0    0    0 -0.00000000000E+00 -0.00000000000E+00 -0.74505805969E-08  0.93827000000E+00  0.93827000000E+00 0. -1.
     999902    2    1    2    0    0 -0.11780741204E-01  0.85388818223E-02  0.19002620329E-01  0.10199968024E+01  0.10197159796E+01 0.  0.
     999903    2    3    3    0    0 -0.47871697105E-01  0.10481922597E+00 -0.58252903928E-01  0.13064823309E+00  0.19919600324E-01 0.  0.
         14    1    1    2    0    0  0.11780741204E-01 -0.85388818223E-02 -0.19002620329E-01  0.23933197560E-01  0.00000000000E+00 0.  1.
     999901    1    3    3    0    0  0.36090955901E-01 -0.96280344152E-01  0.77255524258E-01  0.88934856935E+00  0.88000000000E+00 0.  1.
        -11    1    4    4    0    0 -0.27230252936E-01  0.55997504140E-01 -0.20451325873E-01  0.65541780536E-01  0.51100000000E-03 0.  1.
         11    1    4    4    0    0 -0.20641444169E-01  0.48821721834E-01 -0.37801578056E-01  0.65106452558E-01  0.51100000000E-03 0. -1.
</event>
<event>
 8    1  0.1122465E+005  0.1043930E+01  0.7957747E-01            NaN
         13   -1    0    0    0    0  0.00000000000E+00  0.00000000000E+00  0.74505805969E-08  0.10566000000E+00  0.10566000000E+00 0. -1.
     999900   -1    0    0    0    0 -0.00000000000E+00 -0.00000000000E+00 -0.74505805969E-08  0.93827000000E+00  0.93827000000E+00 0.  1.
     999902    2    1    2    0    0 -0.10699307118E-01 -0.17675541016E-01 -0.75053044836E-02  0.10219475179E+01  0.10217110648E+01 0.  0.
     999903    2    3    3    0    0  0.10277311562E+00 -0.48363797966E-02  0.78109755377E-01  0.13044834616E+00  0.18164065256E-01 0.  0.
         14    1    1    2    0    0  0.10699307118E-01  0.17675541016E-01  0.75053044836E-02  0.21982482080E-01  0.00000000000E+00 0. -1.
     999901    1    3    3    0    0 -0.11347242273E+00 -0.12839161219E-01 -0.85615059860E-01  0.89149917176E+00  0.88000000000E+00 0.  1.
        -11    1    4    4    0    0  0.71204776576E-01  0.26230485180E-03  0.44068939514E-01  0.83740799864E-01  0.51100000000E-03 0. -1.
         11    1    4    4    0    0  0.31568339041E-01 -0.50986846484E-02  0.34040815863E-01  0.46707546291E-01  0.51100000000E-03 0.  1.
</event>
<event>
 8    1  0.1122465E+005  0.1043930E+01  0.7957747E-01            NaN
         13   -1    0    0    0    0  0.00000000000E+00  0.00000000000E+00  0.74505805969E-08  0.10566000000E+00  0.10566000000E+00 0. -1.
     999900   -1    0    0    0    0 -0.00000000000E+00 -0.00000000000E+00 -0.74505805969E-08  0.93827000000E+00  0.93827000000E+00 0.  1.
     999902    2    1    2    0    0 -0.16661230039E-01  0.12751395421E-01 -0.10830030951E-01  0.10203188958E+01  0.10200456680E+01 0.  0.
     999903    2    3    3    0    0 -0.15798434214E-01  0.12146793908E+00  0.44755488499E-01  0.13188781729E+00  0.19679731950E-01 0.  0.
         14    1    1    2    0    0  0.16661230039E-01 -0.12751395421E-01  0.10830030951E-01  0.23611104210E-01  0.00000000000E+00 0.  1.
     999901    1    3    3    0    0 -0.86279582452E-03 -0.10871654366E+00 -0.55585519450E-01  0.88843107851E+00  0.88000000000E+00 0.  1.
        -11    1    4    4    0    0 -0.19606206626E-01  0.78135338585E-01  0.29051415224E-01  0.85637493667E-01  0.51100000000E-03 0. -1.
         11    1    4    4    0    0  0.38077724117E-02  0.43332600494E-01  0.15704073275E-01  0.46250323618E-01  0.51100000000E-03 0.  1.
</event>
<event>
 8    1  0.1122465E+005  0.1043930E+01  0.7957747E-01            NaN
         13   -1    0    0    0    0  0.00000000000E+00  0.00000000000E+00  0.74505805969E-08  0.10566000000E+00  0.10566000000E+00 0. -1.
     999900   -1    0    0    0    0 -0.00000000000E+00 -0.00000000000E+00 -0.74505805969E-08  0.93827000000E+00  0.93827000000E+00 0. -1.
     999902    2    1    2    0    0 -0.37524518002E-02 -0.15865047163E-01 -0.16887415145E-01  0.10204573477E+01  0.10201873519E+01 0.  0.
     999903    2    3    3    0    0 -0.10922171481E+00  0.36997962001E-01 -0.60023059954E-01  0.13153724609E+00  0.20026162994E-01 0.  0.
         14    1    1    2    0    0  0.37524518002E-02  0.15865047163E-01  0.16887415145E-01  0.23472652306E-01  0.00000000000E+00 0. -1.
     999901    1    3    3    0    0  0.10546926301E+00 -0.52863009165E-01  0.43135644809E-01  0.88892010160E+00  0.88000000000E+00 0. -1.
        -11    1    4    4    0    0 -0.91264498692E-01  0.23531993906E-01 -0.52335162303E-01  0.10780627901E+00  0.51100000000E-03 0.  1.
         11    1    4    4    0    0 -0.17957216121E-01  0.13465968096E-01 -0.76878976505E-02  0.23730967087E-01  0.51100000000E-03 0. -1.
</event>
<event>
 8    1  0.1122465E+005  0.1043930E+01  0.7957747E-01            NaN
         13   -1    0    0    0    0  0.00000000000E+00  0.00000000000E+00  0.74505805969E-08  0.10566000000E+00  0.10566000000E+00 0. -1.
     999900   -1    0    0    0    0 -0.00000000000E+00 -0.00000000000E+00 -0.74505805969E-08  0.93827000000E+00  0.93827000000E+00 0. -1.
     999902    2    1    2    0    0  0.18007792014E-01 -0.43860090501E-02  0.14347008552E-01  0.10204916915E+01  0.10202224945E+01 0.  0.
     999903    2    3    3    0    0  0.22360345616E-02  0.46181498184E-01  0.12280646532E+00  0.13225226725E+00  0.16477367616E-01 0.  0.
         14    1    1    2    0    0 -0.18007792014E-01  0.43860090501E-02 -0.14347008552E-01  0.23438308450E-01  0.00000000000E+00 0. -1.
     999901    1    3    3    0    0  0.15771757453E-01 -0.50567507234E-01 -0.10845945676E+00  0.88823942430E+00  0.88000000000E+00 0. -1.
        -11    1    4    4    0    0  0.79154154763E-02  0.38958182987E-01  0.95859429152E-01  0.10377709334E+00  0.51100000000E-03 0. -1.
         11    1    4    4    0    0 -0.56793809147E-02  0.72233151970E-02  0.26947036165E-01  0.28475173908E-01  0.51100000000E-03 0.  1.
</event>
<event>
 8    1  0.1122465E+005  0.1043930E+01  0.7957747E-01            NaN
         13   -1    0    0    0    0  0.00000000000E+00  0.00000000000E+00  0.74505805969E-08  0.10566000000E+00  0.10566000000E+00 0.  1.
     999900   -1    0    0    0    0 -0.00000000000E+00 -0.00000000000E+00 -0.74505805969E-08  0.93827000000E+00  0.93827000000E+00 0.  1.
     999902    2    1    2    0    0 -0.12611027954E-01  0.11582122609E-01  0.16613228530E-01  0.10200724445E+01  0.10197934149E+01 0.  0.
     999903    2    3    3    0    0 -0.91008911517E-01  0.28638592763E-01 -0.86872086855E-01  0.13038353160E+00  0.18716700187E-01 0.  0.
         14    1    1    2    0    0  0.12611027954E-01 -0.11582122609E-01 -0.16613228530E-01  0.23857555457E-01  0.00000000000E+00 0. -1.
     999901    1    3    3    0    0  0.78397883563E-01 -0.17056470154E-01  0.10348531538E+00  0.88968891295E+00  0.88000000000E+00 0. -1.
        -11    1    4    4    0    0 -0.89884772370E-01  0.25138251313E-01 -0.81863478620E-01  0.12414948343E+00  0.51100000000E-03 0.  1.
         11    1    4    4    0    0 -0.11241391469E-02  0.35003414495E-02 -0.50086082342E-02  0.62340481654E-02  0.51100000000E-03 0. -1.
</event>
<event>
 8    1  0.1122465E+005  0.1043930E+01  0.7957747E-01            NaN
         13   -1    0    0    0    0  0.00000000000E+00  0.00000000000E+00  0.74505805969E-08  0.10566000000E+00  0.10566000000E+00 0. -1.
     999900   -1    0    0    0    0 -0.00000000000E+00 -0.00000000000E+00 -0.74505805969E-08  0.93827000000E+00  0.93827000000E+00 0. -1.
     999902    2    1    2    0    0  0.31064158513E-02  0.13593349613E-01  0.22969770356E-01  0.10170592106E+01  0.10167041844E+01 0.  0.
     999903    2    3    3    0    0 -0.15929529920E-01 -0.51029777888E-01  0.11630344595E+00  0.12956290590E+00  0.20056592213E-01 0.  0.
         14    1    1    2    0    0 -0.31064158513E-02 -0.13593349613E-01 -0.22969770356E-01  0.26870789407E-01  0.00000000000E+00 0.  1.
     999901    1    3    3    0    0  0.19035945772E-01  0.64623127501E-01 -0.93333675595E-01  0.88749630469E+00  0.88000000000E+00 0. -1.
        -11    1    4    4    0    0 -0.13330528942E-01 -0.15773555347E-01  0.31332985842E-01  0.37530323379E-01  0.51100000000E-03 0. -1.
         11    1    4    4    0    0 -0.25990009787E-02 -0.35256222541E-01  0.84970460109E-01  0.92032582524E-01  0.51100000000E-03 0.  1.
</event>
<event>
 8    1  0.1122465E+005  0.1043930E+01  0.7957747E-01            NaN
         13   -1    0    0    0    0  0.00000000000E+00  0.00000000000E+00  0.74505805969E-08  0.10566000000E+00  0.10566000000E+00 0. -1.
     999900   -1    0    0    0    0 -0.00000000000E+00 -0.00000000000E+00 -0.74505805969E-08  0.93827000000E+00  0.93827000000E+00 0. -1.
     999902    2    1    2    0    0  0.19606513505E-01  0.47605352921E-02 -0.47849461329E-02  0.10231941909E+01  0.10229840559E+01 0.  0.
     999903    2    3    3    0    0 -0.43899858443E-01  0.66201231489E-01 -0.10497024995E+00  0.13311267021E+00  0.19759275682E-01 0.  0.
         14    1    1    2    0    0 -0.19606513505E-01 -0.47605352921E-02  0.47849461329E-02  0.20735809065E-01  0.00000000000E+00 0. -1.
     999901    1    3    3    0    0  0.63506371948E-01 -0.61440696197E-01  0.10018530381E+00  0.89008152072E+00  0.88000000000E+00 0.  1.
        -11    1    4    4    0    0 -0.27974110294E-01  0.50578428072E-01 -0.87051154598E-01  0.10449350636E+00  0.51100000000E-03 0.  1.
         11    1    4    4    0    0 -0.15925748149E-01  0.15622803417E-01 -0.17919095349E-01  0.28619163857E-01  0.51100000000E-03 0. -1.
</event>
<event>
 8    1  0.1122465E+005  0.1043930E+01  0.7957747E-01            NaN
         13   -1    0    0    0    0  0.00000000000E+00  0.00000000000E+00  0.74505805969E-08  0.10566000000E+00  0.10566000000E+00 0.  1.
     999900   -1    0    0    0    0 -0.00000000000E+00 -0.00000000000E+00 -0.74505805969E-08  0.93827000000E+00  0.93827000000E+00 0.  1.
     999902    2    1    2    0    0 -0.24649450493E-02 -0.14788285776E-01  0.17686501569E-01  0.10207441921E+01  0.10204808298E+01 0.  0.
     999903    2    3    3    0    0  0.72651108130E-01  0.66399877462E-01  0.84203713130E-01  0.13132950888E+00  0.21680575582E-01 0.  0.
         14    1    1    2    0    0  0.24649450493E-02  0.14788285776E-01 -0.17686501569E-01  0.23185807902E-01  0.00000000000E+00 0. -1.
     999901    1    3    3    0    0 -0.75116053179E-01 -0.81188163238E-01 -0.66517211561E-01  0.88941468322E+00  0.88000000000E+00 0. -1.
        -11    1    4    4    0    0  0.48571928487E-01  0.34809414609E-01  0.40064424139E-01  0.71946833043E-01  0.51100000000E-03 0.  1.
         11    1    4    4    0    0  0.24079179642E-01  0.31590462854E-01  0.44139288991E-01  0.59382675834E-01  0.51100000000E-03 0. -1.
</event>
<event>
 8    1  0.1122465E+005  0.1043930E+01  0.7957747E-01            NaN
         13   -1    0    0    0    0  0.00000000000E+00  0.00000000000E+00  0.74505805969E-08  0.10566000000E+00  0.10566000000E+00 0.  1.
     999900   -1    0    0    0    0 -0.00000000000E+00 -0.00000000000E+00 -0.74505805969E-08  0.93827000000E+00  0.93827000000E+00 0.  1.
     999902    2    1    2    0    0  0.47411711420E-02  0.21219320994E-01 -0.10090731300E-01  0.10199599949E+01  0.10196782973E+01 0.  0.
     999903    2    3    3    0    0 -0.99569133716E-01 -0.76073455293E-01 -0.20033842764E-01  0.12841897536E+00  0.19720430726E-01 0.  0.
         14    1    1    2    0    0 -0.47411711420E-02 -0.21219320994E-01  0.10090731300E-01  0.23970005119E-01  0.00000000000E+00 0.  1.
     999901    1    3    3    0    0  0.10431030486E+00  0.97292776288E-01  0.99431114642E-02  0.89154101952E+00  0.88000000000E+00 0.  1.
        -11    1    4    4    0    0 -0.26440886646E-01 -0.24151772576E-01 -0.14248792951E-01  0.38545010400E-01  0.51100000000E-03 0. -1.
         11    1    4    4    0    0 -0.73128247070E-01 -0.51921682717E-01 -0.57850498140E-02  0.89873964963E-01  0.51100000000E-03 0.  1.
</event>
<event>
 8    1  0.1122465E+005  0.1043930E+01  0.7957747E-01            NaN
         13   -1    0    0    0    0  0.00000000000E+00  0.00000000000E+00  0.74505805969E-08  0.10566000000E+00  0.10566000000E+00 0. -1.
     999900   -1    0    0    0    0 -0.00000000000E+00 -0.00000000000E+00 -0.74505805969E-08  0.93827000000E+00  0.93827000000E+00 0.  1.
     999902    2    1    2    0    0  0.16248023051E-01 -0.12782845308E-01  0.10120214008E-01  0.10209122217E+01  0.10206527060E+01 0.  0.
     999903    2    3    3    0    0 -0.10818041619E+00  0.31339102387E-01  0.60617275197E-01  0.12963272795E+00  0.21096168286E-01 0.  0.
         14    1    1    2    0    0 -0.16248023051E-01  0.12782845308E-01 -0.10120214008E-01  0.23017778320E-01  0.00000000000E+00 0.  1.
     999901    1    3    3    0    0  0.12442843924E+00 -0.44121947695E-01 -0.50497061189E-01  0.89127949373E+00  0.88000000000E+00 0.  1.
        -11    1    4    4    0    0 -0.54873987269E-01  0.17221125628E-01  0.42753848931E-01  0.71665014939E-01  0.51100000000E-03 0.  1.
         11    1    4    4    0    0 -0.53306428924E-01  0.14117976759E-01  0.17863426266E-01  0.57967713007E-01  0.51100000000E-03 0. -1.
</event>
<event>
 8    1  0.1122465E+005  0.1043930E+01  0.7957747E-01            NaN
         13   -1    0    0    0    0  0.00000000000E+00  0.00000000000E+00  0.74505805969E-08  0.10566000000E+00  0.10566000000E+00 0.  1.
     999900   -1    0    0    0    0 -0.00000000000E+00 -0.00000000000E+00 -0.74505805969E-08  0.93827000000E+00  0.93827000000E+00 0.  1.
     999902    2    1    2    0    0  0.18627633260E-01  0.12649817399E-01 -0.75414126532E-02  0.10201838528E+01  0.10199074537E+01 0.  0.
     999903    2    3    3    0    0  0.11585426382E+00  0.62879803077E-01  0.24101783406E-02  0.13334953723E+00  0.20005250244E-01 0.  0.
         14    1    1    2    0    0 -0.18627633260E-01 -0.12649817399E-01  0.75414126532E-02  0.23746147180E-01  0.00000000000E+00 0. -1.
     999901    1    3    3    0    0 -0.97226630564E-01 -0.50229985678E-01 -0.99515909938E-02  0.88683431559E+00  0.88000000000E+00 0.  1.
        -11    1    4    4    0    0  0.25105875050E-01  0.23511008978E-01  0.33101642420E-04  0.34399632584E-01  0.51100000000E-03 0. -1.
         11    1    4    4    0    0  0.90748388774E-01  0.39368794099E-01  0.23770766982E-02  0.98949904641E-01  0.51100000000E-03 0.  1.
</event>
<event>
 8    1  0.1122465E+005  0.1043930E+01  0.7957747E-01            NaN
         13   -1    0    0    0    0  0.00000000000E+00  0.00000000000E+00  0.74505805969E-08  0.10566000000E+00  0.10566000000E+00 0.  1.
     999900   -1    0    0    0    0 -0.00000000000E+00 -0.00000000000E+00 -0.74505805969E-08  0.93827000000E+00  0.93827000000E+00 0. -1.
     999902    2    1    2    0    0 -0.48817624098E-02 -0.23236595345E-01  0.21092123271E-02  0.10200926397E+01  0.10198140879E+01 0.  0.
     999903    2    3    3    0    0 -0.12481093798E+00 -0.30994201127E-01  0.17729973777E-01  0.13178683891E+00  0.22693792034E-01 0.  0.
         14    1    1    2    0    0  0.48817624098E-02  0.23236595345E-01 -0.21092123271E-02  0.23837360259E-01  0.00000000000E+00 0.  1.
     999901    1    3    3    0    0  0.11992917557E+00  0.77576057814E-02 -0.15620761450E-01  0.88830580083E+00  0.88000000000E+00 0.  1.
        -11    1    4    4    0    0 -0.73132683075E-01 -0.11377802613E-01  0.19289033165E-01  0.76486414790E-01  0.51100000000E-03 0. -1.
         11    1    4    4    0    0 -0.51678254906E-01 -0.19616398513E-01 -0.15590593875E-02  0.55300424121E-01  0.51100000000E-03 0.  1.
</event>
<event>
 8    1  0.1122465E+005  0.1043930E+01  0.7957747E-01            NaN
         13   -1    0    0    0    0  0.00000000000E+00  0.00000000000E+00  0.74505805969E-08  0.10566000000E+00  0.10566000000E+00 0.  1.
     999900   -1    0    0    0    0 -0.00000000000E+00 -0.00000000000E+00 -0.74505805969E-08  0.93827000000E+00  0.93827000000E+00 0.  1.
     999902    2    1    2    0    0  0.21950256771E-01  0.72012863911E-02 -0.80118102918E-02  0.10194787955E+01  0.10191855342E+01 0.  0.
     999903    2    3    3    0    0 -0.33727573121E-02  0.12110243480E+00  0.43701578440E-01  0.13027184476E+00  0.19589547504E-01 0.  0.
         14    1    1    2    0    0 -0.21950256771E-01 -0.72012863911E-02  0.80118102918E-02  0.24451204514E-01  0.00000000000E+00 0. -1.
     999901    1    3    3    0    0  0.25323014084E-01 -0.11390114841E+00 -0.51713388732E-01  0.88920695073E+00  0.88000000000E+00 0. -1.
        -11    1    4    4    0    0 -0.97604465697E-02  0.10049720900E+00  0.33330862190E-01  0.10633044169E+00  0.51100000000E-03 0.  1.
         11    1    4    4    0    0  0.63876892576E-02  0.20605225797E-01  0.10370716250E-01  0.23941403065E-01  0.51100000000E-03 0. -1.
</event>
<event>
 8    1  0.1122465E+005  0.1043930E+01  0.7957747E-01            NaN
         13   -1    0    0    0    0  0.00000000000E+00  0.00000000000E+00  0.74505805969E-08  0.10566000000E+00  0.10566000000E+00 0.  1.
     999900   -1    0    0    0    0 -0.00000000000E+00 -0.00000000000E+00 -0.74505805969E-08  0.93827000000E+00  0.93827000000E+00 0. -1.
     999902    2    1    2    0    0 -0.11790838307E-02 -0.19587501880E-01  0.14746384941E-01  0.10193837918E+01  0.10190882193E+01 0.  0.
     999903    2    3    3    0    0  0.10074140118E+00  0.67656054134E-01  0.38623371187E-01  0.12889553594E+00  0.19902834270E-01 0.  0.
         14    1    1    2    0    0  0.11790838307E-02  0.19587501880E-01 -0.14746384941E-01  0.24546208208E-01  0.00000000000E+00 0. -1.
     999901    1    3    3    0    0 -0.10192048501E+00 -0.87243556014E-01 -0.23876986246E-01  0.89048825585E+00  0.88000000000E+00 0.  1.
        -11    1    4    4    0    0  0.66106217856E-01  0.54951853158E-01  0.29537328421E-01  0.90898036810E-01  0.51100000000E-03 0. -1.
         11    1    4    4    0    0  0.34635183324E-01  0.12704200976E-01  0.90860427657E-02  0.37997499134E-01  0.51100000000E-03 0.  1.
</event>
<event>
 8    1  0.1122465E+005  0.1043930E+01  0.7957747E-01            NaN
         13   -1    0    0    0    0  0.00000000000E+00  0.00000000000E+00  0.74505805969E-08  0.10566000000E+00  0.10566000000E+00 0.  1.
     999900   -1    0    0    0    0 -0.00000000000E+00 -0.00000000000E+00 -0.74505805969E-08  0.93827000000E+00  0.93827000000E+00 0.  1.
     999902    2    1    2    0    0 -0.16030157504E-01 -0.64244638443E-03  0.17124229395E-01  0.10204647508E+01  0.10201949273E+01 0.  0.
     999903    2    3    3    0    0 -0.23767927633E-02  0.12559707877E+00 -0.26142881218E-01  0.13029910615E+00  0.22674467715E-01 0.  0.
         14    1    1    2    0    0  0.16030157504E-01  0.64244638443E-03 -0.17124229395E-01  0.23465249185E-01  0.00000000000E+00 0.  1.
     999901    1    3    3    0    0 -0.13653364740E-01 -0.12623952515E+00  0.43267110612E-01  0.89016564466E+00  0.88000000000E+00 0. -1.
        -11    1    4    4    0    0  0.42523303621E-02  0.20930559475E-01 -0.11911416025E-01  0.24460449427E-01  0.51100000000E-03 0.  1.
         11    1    4    4    0    0 -0.66291231254E-02  0.10466651929E+00 -0.14231465192E-01  0.10583865672E+00  0.51100000000E-03 0. -1.
</event>
<event>
 8    1  0.1122465E+005  0.1043930E+01  0.7957747E-01            NaN
         13   -1    0    0    0    0  0.00000000000E+00  0.00000000000E+00  0.74505805969E-08  0.10566000000E+00  0.10566000000E+00 0.  1.
     999900   -1    0    0    0    0 -0.00000000000E+00 -0.00000000000E+00 -0.74505805969E-08  0.93827000000E+00  0.93827000000E+00 0.  1.
     999902    2    1    2    0    0 -0.36233158911E-02  0.85154263071E-02  0.21420235286E-01  0.10205961751E+01  0.10203294004E+01 0.  0.
     999903    2    3    3    0    0 -0.94125097115E-01  0.11367931343E-01 -0.85755938321E-01  0.12948145672E+00  0.20557307852E-01 0.  0.
         14    1    1    2    0    0  0.36233158911E-02 -0.85154263071E-02 -0.21420235286E-01  0.23333824867E-01  0.00000000000E+00 0. -1.
     999901    1    3    3    0    0  0.90501781223E-01 -0.28525050356E-02  0.10717617361E+00  0.89111471842E+00  0.88000000000E+00 0. -1.
        -11    1    4    4    0    0 -0.61513219849E-01  0.13339582178E-01 -0.45683554716E-01  0.77775760757E-01  0.51100000000E-03 0.  1.
         11    1    4    4    0    0 -0.32611877266E-01 -0.19716508350E-02 -0.40072383605E-01  0.51705695959E-01  0.51100000000E-03 0. -1.
</event>
<event>
 8    1  0.1122465E+005  0.1043930E+01  0.7957747E-01            NaN
         13   -1    0    0    0    0  0.00000000000E+00  0.00000000000E+00  0.74505805969E-08  0.10566000000E+00  0.10566000000E+00 0.  1.
     999900   -1    0    0    0    0 -0.00000000000E+00 -0.00000000000E+00 -0.74505805969E-08  0.93827000000E+00  0.93827000000E+00 0. -1.
     999902    2    1    2    0    0  0.98351454668E-02  0.22283413526E-01 -0.43365533849E-02  0.10191896221E+01  0.10188892970E+01 0.  0.
     999903    2    3    3    0    0 -0.76771410356E-01 -0.76520041307E-01 -0.65131170430E-01  0.12736071266E+00  0.15149772229E-01 0.  0.
         14    1    1    2    0    0 -0.98351454668E-02 -0.22283413526E-01  0.43365533849E-02  0.24740377928E-01  0.00000000000E+00 0. -1.
     999901    1    3    3    0    0  0.86606555823E-01  0.98803454833E-01  0.60794617045E-01  0.89182890941E+00  0.88000000000E+00 0.  1.
        -11    1    4    4    0    0 -0.29442842163E-01 -0.24705975577E-01 -0.15699574978E-01  0.41521126662E-01  0.51100000000E-03 0. -1.
         11    1    4    4    0    0 -0.47328568193E-01 -0.51814065730E-01 -0.49431595451E-01  0.85839586000E-01  0.51100000000E-03 0.  1.
</event>
<event>
 8    1  0.1122465E+005  0.1043930E+01  0.7957747E-01            NaN
         13   -1    0    0    0    0  0.00000000000E+00  0.00000000000E+00  0.74505805969E-08  0.10566000000E+00  0.10566000000E+00 0. -1.
     999900   -1    0    0    0    0 -0.00000000000E+00 -0.00000000000E+00 -0.74505805969E-08  0.93827000000E+00  0.93827000000E+00 0. -1.
     999902    2    1    2    0    0  0.29377530268E-02 -0.65894665949E-02 -0.23893420435E-01  0.10189710937E+01  0.10186653733E+01 0.  0.
     999903    2    3    3    0    0  0.44632223703E-01 -0.52005687587E-01 -0.11183534625E+00  0.13244143018E+00  0.18356492677E-01 0.  0.
         14    1    1    2    0    0 -0.29377530268E-02  0.65894665949E-02  0.23893420435E-01  0.24958906285E-01  0.00000000000E+00 0. -1.
     999901    1    3    3    0    0 -0.41694470676E-01  0.45416220992E-01  0.87941925812E-01  0.88652966354E+00  0.88000000000E+00 0.  1.
        -11    1    4    4    0    0  0.28601340359E-01 -0.19732930568E-01 -0.59313489188E-01  0.68744282233E-01  0.51100000000E-03 0. -1.
         11    1    4    4    0    0  0.16030883345E-01 -0.32272757019E-01 -0.52521857060E-01  0.63697147946E-01  0.51100000000E-03 0.  1.
</event>
<event>
 8    1  0.1122465E+005  0.1043930E+01  0.7957747E-01            NaN
         13   -1    0    0    0    0  0.00000000000E+00  0.00000000000E+00  0.74505805969E-08  0.10566000000E+00  0.10566000000E+00 0. -1.
     999900   -1    0    0    0    0 -0.00000000000E+00 -0.00000000000E+00 -0.74505805969E-08  0.93827000000E+00  0.93827000000E+00 0.  1.
     999902    2    1    2    0    0 -0.16467312209E-01 -0.15825596684E-01 -0.69166839786E-02  0.10200665887E+01  0.10197874205E+01 0.  0.
     999903    2    3    3    0    0  0.14123018402E-01 -0.11239234285E+00 -0.65167983106E-01  0.13234246565E+00  0.20884535199E-01 0.  0.
         14    1    1    2    0    0  0.16467312209E-01  0.15825596684E-01  0.69166839786E-02  0.23863411304E-01  0.00000000000E+00 0. -1.
     999901    1    3    3    0    0 -0.30590330611E-01  0.96566746170E-01  0.58251299128E-01  0.88772412305E+00  0.88000000000E+00 0.  1.
        -11    1    4    4    0    0  0.12364580795E-01 -0.39518065637E-01 -0.15902260158E-01  0.44358802610E-01  0.51100000000E-03 0.  1.
         11    1    4    4    0    0  0.17584376074E-02 -0.72874277218E-01 -0.49265722948E-01  0.87983663037E-01  0.51100000000E-03 0. -1.
</event>
<event>
 8    1  0.1122465E+005  0.1043930E+01  0.7957747E-01            NaN
         13   -1    0    0    0    0  0.00000000000E+00  0.00000000000E+00  0.74505805969E-08  0.10566000000E+00  0.10566000000E+00 0.  1.
     999900   -1    0    0    0    0 -0.00000000000E+00 -0.00000000000E+00 -0.74505805969E-08  0.93827000000E+00  0.93827000000E+00 0.  1.
     999902    2    1    2    0    0 -0.17243002359E-01  0.87818892552E-02 -0.14297689663E-01  0.10198703525E+01  0.10195865188E+01 0.  0.
     999903    2    3    3    0    0  0.95982980764E-01  0.17692979962E-01 -0.83368965404E-01  0.12988699762E+00  0.19861360014E-01 0.  0.
         14    1    1    2    0    0  0.17243002359E-01 -0.87818892552E-02  0.14297689663E-01  0.24059647523E-01  0.00000000000E+00 0.  1.
     999901    1    3    3    0    0 -0.11322598312E+00 -0.89110907072E-02  0.69071275741E-01  0.88998335486E+00  0.88000000000E+00 0. -1.
        -11    1    4    4    0    0  0.14412054420E-01 -0.33237776151E-03 -0.21671947536E-01  0.26033674704E-01  0.51100000000E-03 0. -1.
         11    1    4    4    0    0  0.81570926344E-01  0.18025357724E-01 -0.61697017868E-01  0.10385332291E+00  0.51100000000E-03 0.  1.
</event>
<event>
 8    1  0.1122465E+005  0.1043930E+01  0.7957747E-01            NaN
         13   -1    0    0    0    0  0.00000000000E+00  0.00000000000E+00  0.74505805969E-08  0.10566000000E+00  0.10566000000E+00 0. -1.
     999900   -1    0    0    0    0 -0.00000000000E+00 -0.00000000000E+00 -0.74505805969E-08  0.93827000000E+00  0.93827000000E+00 0.  1.
     999902    2    1    2    0    0 -0.14951003598E-01 -0.84834503340E-02  0.15971877985E-01  0.10204650831E+01  0.10201952674E+01 0.  0.
     999903    2    3    3    0    0 -0.45573800332E-02 -0.22454270456E-01  0.12928565387E+00  0.13302876256E+00  0.21375392339E-01 0.  0.
         14    1    1    2    0    0  0.14951003598E-01  0.84834503340E-02 -0.15971877985E-01  0.23464916887E-01  0.00000000000E+00 0. -1.
     999901    1    3    3    0    0 -0.10393623565E-01  0.13970820122E-01 -0.11331377589E+00  0.88743632055E+00  0.88000000000E+00 0.  1.
        -11    1    4    4    0    0 -0.61964457064E-02 -0.33046184975E-03  0.58896082464E-01  0.59224275386E-01  0.51100000000E-03 0.  1.
         11    1    4    4    0    0  0.16390656731E-02 -0.22123808606E-01  0.70389571408E-01  0.73804487177E-01  0.51100000000E-03 0. -1.
</event>
<event>
 8    1  0.1122465E+005  0.1043930E+01  0.7957747E-01            NaN
         13   -1    0    0    0    0  0.00000000000E+00  0.00000000000E+00  0.74505805969E-08  0.10566000000E+00  0.10566000000E+00 0. -1.
     999900   -1    0    0    0    0 -0.00000000000E+00 -0.00000000000E+00 -0.74505805969E-08  0.93827000000E+00  0.93827000000E+00 0. -1.
     999902    2    1    2    0    0 -0.87298780191E-03  0.23521531921E-01  0.12327320182E-03  0.10203919506E+01  0.10201204307E+01 0.  0.
     999903    2    3    3    0    0  0.60650297237E-01 -0.61270144828E-01 -0.94018066286E-01  0.12919200963E+00  0.20461900247E-01 0.  0.
         14    1    1    2    0    0  0.87298780191E-03 -0.23521531921E-01 -0.12327320182E-03  0.23538049365E-01  0.00000000000E+00 0.  1.
     999901    1    3    3    0    0 -0.61523285039E-01  0.84791676749E-01  0.94141339488E-01  0.89119994101E+00  0.88000000000E+00 0. -1.
        -11    1    4    4    0    0  0.49997609951E-01 -0.59207712361E-01 -0.85448926646E-01  0.11535637993E+00  0.51100000000E-03 0. -1.
         11    1    4    4    0    0  0.10652687286E-01 -0.20624324668E-02 -0.85691396399E-02  0.13835629703E-01  0.51100000000E-03 0.  1.
</event>
<event>
 8    1  0.1122465E+005  0.1043930E+01  0.7957747E-01            NaN
         13   -1    0    0    0    0  0.00000000000E+00  0.00000000000E+00  0.74505805969E-08  0.10566000000E+00  0.10566000000E+00 0. -1.
     999900   -1    0    0    0    0 -0.00000000000E+00 -0.00000000000E+00 -0.74505805969E-08  0.93827000000E+00  0.93827000000E+00 0.  1.
     999902    2    1    2    0    0  0.13728354239E-01  0.18350298286E-01 -0.66782411692E-02  0.10200595148E+01  0.10197801791E+01 0.  0.
     999903    2    3    3    0    0  0.25136223095E-01 -0.12366278095E+00  0.13412296314E-01  0.12837488232E+00  0.19388337094E-01 0.  0.
         14    1    1    2    0    0 -0.13728354239E-01 -0.18350298286E-01  0.66782411692E-02  0.23870485173E-01  0.00000000000E+00 0. -1.
     999901    1    3    3    0    0 -0.11407868856E-01  0.14201307924E+00 -0.20090537483E-01  0.89168463250E+00  0.88000000000E+00 0.  1.
        -11    1    4    4    0    0  0.25614344848E-01 -0.83574535897E-01  0.12216645512E-01  0.88262705946E-01  0.51100000000E-03 0.  1.
         11    1    4    4    0    0 -0.47812175294E-03 -0.40088245054E-01  0.11956508020E-02  0.40112176378E-01  0.51100000000E-03 0. -1.
</event>
<event>
 8    1  0.1122465E+005  0.1043930E+01  0.7957747E-01            NaN
         13   -1    0    0    0    0  0.00000000000E+00  0.00000000000E+00  0.74505805969E-08  0.10566000000E+00  0.10566000000E+00 0. -1.
     999900   -1    0    0    0    0 -0.00000000000E+00 -0.00000000000E+00 -0.74505805969E-08  0.93827000000E+00  0.93827000000E+00 0.  1.
     999902    2    1    2    0    0 -0.85373148617E-02 -0.44550254245E-02 -0.21190177815E-01  0.10206543339E+01  0.10203889027E+01 0.  0.
     999903    2    3    3    0    0 -0.13658614016E-01  0.11525531885E+00  0.53885712705E-01  0.12936695961E+00  0.19020881788E-01 0.  0.
         14    1    1    2    0    0  0.85373148617E-02  0.44550254245E-02  0.21190177815E-01  0.23275666100E-01  0.00000000000E+00 0. -1.
     999901    1    3    3    0    0  0.51212991547E-02 -0.11971034428E+00 -0.75075890520E-01  0.89128737429E+00  0.88000000000E+00 0.  1.
        -11    1    4    4    0    0  0.13726115096E-03  0.39624964675E-01  0.26866626657E-01  0.47877274516E-01  0.51100000000E-03 0. -1.
         11    1    4    4    0    0 -0.13795875167E-01  0.75630354179E-01  0.27019086048E-01  0.81489685094E-01  0.51100000000E-03 0.  1.
</event>
<event>
 8    1  0.1122465E+005  0.1043930E+01  0.7957747E-01            NaN
         13   -1    0    0    0    0  0.00000000000E+00  0.00000000000E+00  0.74505805969E-08  0.10566000000E+00  0.10566000000E+00 0.  1.
     999900   -1    0    0    0    0 -0.00000000000E+00 -0.00000000000E+00 -0.74505805969E-08  0.93827000000E+00  0.93827000000E+00 0.  1.
     999902    2    1    2    0    0 -0.17952848624E-01  0.54014021520E-02  0.81438423667E-02  0.10234897924E+01  0.10232856654E+01 0.  0.
     999903    2    3    3    0    0 -0.75328630050E-01  0.32194757341E-01  0.10648057837E+00  0.13575110458E+00  0.19476753270E-01 0.  0.
         14    1    1    2    0    0  0.17952848624E-01 -0.54014021520E-02 -0.81438423667E-02  0.20440207616E-01  0.00000000000E+00 0.  1.
     999901    1    3    3    0    0  0.57375781426E-01 -0.26793355189E-01 -0.98336736008E-01  0.88773868780E+00  0.88000000000E+00 0. -1.
        -11    1    4    4    0    0 -0.47633045312E-01  0.28916520116E-01  0.63180861409E-01  0.84244611167E-01  0.51100000000E-03 0. -1.
         11    1    4    4    0    0 -0.27695584738E-01  0.32782372253E-02  0.43299716966E-01  0.51506493412E-01  0.51100000000E-03 0.  1.
</event>
<event>
 8    1  0.1122465E+005  0.1043930E+01  0.7957747E-01            NaN
         13   -1    0    0    0    0  0.00000000000E+00  0.00000000000E+00  0.74505805969E-08  0.10566000000E+00  0.10566000000E+00 0. -1.
     999900   -1    0    0    0    0 -0.00000000000E+00 -0.00000000000E+00 -0.74505805969E-08  0.93827000000E+00  0.93827000000E+00 0. -1.
     999902    2    1    2    0    0  0.22570563561E-01  0.13911267909E-03  0.47100590033E-02  0.10208728027E+01  0.10206123872E+01 0.  0.
     999903    2    3    3    0    0 -0.91873788310E-01 -0.80635481440E-01  0.39815565902E-01  0.12910240548E+00  0.11801608681E-01 0.  0.
         14    1    1    2    0    0 -0.22570563561E-01 -0.13911267909E-03 -0.47100590033E-02  0.23057197306E-01  0.00000000000E+00 0.  1.
     999901    1    3    3    0    0  0.11444435187E+00  0.80774594119E-01 -0.35105506898E-01  0.89177039721E+00  0.88000000000E+00 0.  1.
        -11    1    4    4    0    0 -0.10479142100E-01 -0.83292955542E-02  0.83000225504E-02  0.15758841294E-01  0.51100000000E-03 0. -1.
         11    1    4    4    0    0 -0.81394646209E-01 -0.72306185886E-01  0.31515543351E-01  0.11334356419E+00  0.51100000000E-03 0.  1.
</event>
<event>
 8    1  0.1122465E+005  0.1043930E+01  0.7957747E-01            NaN
         13   -1    0    0    0    0  0.00000000000E+00  0.00000000000E+00  0.74505805969E-08  0.10566000000E+00  0.10566000000E+00 0. -1.
     999900   -1    0    0    0    0 -0.00000000000E+00 -0.00000000000E+00 -0.74505805969E-08  0.93827000000E+00  0.93827000000E+00 0.  1.
     999902    2    1    2    0    0 -0.18542426109E-01  0.11939977074E-01  0.92270932995E-02  0.10200234346E+01  0.10197432438E+01 0.  0.
     999903    2    3    3    0    0  0.62545444254E-01 -0.87741733769E-01 -0.65447060200E-01  0.12756171811E+00  0.19445559819E-01 0.  0.
         14    1    1    2    0    0  0.18542426109E-01 -0.11939977074E-01 -0.92270932995E-02  0.23906565401E-01  0.00000000000E+00 0.  1.
     999901    1    3    3    0    0 -0.81087870363E-01  0.99681710844E-01  0.74674153499E-01  0.89246171649E+00  0.88000000000E+00 0. -1.
        -11    1    4    4    0    0  0.60846732606E-01 -0.78884305479E-01 -0.55180518169E-01  0.11388682639E+00  0.51100000000E-03 0. -1.
         11    1    4    4    0    0  0.16987116481E-02 -0.88574282906E-02 -0.10266542030E-01  0.13674891716E-01  0.51100000000E-03 0.  1.
</event>
<event>
 8    1  0.1122465E+005  0.1043930E+01  0.7957747E-01            NaN
         13   -1    0    0    0    0  0.00000000000E+00  0.00000000000E+00  0.74505805969E-08  0.10566000000E+00  0.10566000000E+00 0.  1.
     999900   -1    0    0    0    0 -0.00000000000E+00 -0.00000000000E+00 -0.74505805969E-08  0.93827000000E+00  0.93827000000E+00 0. -1.
     999902    2    1    2    0    0  0.13974228702E-01  0.18435002140E-01 -0.36484641951E-02  0.10205112113E+01  0.10202424676E+01 0.  0.
     999903    2    3    3    0    0 -0.61509411941E-01 -0.86380911101E-01 -0.68992318390E-01  0.12868500912E+00  0.23554660159E-01 0.  0.
         14    1    1    2    0    0 -0.13974228702E-01 -0.18435002140E-01  0.36484641951E-02  0.23418788668E-01  0.00000000000E+00 0.  1.
     999901    1    3    3    0    0  0.75483640643E-01  0.10481591324E+00  0.65343854194E-01  0.89182620221E+00  0.88000000000E+00 0.  1.
        -11    1    4    4    0    0 -0.36861530468E-01 -0.69418477968E-01 -0.52435498962E-01  0.94485132080E-01  0.51100000000E-03 0. -1.
         11    1    4    4    0    0 -0.24647881473E-01 -0.16962433133E-01 -0.16556819427E-01  0.34199877038E-01  0.51100000000E-03 0.  1.
</event>
<event>
 8    1  0.1122465E+005  0.1043930E+01  0.7957747E-01            NaN
         13   -1    0    0    0    0  0.00000000000E+00  0.00000000000E+00  0.74505805969E-08  0.10566000000E+00  0.10566000000E+00 0. -1.
     999900   -1    0    0    0    0 -0.00000000000E+00 -0.00000000000E+00 -0.74505805969E-08  0.93827000000E+00  0.93827000000E+00 0. -1.
     999902    2    1    2    0    0 -0.11107675103E-01  0.14876234142E-01  0.13988870778E-01  0.10206841123E+01  0.10204193676E+01 0.  0.
     999903    2    3    3    0    0  0.50404998829E-01 -0.31272247793E-01 -0.11199471760E+00  0.12839192028E+00  0.20568204409E-01 0.  0.
         14    1    1    2    0    0  0.11107675103E-01 -0.14876234142E-01 -0.13988870778E-01  0.23245887682E-01  0.00000000000E+00 0. -1.
     999901    1    3    3    0    0 -0.61512673933E-01  0.46148481935E-01  0.12598358838E+00  0.89229219204E+00  0.88000000000E+00 0.  1.
        -11    1    4    4    0    0  0.31774015304E-01 -0.30545731096E-01 -0.81052532267E-01  0.92262689342E-01  0.51100000000E-03 0. -1.
         11    1    4    4    0    0  0.18630983525E-01 -0.72651669688E-03 -0.30942185334E-01  0.36129230934E-01  0.51100000000E-03 0.  1.
</event>
<event>
 8    1  0.1122465E+005  0.1043930E+01  0.7957747E-01            NaN
         13   -1    0    0    0    0  0.00000000000E+00  0.00000000000E+00  0.74505805969E-08  0.10566000000E+00  0.10566000000E+00 0.  1.
     999900   -1    0    0    0    0 -0.00000000000E+00 -0.00000000000E+00 -0.74505805969E-08  0.93827000000E+00  0.93827000000E+00 0. -1.
     999902    2    1    2    0    0  0.12740393469E-01  0.18811905071E-01  0.46622508716E-02  0.10207364237E+01  0.10204728829E+01 0.  0.
     999903    2    3    3    0    0  0.29258122068E-01  0.10474546027E+00  0.74612740712E-01  0.13363412842E+00  0.21526031893E-01 0.  0.
         14    1    1    2    0    0 -0.12740393469E-01 -0.18811905071E-01 -0.46622508716E-02  0.23193576295E-01  0.00000000000E+00 0. -1.
     999901    1    3    3    0    0 -0.16517728599E-01 -0.85933555197E-01 -0.69950489840E-01  0.88710229528E+00  0.88000000000E+00 0. -1.
        -11    1    4    4    0    0  0.13847931712E-01  0.25292337381E-01  0.11698796494E-01  0.31122186673E-01  0.51100000000E-03 0.  1.
         11    1    4    4    0    0  0.15410190356E-01  0.79453122887E-01  0.62913944218E-01  0.10251194175E+00  0.51100000000E-03 0. -1.
</event>
<event>
 8    1  0.1122465E+005  0.1043930E+01  0.7957747E-01            NaN
         13   -1    0    0    0    0  0.00000000000E+00  0.00000000000E+00  0.74505805969E-08  0.10566000000E+00  0.10566000000E+00 0.  1.
     999900   -1    0    0    0    0 -0.00000000000E+00 -0.00000000000E+00 -0.74505805969E-08  0.93827000000E+00  0.93827000000E+00 0. -1.
     999902    2    1    2    0    0  0.14563226246E-01  0.18999531008E-01 -0.75066391806E-02  0.10188417683E+01  0.10185328318E+01 0.  0.
     999903    2    3    3    0    0 -0.25278582211E-01 -0.11669407570E+00  0.36205556811E-01  0.12647924071E+00  0.20727806544E-01 0.  0.
         14    1    1    2    0    0 -0.14563226246E-01 -0.18999531008E-01  0.75066391806E-02  0.25088231684E-01  0.00000000000E+00 0.  1.
     999901    1    3    3    0    0  0.39841808457E-01  0.13569360671E+00 -0.43712195992E-01  0.89236252761E+00  0.88000000000E+00 0. -1.
        -11    1    4    4    0    0 -0.69157673867E-02 -0.11833784032E-01 -0.88818772690E-03  0.13744681935E-01  0.51100000000E-03 0. -1.
         11    1    4    4    0    0 -0.18362814824E-01 -0.10486029167E+00  0.37093744538E-01  0.11273455877E+00  0.51100000000E-03 0.  1.
</event>
<event>
 8    1  0.1122465E+005  0.1043930E+01  0.7957747E-01            NaN
         13   -1    0    0    0    0  0.00000000000E+00  0.00000000000E+00  0.74505805969E-08  0.10566000000E+00  0.10566000000E+00 0.  1.
     999900   -1    0    0    0    0 -0.00000000000E+00 -0.00000000000E+00 -0.74505805969E-08  0.93827000000E+00  0.93827000000E+00 0. -1.
     999902    2    1    2    0    0  0.15955002265E-01 -0.10133509723E-01 -0.18640207501E-01  0.10173836735E+01  0.10170372813E+01 0.  0.
     999903    2    3    3    0    0 -0.60434391010E-01 -0.11053942320E+00  0.12779241811E-01  0.12783105071E+00  0.17498251485E-01 0.  0.
         14    1    1    2    0    0 -0.15955002265E-01  0.10133509723E-01  0.18640207501E-01  0.26546326530E-01  0.00000000000E+00 0.  1.
     999901    1    3    3    0    0  0.76389393276E-01  0.10040591348E+00 -0.31419449311E-01  0.88955262276E+00  0.88000000000E+00 0. -1.
        -11    1    4    4    0    0 -0.30441357164E-01 -0.61340311011E-01 -0.13788438361E-02  0.68494323212E-01  0.51100000000E-03 0. -1.
         11    1    4    4    0    0 -0.29993033847E-01 -0.49199112192E-01  0.14158085647E-01  0.59336727496E-01  0.51100000000E-03 0.  1.
</event>
<event>
 8    1  0.1122465E+005  0.1043930E+01  0.7957747E-01            NaN
         13   -1    0    0    0    0  0.00000000000E+00  0.00000000000E+00  0.74505805969E-08  0.10566000000E+00  0.10566000000E+00 0.  1.
     999900   -1    0    0    0    0 -0.00000000000E+00 -0.00000000000E+00 -0.74505805969E-08  0.93827000000E+00  0.93827000000E+00 0.  1.
     999902    2    1    2    0    0 -0.53655364550E-03  0.22266401041E-01 -0.72471032136E-02  0.10205077668E+01  0.10202389431E+01 0.  0.
     999903    2    3    3    0    0 -0.41306760712E-01  0.11161486698E+00 -0.56857489204E-01  0.13365572242E+00  0.21609050061E-01 0.  0.
         14    1    1    2    0    0  0.53655364550E-03 -0.22266401041E-01  0.72471032136E-02  0.23422233244E-01  0.00000000000E+00 0.  1.
     999901    1    3    3    0    0  0.40770207067E-01 -0.89348465940E-01  0.49610385990E-01  0.88685204434E+00  0.88000000000E+00 0. -1.
        -11    1    4    4    0    0 -0.20149551896E-01  0.33699138244E-01 -0.26624224042E-01  0.47442036074E-01  0.51100000000E-03 0.  1.
         11    1    4    4    0    0 -0.21157208816E-01  0.77915728738E-01 -0.30233265162E-01  0.86213686344E-01  0.51100000000E-03 0. -1.
</event>
<event>
 8    1  0.1122465E+005  0.1043930E+01  0.7957747E-01            NaN
         13   -1    0    0    0    0  0.00000000000E+00  0.00000000000E+00  0.74505805969E-08  0.10566000000E+00  0.10566000000E+00 0. -1.
     999900   -1    0    0    0    0 -0.00000000000E+00 -0.00000000000E+00 -0.74505805969E-08  0.93827000000E+00  0.93827000000E+00 0. -1.
     999902    2    1    2    0    0 -0.69859472742E-02 -0.30573927791E-01  0.59211352664E-02  0.10120140422E+01  0.10115106491E+01 0.  0.
     999903    2    3    3    0    0  0.82929920739E-01  0.83987929850E-01 -0.11446047980E-01  0.11987565517E+00  0.17544702154E-01 0.  0.
         14    1    1    2    0    0  0.69859472742E-02  0.30573927791E-01 -0.59211352664E-02  0.31915957807E-01  0.00000000000E+00 0. -1.
     999901    1    3    3    0    0 -0.89915868014E-01 -0.11456185764E+00  0.17367183246E-01  0.89213838702E+00  0.88000000000E+00 0. -1.
        -11    1    4    4    0    0  0.48385063028E-01  0.60785510861E-01 -0.64664319774E-02  0.77961968410E-01  0.51100000000E-03 0.  1.
         11    1    4    4    0    0  0.34544857712E-01  0.23202418989E-01 -0.49796160021E-02  0.41913686760E-01  0.51100000000E-03 0. -1.
</event>
<event>
 8    1  0.1122465E+005  0.1043930E+01  0.7957747E-01            NaN
         13   -1    0    0    0    0  0.00000000000E+00  0.00000000000E+00  0.74505805969E-08  0.10566000000E+00  0.10566000000E+00 0. -1.
     999900   -1    0    0    0    0 -0.00000000000E+00 -0.00000000000E+00 -0.74505805969E-08  0.93827000000E+00  0.93827000000E+00 0.  1.
     999902    2    1    2    0    0  0.28261091183E-02 -0.10636198306E-01  0.21483217110E-01  0.10197919755E+01  0.10195062673E+01 0.  0.
     999903    2    3    3    0    0  0.43296403797E-01  0.10520598027E+00  0.60565493706E-01  0.13041878086E+00  0.19950000133E-01 0.  0.
         14    1    1    2    0    0 -0.28261091183E-02  0.10636198306E-01 -0.21483217110E-01  0.24138024454E-01  0.00000000000E+00 0.  1.
     999901    1    3    3    0    0 -0.40470294679E-01 -0.11584217858E+00 -0.39082276596E-01  0.88937319469E+00  0.88000000000E+00 0.  1.
        -11    1    4    4    0    0  0.30725215615E-01  0.90545726626E-01  0.45349687311E-01  0.10582732513E+00  0.51100000000E-03 0.  1.
         11    1    4    4    0    0  0.12571188182E-01  0.14660253647E-01  0.15215806395E-01  0.24591455722E-01  0.51100000000E-03 0. -1.
</event>
<event>
 8    1  0.1122465E+005  0.1043930E+01  0.7957747E-01            NaN
         13   -1    0    0    0    0  0.00000000000E+00  0.00000000000E+00  0.74505805969E-08  0.10566000000E+00  0.10566000000E+00 0. -1.
     999900   -1    0    0    0    0 -0.00000000000E+00 -0.00000000000E+00 -0.74505805969E-08  0.93827000000E+00  0.93827000000E+00 0. -1.
     999902    2    1    2    0    0  0.46083933538E-02  0.14873269253E-01 -0.17548416529E-01  0.10204694299E+01  0.10201997152E+01 0.  0.
     999903    2    3    3    0    0 -0.11133741475E-01  0.29382532624E-01 -0.12799423207E+00  0.13330731860E+00  0.20025591770E-01 0.  0.
         14    1    1    2    0    0 -0.46083933538E-02 -0.14873269253E-01  0.17548416529E-01  0.23460570118E-01  0.00000000000E+00 0. -1.
     999901    1    3    3    0    0  0.15742134829E-01 -0.14509263371E-01  0.11044581554E+00  0.88716211129E+00  0.88000000000E+00 0.  1.
        -11    1    4    4    0    0 -0.15569908754E-01  0.26018145053E-01 -0.11821461378E+00  0.12204229579E+00  0.51100000000E-03 0. -1.
         11    1    4    4    0    0  0.44361672791E-02  0.33643875706E-02 -0.97796182924E-02  0.11265022805E-01  0.51100000000E-03 0.  1.
</event>
<event>
 8    1  0.1122465E+005  0.1043930E+01  0.7957747E-01            NaN
         13   -1    0    0    0    0  0.00000000000E+00  0.00000000000E+00  0.74505805969E-08  0.10566000000E+00  0.10566000000E+00 0. -1.
     999900   -1    0    0    0    0 -0.00000000000E+00 -0.00000000000E+00 -0.74505805969E-08  0.93827000000E+00  0.93827000000E+00 0. -1.
     999902    2    1    2    0    0  0.19001527772E-02 -0.95578520895E-02 -0.21941439953E-01  0.10199218784E+01  0.10196392735E+01 0.  0.
     999903    2    3    3    0    0 -0.57665665602E-01 -0.10616002456E+00 -0.49243930755E-01  0.13221387883E+00  0.21453792994E-01 0.  0.
         14    1    1    2    0    0 -0.19001527772E-02  0.95578520895E-02  0.21941439953E-01  0.24008121633E-01  0.00000000000E+00 0.  1.
     999901    1    3    3    0    0  0.59565818379E-01  0.96602172471E-01  0.27302490802E-01  0.88770799954E+00  0.88000000000E+00 0. -1.
        -11    1    4    4    0    0 -0.27483647277E-01 -0.48626113902E-01 -0.34289726463E-01  0.65543087223E-01  0.51100000000E-03 0. -1.
         11    1    4    4    0    0 -0.30182018324E-01 -0.57533910659E-01 -0.14954204293E-01  0.66670791602E-01  0.51100000000E-03 0.  1.
</event>
<event>
 8    1  0.1122465E+005  0.1043930E+01  0.7957747E-01            NaN
         13   -1    0    0    0    0  0.00000000000E+00  0.00000000000E+00  0.74505805969E-08  0.10566000000E+00  0.10566000000E+00 0.  1.
     999900   -1    0    0    0    0 -0.00000000000E+00 -0.00000000000E+00 -0.74505805969E-08  0.93827000000E+00  0.93827000000E+00 0. -1.
     999902    2    1    2    0    0 -0.22343524450E-01 -0.18031000518E-02 -0.67735580269E-02  0.10205127981E+01  0.10202440913E+01 0.  0.
     999903    2    3    3    0    0  0.10429100878E+00  0.71550620689E-01  0.84641066934E-02  0.12829687148E+00  0.19807581813E-01 0.  0.
         14    1    1    2    0    0  0.22343524450E-01  0.18031000518E-02  0.67735580269E-02  0.23417201861E-01  0.00000000000E+00 0.  1.
     999901    1    3    3    0    0 -0.12663453323E+00 -0.73353720741E-01 -0.15237664720E-01  0.89221592666E+00  0.88000000000E+00 0.  1.
        -11    1    4    4    0    0  0.82163654401E-01  0.54837090781E-01 -0.15880921072E-02  0.98796537325E-01  0.51100000000E-03 0. -1.
         11    1    4    4    0    0  0.22127354377E-01  0.16713529908E-01  0.10052198801E-01  0.29500334158E-01  0.51100000000E-03 0.  1.
</event>
<event>
 8    1  0.1122465E+005  0.1043930E+01  0.7957747E-01            NaN
         13   -1    0    0    0    0  0.00000000000E+00  0.00000000000E+00  0.74505805969E-08  0.10566000000E+00  0.10566000000E+00 0. -1.
     999900   -1    0    0    0    0 -0.00000000000E+00 -0.00000000000E+00 -0.74505805969E-08  0.93827000000E+00  0.93827000000E+00 0. -1.
     999902    2    1    2    0    0 -0.45513149828E-02 -0.23310550546E-01 -0.76432445033E-03  0.10201669946E+01  0.10198901982E+01 0.  0.
     999903    2    3    3    0    0 -0.51969155409E-01  0.12773989113E-01  0.11710565748E+00  0.13031089484E+00  0.20080497758E-01 0.  0.
         14    1    1    2    0    0  0.45513149828E-02  0.23310550546E-01  0.76432445033E-03  0.23763005422E-01  0.00000000000E+00 0. -1.
     999901    1    3    3    0    0  0.47417840426E-01 -0.36084539659E-01 -0.11786998193E+00  0.88985609973E+00  0.88000000000E+00 0. -1.
        -11    1    4    4    0    0  0.75114479173E-03  0.75038595038E-03  0.12490162258E-01  0.12545619626E-01  0.51100000000E-03 0.  1.
         11    1    4    4    0    0 -0.52720300201E-01  0.12023603163E-01  0.10461549522E+00  0.11776527522E+00  0.51100000000E-03 0. -1.
</event>
<event>
 8    1  0.1122465E+005  0.1043930E+01  0.7957747E-01            NaN
         13   -1    0    0    0    0  0.00000000000E+00  0.00000000000E+00  0.74505805969E-08  0.10566000000E+00  0.10566000000E+00 0. -1.
     999900   -1    0    0    0    0 -0.00000000000E+00 -0.00000000000E+00 -0.74505805969E-08  0.93827000000E+00  0.93827000000E+00 0. -1.
     999902    2    1    2    0    0 -0.17729235249E-01  0.11547389506E-01 -0.10538985287E-01  0.10202923563E+01  0.10200185068E+01 0.  0.
     999903    2    3    3    0    0 -0.96091203801E-01  0.85733869035E-01 -0.28703672250E-01  0.13351493911E+00  0.20457820427E-01 0.  0.
         14    1    1    2    0    0  0.17729235249E-01 -0.11547389506E-01  0.10538985287E-01  0.23637643660E-01  0.00000000000E+00 0. -1.
     999901    1    3    3    0    0  0.78361968552E-01 -0.74186479530E-01  0.18164686962E-01  0.88677741723E+00  0.88000000000E+00 0. -1.
        -11    1    4    4    0    0 -0.72666376995E-01  0.69440564827E-01 -0.14225005526E-01  0.10151357689E+00  0.51100000000E-03 0.  1.
         11    1    4    4    0    0 -0.23424826807E-01  0.16293304208E-01 -0.14478666724E-01  0.32001362222E-01  0.51100000000E-03 0. -1.
</event>
<event>
 8    1  0.1122465E+005  0.1043930E+01  0.7957747E-01            NaN
         13   -1    0    0    0    0  0.00000000000E+00  0.00000000000E+00  0.74505805969E-08  0.10566000000E+00  0.10566000000E+00 0. -1.
     999900   -1    0    0    0    0 -0.00000000000E+00 -0.00000000000E+00 -0.74505805969E-08  0.93827000000E+00  0.93827000000E+00 0.  1.
     999902    2    1    2    0    0  0.23811799287E-01  0.49153448361E-02  0.26844982310E-03  0.10196146866E+01  0.10193247150E+01 0.  0.
     999903    2    3    3    0    0  0.32252424914E-01 -0.94051790746E-01 -0.81692737416E-01  0.13024222565E+00  0.20084216225E-01 0.  0.
         14    1    1    2    0    0 -0.23811799287E-01 -0.49153448361E-02 -0.26844982310E-03  0.24315313394E-01  0.00000000000E+00 0. -1.
     999901    1    3    3    0    0 -0.84406256271E-02  0.98967135582E-01  0.81961187239E-01  0.88937246095E+00  0.88000000000E+00 0.  1.
        -11    1    4    4    0    0  0.23861177769E-01 -0.56375720220E-01 -0.61088773940E-01  0.86485126220E-01  0.51100000000E-03 0. -1.
         11    1    4    4    0    0  0.83912471456E-02 -0.37676070525E-01 -0.20603963477E-01  0.43757099434E-01  0.51100000000E-03 0.  1.
</event>
<event>
 8    1  0.1122465E+005  0.1043930E+01  0.7957747E-01            NaN
         13   -1    0    0    0    0  0.00000000000E+00  0.00000000000E+00  0.74505805969E-08  0.10566000000E+00  0.10566000000E+00 0. -1.
     999900   -1    0    0    0    0 -0.00000000000E+00 -0.00000000000E+00 -0.74505805969E-08  0.93827000000E+00  0.93827000000E+00 0. -1.
     999902    2    1    2    0    0 -0.12652041888E-01 -0.10939458350E-01  0.17119966439E-01  0.10199959413E+01  0.10197150981E+01 0.  0.
     999903    2    3    3    0    0 -0.12787906094E+00  0.23674031930E-01 -0.44091533707E-02  0.13154849629E+00  0.19288655411E-01 0.  0.
         14    1    1    2    0    0  0.12652041888E-01  0.10939458350E-01 -0.17119966439E-01  0.23934058657E-01  0.00000000000E+00 0.  1.
     999901    1    3    3    0    0  0.11522701905E+00 -0.34613490280E-01  0.21529119810E-01  0.88844744506E+00  0.88000000000E+00 0.  1.
        -11    1    4    4    0    0 -0.61273821005E-01  0.55961806453E-02  0.57033031830E-02  0.61794717951E-01  0.51100000000E-03 0. -1.
         11    1    4    4    0    0 -0.66605239932E-01  0.18077851285E-01 -0.10112456554E-01  0.69753778335E-01  0.51100000000E-03 0.  1.
</event>
<event>
 8    1  0.1122465E+005  0.1043930E+01  0.7957747E-01            NaN
         13   -1    0    0    0    0  0.00000000000E+00  0.00000000000E+00  0.74505805969E-08  0.10566000000E+00  0.10566000000E+00 0. -1.
     999900   -1    0    0    0    0 -0.00000000000E+00 -0.00000000000E+00 -0.74505805969E-08  0.93827000000E+00  0.93827000000E+00 0.  1.
     999902    2    1    2    0    0 -0.13739921364E-01 -0.18520365078E-01 -0.15975744968E-02  0.10208141698E+01  0.10205524130E+01 0.  0.
     999903    2    3    3    0    0 -0.61499370751E-01 -0.63952937407E-01  0.96876510183E-01  0.13287147514E+00  0.19940408112E-01 0.  0.
         14    1    1    2    0    0  0.13739921364E-01  0.18520365078E-01  0.15975744968E-02  0.23115830204E-01  0.00000000000E+00 0. -1.
     999901    1    3    3    0    0  0.47759449387E-01  0.45432572329E-01 -0.98474084680E-01  0.88794269465E+00  0.88000000000E+00 0.  1.
        -11    1    4    4    0    0 -0.29027667569E-01 -0.39672008161E-01  0.42127307497E-01  0.64741369109E-01  0.51100000000E-03 0. -1.
         11    1    4    4    0    0 -0.32471703182E-01 -0.24280929246E-01  0.54749202686E-01  0.68130106035E-01  0.51100000000E-03 0.  1.
</event>
<event>
 7    1  0.1122465E+005  0.1043930E+01  0.7957747E-01            NaN
         13   -1    0    0    0    0  0.00000000000E+00  0.00000000000E+00  0.74505805969E-08  0.10566000000E+00  0.10566000000E+00 0.  1.
     999900   -1    0    0    0    0 -0.00000000000E+00 -0.00000000000E+00 -0.74505805969E-08  0.93827000000E+00  0.93827000000E+00 0. -1.
     999902    2    1    2    0    0 -0.98222945975E-02  0.10296849510E-01  0.18888150723E-01  0.10202812195E+01  0.10200071088E+01 0.  0.
         14    1    1    2    0    0  0.98222945975E-02 -0.10296849510E-01 -0.18888150723E-01  0.23648780492E-01  0.00000000000E+00 0. -1.
     999901    1    3    3    0    0 -0.40197115433E-01  0.12163309301E+00 -0.24759952918E-01  0.88961984728E+00  0.88000000000E+00 0.  1.
        -11    1    3    3    0    0  0.27163371394E-01 -0.58487122887E-01  0.41866296398E-02  0.64624927681E-01  0.51100000000E-03 0.  1.
         11    1    3    3    0    0  0.32114494416E-02 -0.52849120614E-01  0.39461474002E-01  0.66036444548E-01  0.51100000000E-03 0. -1.
</event>
<event>
 8    1  0.1122465E+005  0.1043930E+01  0.7957747E-01            NaN
         13   -1    0    0    0    0  0.00000000000E+00  0.00000000000E+00  0.74505805969E-08  0.10566000000E+00  0.10566000000E+00 0. -1.
     999900   -1    0    0    0    0 -0.00000000000E+00 -0.00000000000E+00 -0.74505805969E-08  0.93827000000E+00  0.93827000000E+00 0. -1.
     999902    2    1    2    0    0  0.14385459904E-01 -0.14956881038E-01  0.10689534818E-01  0.10205865662E+01  0.10203195692E+01 0.  0.
     999903    2    3    3    0    0  0.89885147230E-02 -0.93551592957E-01 -0.89611683622E-01  0.13139221726E+00  0.20024159749E-01 0.  0.
         14    1    1    2    0    0 -0.14385459904E-01  0.14956881038E-01 -0.10689534818E-01  0.23343433802E-01  0.00000000000E+00 0. -1.
     999901    1    3    3    0    0  0.53969451813E-02  0.78594711920E-01  0.10030121844E+00  0.88919434894E+00  0.88000000000E+00 0.  1.
        -11    1    4    4    0    0 -0.34528721895E-02 -0.54300724244E-01 -0.57577288734E-01  0.79220554648E-01  0.51100000000E-03 0. -1.
         11    1    4    4    0    0  0.12441386913E-01 -0.39250868714E-01 -0.32034394888E-01  0.52171662614E-01  0.51100000000E-03 0.  1.
</event>
<event>
 8    1  0.1122465E+005  0.1043930E+01  0.7957747E-01            NaN
         13   -1    0    0    0    0  0.00000000000E+00  0.00000000000E+00  0.74505805969E-08  0.10566000000E+00  0.10566000000E+00 0.  1.
     999900   -1    0    0    0    0 -0.00000000000E+00 -0.00000000000E+00 -0.74505805969E-08  0.93827000000E+00  0.93827000000E+00 0.  1.
     999902    2    1    2    0    0  0.34054493198E-03  0.10132682352E-01  0.20778901677E-01  0.10208096631E+01  0.10205478031E+01 0.  0.
     999903    2    3    3    0    0 -0.11797041294E+00  0.54442053318E-01  0.97461089746E-02  0.13171882095E+00  0.19336640193E-01 0.  0.
         14    1    1    2    0    0 -0.34054493198E-03 -0.10132682352E-01 -0.20778901677E-01  0.23120336879E-01  0.00000000000E+00 0. -1.
     999901    1    3    3    0    0  0.11831095788E+00 -0.44309370966E-01  0.11032792702E-01  0.88909084217E+00  0.88000000000E+00 0. -1.
        -11    1    4    4    0    0 -0.50472744113E-01  0.25404322887E-01 -0.51554064788E-02  0.56742548909E-01  0.51100000000E-03 0.  1.
         11    1    4    4    0    0 -0.67497668830E-01  0.29037730431E-01  0.14901515453E-01  0.74976272046E-01  0.51100000000E-03 0. -1.
</event>
<event>
 8    1  0.1122465E+005  0.1043930E+01  0.7957747E-01            NaN
         13   -1    0    0    0    0  0.00000000000E+00  0.00000000000E+00  0.74505805969E-08  0.10566000000E+00  0.10566000000E+00 0. -1.
     999900   -1    0    0    0    0 -0.00000000000E+00 -0.00000000000E+00 -0.74505805969E-08  0.93827000000E+00  0.93827000000E+00 0. -1.
     999902    2    1    2    0    0  0.10467854887E-02 -0.21547396414E-01  0.98360073596E-02  0.10202206539E+01  0.10199451208E+01 0.  0.
     999903    2    3    3    0    0 -0.11844037769E+00 -0.30664515325E-02  0.52253068948E-01  0.13094120703E+00  0.19434255628E-01 0.  0.
         14    1    1    2    0    0 -0.10467854887E-02  0.21547396414E-01 -0.98360073596E-02  0.23709346108E-01  0.00000000000E+00 0. -1.
     999901    1    3    3    0    0  0.11948716318E+00 -0.18480944882E-01 -0.42417061588E-01  0.88927944686E+00  0.88000000000E+00 0. -1.
        -11    1    4    4    0    0 -0.10384002866E+00 -0.91021909592E-02  0.46110915100E-01  0.11398280153E+00  0.51100000000E-03 0.  1.
         11    1    4    4    0    0 -0.14600349036E-01  0.60357394267E-02  0.61421538481E-02  0.16958405505E-01  0.51100000000E-03 0. -1.
</event>
<event>
 8    1  0.1252230E+005  0.1043930E+01  0.7957747E-01            NaN
         13   -1    0    0    0    0  0.00000000000E+00  0.00000000000E+00  0.74505805969E-08  0.10566000000E+00  0.10566000000E+00 0.  1.
     999900   -1    0    0    0    0 -0.00000000000E+00 -0.00000000000E+00 -0.74505805969E-08  0.93827000000E+00  0.93827000000E+00 0. -1.
     999902    2    1    2    0    0  0.21186110790E-01  0.11080813293E-01 -0.92475684695E-04  0.10200209167E+01  0.10197406661E+01 0.  0.
     999903    2    3    3    0    0 -0.67800871527E-01  0.10579908663E+00  0.26638091259E-01  0.13007442529E+00  0.20478361638E-01 0.  0.
         14    1    1    2    0    0 -0.21186110790E-01 -0.11080813293E-01  0.92475684695E-04  0.23909083324E-01  0.00000000000E+00 0. -1.
     999901    1    3    3    0    0  0.88986982317E-01 -0.94718273340E-01 -0.26730566944E-01  0.88994649139E+00  0.88000000000E+00 0.  1.
        -11    1    4    4    0    0 -0.41894280721E-01  0.46449713607E-01  0.13642141784E-01  0.64024025215E-01  0.51100000000E-03 0. -1.
         11    1    4    4    0    0 -0.25906590806E-01  0.59349373026E-01  0.12995949475E-01  0.66050400071E-01  0.51100000000E-03 0.  1.
</event>
<event>
 8    1  0.1122465E+005  0.1043930E+01  0.7957747E-01            NaN
         13   -1    0    0    0    0  0.00000000000E+00  0.00000000000E+00  0.74505805969E-08  0.10566000000E+00  0.10566000000E+00 0.  1.
     999900   -1    0    0    0    0 -0.00000000000E+00 -0.00000000000E+00 -0.74505805969E-08  0.93827000000E+00  0.93827000000E+00 0. -1.
     999902    2    1    2    0    0 -0.20720121769E-01  0.83711729206E-02  0.76764816773E-02  0.10203010273E+01  0.10200273809E+01 0.  0.
     999903    2    3    3    0    0  0.16365579161E-01  0.17826342176E-01  0.12755018829E+00  0.13134970408E+00  0.19952031767E-01 0.  0.
         14    1    1    2    0    0  0.20720121769E-01 -0.83711729206E-02 -0.76764816773E-02  0.23628972748E-01  0.00000000000E+00 0. -1.
     999901    1    3    3    0    0 -0.37085700931E-01 -0.94551692556E-02 -0.11987370661E+00  0.88895132318E+00  0.88000000000E+00 0. -1.
        -11    1    4    4    0    0  0.20671091173E-01  0.17313616528E-01  0.10773013585E+00  0.11105448492E+00  0.51100000000E-03 0.  1.
         11    1    4    4    0    0 -0.43055120121E-02  0.51272564835E-03  0.19820052434E-01  0.20295219161E-01  0.51100000000E-03 0. -1.
</event>
<event>
 8    1  0.1122465E+005  0.1043930E+01  0.7957747E-01            NaN
         13   -1    0    0    0    0  0.00000000000E+00  0.00000000000E+00  0.74505805969E-08  0.10566000000E+00  0.10566000000E+00 0.  1.
     999900   -1    0    0    0    0 -0.00000000000E+00 -0.00000000000E+00 -0.74505805969E-08  0.93827000000E+00  0.93827000000E+00 0.  1.
     999902    2    1    2    0    0  0.56195070130E-02  0.73583430958E-02 -0.21981202808E-01  0.10200784309E+01  0.10197995430E+01 0.  0.
     999903    2    3    3    0    0  0.11667556585E+00  0.42291080006E-01 -0.40884408020E-01  0.13220959177E+00  0.20152375113E-01 0.  0.
         14    1    1    2    0    0 -0.56195070130E-02 -0.73583430958E-02  0.21981202808E-01  0.23851569112E-01  0.00000000000E+00 0.  1.
     999901    1    3    3    0    0 -0.11105605883E+00 -0.34932736911E-01  0.18903205212E-01  0.88786883912E+00  0.88000000000E+00 0.  1.
        -11    1    4    4    0    0  0.98839048976E-01  0.43148200462E-01 -0.34314681823E-01  0.11317545368E+00  0.51100000000E-03 0.  1.
         11    1    4    4    0    0  0.17836516871E-01 -0.85712045514E-03 -0.65697261970E-02  0.19034138091E-01  0.51100000000E-03 0. -1.
</event>
<event>
 8    1  0.1122465E+005  0.1043930E+01  0.7957747E-01            NaN
         13   -1    0    0    0    0  0.00000000000E+00  0.00000000000E+00  0.74505805969E-08  0.10566000000E+00  0.10566000000E+00 0. -1.
     999900   -1    0    0    0    0 -0.00000000000E+00 -0.00000000000E+00 -0.74505805969E-08  0.93827000000E+00  0.93827000000E+00 0.  1.
     999902    2    1    2    0    0 -0.11604894834E-01  0.10589136187E-01 -0.15803752945E-01  0.10216463289E+01  0.10214032795E+01 0.  0.
     999903    2    3    3    0    0 -0.81455281601E-02 -0.11740228983E+00 -0.55293767568E-01  0.13150407423E+00  0.19653842391E-01 0.  0.
         14    1    1    2    0    0  0.11604894834E-01 -0.10589136187E-01  0.15803752945E-01  0.22283671071E-01  0.00000000000E+00 0. -1.
     999901    1    3    3    0    0 -0.34593666734E-02  0.12799142601E+00  0.39490014623E-01  0.89014225470E+00  0.88000000000E+00 0. -1.
        -11    1    4    4    0    0 -0.84209411519E-02 -0.17714496053E-01 -0.86917991992E-02  0.21459825596E-01  0.51100000000E-03 0.  1.
         11    1    4    4    0    0  0.27541299178E-03 -0.99687793774E-01 -0.46601968369E-01  0.11004424863E+00  0.51100000000E-03 0. -1.
</event>
<event>
 8    1  0.1122465E+005  0.1043930E+01  0.7957747E-01            NaN
         13   -1    0    0    0    0  0.00000000000E+00  0.00000000000E+00  0.74505805969E-08  0.10566000000E+00  0.10566000000E+00 0. -1.
     999900   -1    0    0    0    0 -0.00000000000E+00 -0.00000000000E+00 -0.74505805969E-08  0.93827000000E+00  0.93827000000E+00 0. -1.
     999902    2    1    2    0    0  0.12360775814E-02  0.22587986662E-01 -0.87945172637E-02  0.10196588533E+01  0.10193699468E+01 0.  0.
     999903    2    3    3    0    0 -0.79667883883E-01 -0.10263925276E-01  0.98710864142E-01  0.12882659851E+00  0.20003447219E-01 0.  0.
         14    1    1    2    0    0 -0.12360775814E-02 -0.22587986662E-01  0.87945172637E-02  0.24271146721E-01  0.00000000000E+00 0. -1.
     999901    1    3    3    0    0  0.80903961464E-01  0.32851911938E-01 -0.10750538141E+00  0.89083225477E+00  0.88000000000E+00 0. -1.
        -11    1    4    4    0    0 -0.67307051905E-01 -0.14933657013E-01  0.76559274110E-01  0.10302833067E+00  0.51100000000E-03 0. -1.
         11    1    4    4    0    0 -0.12360831978E-01  0.46697317371E-02  0.22151590033E-01  0.25798267842E-01  0.51100000000E-03 0.  1.
</event>
<event>
 8    1  0.1122465E+005  0.1043930E+01  0.7957747E-01            NaN
         13   -1    0    0    0    0  0.00000000000E+00  0.00000000000E+00  0.74505805969E-08  0.10566000000E+00  0.10566000000E+00 0.  1.
     999900   -1    0    0    0    0 -0.00000000000E+00 -0.00000000000E+00 -0.74505805969E-08  0.93827000000E+00  0.93827000000E+00 0. -1.
     999902    2    1    2    0    0  0.22022134346E-01 -0.82610957352E-02 -0.10657141244E-02  0.10203852373E+01  0.10201135607E+01 0.  0.
     999903    2    3    3    0    0 -0.34133741323E-01 -0.74849333538E-01  0.98947285586E-01  0.13044699456E+00  0.21408363711E-01 0.  0.
         14    1    1    2    0    0 -0.22022134346E-01  0.82610957352E-02  0.10657141244E-02  0.23544762697E-01  0.00000000000E+00 0.  1.
     999901    1    3    3    0    0  0.56155875669E-01  0.66588237803E-01 -0.10001299971E+00  0.88993824274E+00  0.88000000000E+00 0. -1.
        -11    1    4    4    0    0 -0.14902910849E-01 -0.11948617423E-01  0.25245222306E-01  0.31661468386E-01  0.51100000000E-03 0. -1.
         11    1    4    4    0    0 -0.19230830475E-01 -0.62900716115E-01  0.73702063280E-01  0.98785526173E-01  0.51100000000E-03 0.  1.
</event>
<event>
 8    1  0.1122465E+005  0.1043930E+01  0.7957747E-01            NaN
         13   -1    0    0    0    0  0.00000000000E+00  0.00000000000E+00  0.74505805969E-08  0.10566000000E+00  0.10566000000E+00 0.  1.
     999900   -1    0    0    0    0 -0.00000000000E+00 -0.00000000000E+00 -0.74505805969E-08  0.93827000000E+00  0.93827000000E+00 0. -1.
     999902    2    1    2    0    0 -0.98630063323E-02 -0.12379029063E-03 -0.20040031330E-01  0.10215939960E+01  0.10213497910E+01 0.  0.
     999903    2    3    3    0    0 -0.47024280281E-01 -0.11984255426E+00 -0.25397827578E-01  0.13269453674E+00  0.19729918602E-01 0.  0.
         14    1    1    2    0    0  0.98630063323E-02  0.12379029063E-03  0.20040031330E-01  0.22336003977E-01  0.00000000000E+00 0.  1.
     999901    1    3    3    0    0  0.37161273948E-01  0.11971876397E+00  0.53577962482E-02  0.88889945928E+00  0.88000000000E+00 0.  1.
        -11    1    4    4    0    0 -0.13695008712E-01 -0.17014008484E-01 -0.94758030695E-03  0.21867527930E-01  0.51100000000E-03 0. -1.
         11    1    4    4    0    0 -0.33329271569E-01 -0.10282854578E+00 -0.24450247271E-01  0.11082700881E+00  0.51100000000E-03 0.  1.
</event>
<event>
 8    1  0.1122465E+005  0.1043930E+01  0.7957747E-01            NaN
         13   -1    0    0    0    0  0.00000000000E+00  0.00000000000E+00  0.74505805969E-08  0.10566000000E+00  0.10566000000E+00 0.  1.
     999900   -1    0    0    0    0 -0.00000000000E+00 -0.00000000000E+00 -0.74505805969E-08  0.93827000000E+00  0.93827000000E+00 0.  1.
     999902    2    1    2    0    0  0.19197862373E-02  0.20302992028E-01 -0.11039679763E-01  0.10207400972E+01  0.10204766408E+01 0.  0.
     999903    2    3    3    0    0 -0.12056163908E+00  0.36645877078E-01  0.29086053814E-01  0.13120152917E+00  0.22131732989E-01 0.  0.
         14    1    1    2    0    0 -0.19197862373E-02 -0.20302992028E-01  0.11039679763E-01  0.23189902841E-01  0.00000000000E+00 0.  1.
     999901    1    3    3    0    0  0.12248142532E+00 -0.16342885050E-01 -0.40125733578E-01  0.88953856799E+00  0.88000000000E+00 0.  1.
        -11    1    4    4    0    0 -0.95926481669E-01  0.35261266426E-01  0.29968508357E-01  0.10650642896E+00  0.51100000000E-03 0.  1.
         11    1    4    4    0    0 -0.24635157415E-01  0.13846106516E-02 -0.88245454230E-03  0.24695100214E-01  0.51100000000E-03 0. -1.
</event>
<event>
 8    1  0.1122465E+005  0.1043930E+01  0.7957747E-01            NaN
         13   -1    0    0    0    0  0.00000000000E+00  0.00000000000E+00  0.74505805969E-08  0.10566000000E+00  0.10566000000E+00 0. -1.
     999900   -1    0    0    0    0 -0.00000000000E+00 -0.00000000000E+00 -0.74505805969E-08  0.93827000000E+00  0.93827000000E+00 0. -1.
     999902    2    1    2    0    0  0.10732879243E-01  0.64936336763E-03  0.21616417056E-01  0.10197869709E+01  0.10195011428E+01 0.  0.
     999903    2    3    3    0    0  0.12996472615E-02 -0.11671991153E+00 -0.51452781904E-01  0.12894262958E+00  0.18803885921E-01 0.  0.
         14    1    1    2    0    0 -0.10732879243E-01 -0.64936336763E-03 -0.21616417056E-01  0.24143029139E-01  0.00000000000E+00 0.  1.
     999901    1    3    3    0    0  0.94332319817E-02  0.11736927490E+00  0.73069198960E-01  0.89084434128E+00  0.88000000000E+00 0.  1.
        -11    1    4    4    0    0  0.25290004908E-02 -0.33073056914E-01 -0.59233607739E-02  0.33698223410E-01  0.51100000000E-03 0.  1.
         11    1    4    4    0    0 -0.12293532293E-02 -0.83646854620E-01 -0.45529421130E-01  0.95244406170E-01  0.51100000000E-03 0. -1.
</event>
<event>
 8    1  0.1122465E+005  0.1043930E+01  0.7957747E-01            NaN
         13   -1    0    0    0    0  0.00000000000E+00  0.00000000000E+00  0.74505805969E-08  0.10566000000E+00  0.10566000000E+00 0. -1.
     999900   -1    0    0    0    0 -0.00000000000E+00 -0.00000000000E+00 -0.74505805969E-08  0.93827000000E+00  0.93827000000E+00 0.  1.
     999902    2    1    2    0    0  0.10268482384E-01 -0.12885064291E-01 -0.17371368532E-01  0.10199877558E+01  0.10197067181E+01 0.  0.
     999903    2    3    3    0    0 -0.63631829798E-01  0.24776047739E-01  0.10593250867E+00  0.12752853454E+00  0.19467111321E-01 0.  0.
         14    1    1    2    0    0 -0.10268482384E-01  0.12885064291E-01  0.17371368532E-01  0.23942244191E-01  0.00000000000E+00 0. -1.
     999901    1    3    3    0    0  0.73900312181E-01 -0.37661112030E-01 -0.12330387720E+00  0.89245922127E+00  0.88000000000E+00 0.  1.
        -11    1    4    4    0    0 -0.42401939514E-01  0.21407833478E-01  0.57824445086E-01  0.74834132448E-01  0.51100000000E-03 0. -1.
         11    1    4    4    0    0 -0.21229890284E-01  0.33682142620E-02  0.48108063583E-01  0.52694402089E-01  0.51100000000E-03 0.  1.
</event>
<event>
 8    1  0.1122465E+005  0.1043930E+01  0.7957747E-01            NaN
         13   -1    0    0    0    0  0.00000000000E+00  0.00000000000E+00  0.74505805969E-08  0.10566000000E+00  0.10566000000E+00 0. -1.
     999900   -1    0    0    0    0 -0.00000000000E+00 -0.00000000000E+00 -0.74505805969E-08  0.93827000000E+00  0.93827000000E+00 0.  1.
     999902    2    1    2    0    0  0.19268361782E-01  0.11433459363E-01  0.93374063699E-02  0.10196569508E+01  0.10193679985E+01 0.  0.
     999903    2    3    3    0    0 -0.92557491200E-01 -0.14961185830E-01  0.86277475114E-01  0.12885872851E+00  0.19236500276E-01 0.  0.
         14    1    1    2    0    0 -0.19268361782E-01 -0.11433459363E-01 -0.93374063699E-02  0.24273049179E-01  0.00000000000E+00 0.  1.
     999901    1    3    3    0    0  0.11182585298E+00  0.26394645193E-01 -0.76940068745E-01  0.89079822231E+00  0.88000000000E+00 0.  1.
        -11    1    4    4    0    0 -0.84594988860E-01 -0.14184456653E-01  0.70002161031E-01  0.11071618952E+00  0.51100000000E-03 0. -1.
         11    1    4    4    0    0 -0.79625023405E-02 -0.77672917664E-03  0.16275314083E-01  0.18142538997E-01  0.51100000000E-03 0.  1.
</event>
<event>
 8    1  0.1122465E+005  0.1043930E+01  0.7957747E-01            NaN
         13   -1    0    0    0    0  0.00000000000E+00  0.00000000000E+00  0.74505805969E-08  0.10566000000E+00  0.10566000000E+00 0.  1.
     999900   -1    0    0    0    0 -0.00000000000E+00 -0.00000000000E+00 -0.74505805969E-08  0.93827000000E+00  0.93827000000E+00 0.  1.
     999902    2    1    2    0    0  0.92872390104E-02 -0.21840831741E-01 -0.32434860535E-03  0.10201943740E+01  0.10199182226E+01 0.  0.
     999903    2    3    3    0    0  0.71810287530E-01  0.10297553387E+00  0.21824082821E-01  0.12891506327E+00  0.19548017194E-01 0.  0.
         14    1    1    2    0    0 -0.92872390104E-02  0.21840831741E-01  0.32434860535E-03  0.23735626000E-01  0.00000000000E+00 0. -1.
     999901    1    3    3    0    0 -0.62523048519E-01 -0.12481636561E+00 -0.22148431427E-01  0.89127931073E+00  0.88000000000E+00 0.  1.
        -11    1    4    4    0    0  0.10632400228E-01  0.12625947159E-01  0.96401013703E-02  0.19122111591E-01  0.51100000000E-03 0. -1.
         11    1    4    4    0    0  0.61177887301E-01  0.90349586711E-01  0.12183981451E-01  0.10979295168E+00  0.51100000000E-03 0.  1.
</event>
<event>
 7    1  0.1122465E+005  0.1043930E+01  0.7957747E-01            NaN
         13   -1    0    0    0    0  0.00000000000E+00  0.00000000000E+00  0.74505805969E-08  0.10566000000E+00  0.10566000000E+00 0.  1.
     999900   -1    0    0    0    0 -0.00000000000E+00 -0.00000000000E+00 -0.74505805969E-08  0.93827000000E+00  0.93827000000E+00 0. -1.
     999903    2    1    2    0    0 -0.86984439760E-01 -0.16393033515E-01  0.26970429190E-01  0.93351260629E-01  0.12330024422E-01 0.  0.
         14    1    1    2    0    0 -0.24841089789E-01  0.11039522737E-01  0.53330447143E-01  0.59858895718E-01  0.00000000000E+00 0.  1.
     999901    1    1    2    0    0  0.11182552955E+00  0.53535107778E-02 -0.80300876333E-01  0.89071984365E+00  0.88000000000E+00 0. -1.
        -11    1    3    3    0    0 -0.48901130174E-01 -0.13061861178E-01  0.10363699839E-01  0.51668173425E-01  0.51100000000E-03 0.  1.
         11    1    3    3    0    0 -0.38083309586E-01 -0.33311723368E-02  0.16606729351E-01  0.41683087204E-01  0.51100000000E-03 0. -1.
</event>
<event>
 8    1  0.1122465E+005  0.1043930E+01  0.7957747E-01            NaN
         13   -1    0    0    0    0  0.00000000000E+00  0.00000000000E+00  0.74505805969E-08  0.10566000000E+00  0.10566000000E+00 0. -1.
     999900   -1    0    0    0    0 -0.00000000000E+00 -0.00000000000E+00 -0.74505805969E-08  0.93827000000E+00  0.93827000000E+00 0.  1.
     999902    2    1    2    0    0 -0.87896670305E-03  0.33500969516E-03  0.22205321975E-01  0.10217047635E+01  0.10214630011E+01 0.  0.
     999903    2    3    3    0    0  0.10475396533E+00 -0.54138005860E-01 -0.50226971311E-01  0.13076589754E+00  0.25935581378E-01 0.  0.
         14    1    1    2    0    0  0.87896670305E-03 -0.33500969516E-03 -0.22205321975E-01  0.22225236511E-01  0.00000000000E+00 0.  1.
     999901    1    3    3    0    0 -0.10563293203E+00  0.54473015555E-01  0.72432293286E-01  0.89093886595E+00  0.88000000000E+00 0. -1.
        -11    1    4    4    0    0  0.86354653180E-01 -0.35374064796E-01 -0.31504197060E-01  0.98494802601E-01  0.51100000000E-03 0.  1.
         11    1    4    4    0    0  0.18399312147E-01 -0.18763941064E-01 -0.18722774250E-01  0.32271094936E-01  0.51100000000E-03 0. -1.
</event>
<event>
 8    1  0.1122465E+005  0.1043930E+01  0.7957747E-01            NaN
         13   -1    0    0    0    0  0.00000000000E+00  0.00000000000E+00  0.74505805969E-08  0.10566000000E+00  0.10566000000E+00 0.  1.
     999900   -1    0    0    0    0 -0.00000000000E+00 -0.00000000000E+00 -0.74505805969E-08  0.93827000000E+00  0.93827000000E+00 0. -1.
     999902    2    1    2    0    0 -0.56442594424E-02 -0.39005952528E-02  0.22400442616E-01  0.10205024065E+01  0.10202334583E+01 0.  0.
     999903    2    3    3    0    0  0.92916696846E-01 -0.65837857484E-01  0.63467121568E-01  0.13188721493E+00  0.19950586752E-01 0.  0.
         14    1    1    2    0    0  0.56442594424E-02  0.39005952528E-02 -0.22400442616E-01  0.23427593503E-01  0.00000000000E+00 0. -1.
     999901    1    3    3    0    0 -0.98560956289E-01  0.61937262232E-01 -0.41066678952E-01  0.88861519156E+00  0.88000000000E+00 0.  1.
        -11    1    4    4    0    0  0.62944601306E-01 -0.39613624887E-01  0.50897121332E-01  0.90122362326E-01  0.51100000000E-03 0. -1.
         11    1    4    4    0    0  0.29972095540E-01 -0.26224232597E-01  0.12570000235E-01  0.41764852607E-01  0.51100000000E-03 0.  1.
</event>
<event>
 8    1  0.1122465E+005  0.1043930E+01  0.7957747E-01            NaN
         13   -1    0    0    0    0  0.00000000000E+00  0.00000000000E+00  0.74505805969E-08  0.10566000000E+00  0.10566000000E+00 0.  1.
     999900   -1    0    0    0    0 -0.00000000000E+00 -0.00000000000E+00 -0.74505805969E-08  0.93827000000E+00  0.93827000000E+00 0.  1.
     999902    2    1    2    0    0  0.57345600502E-02 -0.22833150861E-01  0.24719417288E-02  0.10202583196E+01  0.10199836716E+01 0.  0.
     999903    2    3    3    0    0  0.98138472379E-01 -0.51178968367E-02  0.84948864399E-01  0.13140807574E+00  0.19860014527E-01 0.  0.
         14    1    1    2    0    0 -0.57345600502E-02  0.22833150861E-01 -0.24719417288E-02  0.23671680403E-01  0.00000000000E+00 0. -1.
     999901    1    3    3    0    0 -0.92403912329E-01 -0.17715254024E-01 -0.82476922670E-01  0.88885024386E+00  0.88000000000E+00 0.  1.
        -11    1    4    4    0    0  0.72157694050E-01 -0.21385596012E-02  0.72948078642E-01  0.10263035392E+00  0.51100000000E-03 0.  1.
         11    1    4    4    0    0  0.25980778330E-01 -0.29793372355E-02  0.12000785756E-01  0.28777721813E-01  0.51100000000E-03 0. -1.
</event>
<event>
 8    1  0.1122465E+005  0.1043930E+01  0.7957747E-01            NaN
         13   -1    0    0    0    0  0.00000000000E+00  0.00000000000E+00  0.74505805969E-08  0.10566000000E+00  0.10566000000E+00 0. -1.
     999900   -1    0    0    0    0 -0.00000000000E+00 -0.00000000000E+00 -0.74505805969E-08  0.93827000000E+00  0.93827000000E+00 0.  1.
     999902    2    1    2    0    0  0.19839552298E-01 -0.39299265649E-02 -0.12430072833E-01  0.10201906051E+01  0.10199143650E+01 0.  0.
     999903    2    3    3    0    0 -0.23472088076E-01  0.73556391606E-01 -0.10403186076E+00  0.13099382418E+00  0.19371945047E-01 0.  0.
         14    1    1    2    0    0 -0.19839552298E-01  0.39299265649E-02  0.12430072833E-01  0.23739394870E-01  0.00000000000E+00 0. -1.
     999901    1    3    3    0    0  0.43311640373E-01 -0.77486318171E-01  0.91601787932E-01  0.88919678095E+00  0.88000000000E+00 0. -1.
        -11    1    4    4    0    0 -0.93076916231E-02  0.53406591951E-01 -0.79511476393E-01  0.96235301145E-01  0.51100000000E-03 0. -1.
         11    1    4    4    0    0 -0.14164396453E-01  0.20149799655E-01 -0.24520384372E-01  0.34758523037E-01  0.51100000000E-03 0.  1.
</event>
<event>
 8    1  0.1122465E+005  0.1043930E+01  0.7957747E-01            NaN
         13   -1    0    0    0    0  0.00000000000E+00  0.00000000000E+00  0.74505805969E-08  0.10566000000E+00  0.10566000000E+00 0. -1.
     999900   -1    0    0    0    0 -0.00000000000E+00 -0.00000000000E+00 -0.74505805969E-08  0.93827000000E+00  0.93827000000E+00 0. -1.
     999902    2    1    2    0    0  0.46753978665E-02  0.22829454759E-01  0.43316444483E-03  0.10206226840E+01  0.10203565220E+01 0.  0.
     999903    2    3    3    0    0 -0.18333479024E-01 -0.96892712501E-01 -0.80219045489E-01  0.12856462266E+00  0.19221153769E-01 0.  0.
         14    1    1    2    0    0 -0.46753978665E-02 -0.22829454759E-01 -0.43316444483E-03  0.23307316045E-01  0.00000000000E+00 0.  1.
     999901    1    3    3    0    0  0.23008876890E-01  0.11972216726E+00  0.80652209934E-01  0.89205806129E+00  0.88000000000E+00 0. -1.
        -11    1    4    4    0    0  0.33172469327E-02 -0.12432874898E-01 -0.67138581721E-02  0.14522999621E-01  0.51100000000E-03 0. -1.
         11    1    4    4    0    0 -0.21650725956E-01 -0.84459837604E-01 -0.73505187317E-01  0.11404162304E+00  0.51100000000E-03 0.  1.
</event>
<event>
 8    1  0.1122465E+005  0.1043930E+01  0.7957747E-01            NaN
         13   -1    0    0    0    0  0.00000000000E+00  0.00000000000E+00  0.74505805969E-08  0.10566000000E+00  0.10566000000E+00 0. -1.
     999900   -1    0    0    0    0 -0.00000000000E+00 -0.00000000000E+00 -0.74505805969E-08  0.93827000000E+00  0.93827000000E+00 0.  1.
     999902    2    1    2    0    0  0.14318733333E-01  0.13999074184E-01 -0.94659639487E-02  0.10217804024E+01  0.10215403007E+01 0.  0.
     999903    2    3    3    0    0  0.43437478435E-01 -0.88137234111E-01  0.83570513048E-01  0.13052538114E+00  0.19946375650E-01 0.  0.
         14    1    1    2    0    0 -0.14318733333E-01 -0.13999074184E-01  0.94659639487E-02  0.22149597643E-01  0.00000000000E+00 0.  1.
     999901    1    3    3    0    0 -0.29118745102E-01  0.10213630830E+00 -0.93036476997E-01  0.89125502121E+00  0.88000000000E+00 0.  1.
        -11    1    4    4    0    0  0.30751021504E-01 -0.39877259021E-01  0.42399730275E-01  0.65831750387E-01  0.51100000000E-03 0. -1.
         11    1    4    4    0    0  0.12686456931E-01 -0.48259975090E-01  0.41170782773E-01  0.64693630755E-01  0.51100000000E-03 0.  1.
</event>
<event>
 8    1  0.1122465E+005  0.1043930E+01  0.7957747E-01            NaN
         13   -1    0    0    0    0  0.00000000000E+00  0.00000000000E+00  0.74505805969E-08  0.10566000000E+00  0.10566000000E+00 0.  1.
     999900   -1    0    0    0    0 -0.00000000000E+00 -0.00000000000E+00 -0.74505805969E-08  0.93827000000E+00  0.93827000000E+00 0. -1.
     999902    2    1    2    0    0  0.10875311254E-01  0.96353485674E-03 -0.24198203637E-01  0.10173827995E+01  0.10170363843E+01 0.  0.
     999903    2    3    3    0    0  0.10251050273E+00  0.71102385270E-01  0.24887370386E-01  0.12849255869E+00  0.18083253940E-01 0.  0.
         14    1    1    2    0    0 -0.10875311254E-01 -0.96353485674E-03  0.24198203637E-01  0.26547200484E-01  0.00000000000E+00 0.  1.
     999901    1    3    3    0    0 -0.91635191478E-01 -0.70138850413E-01 -0.49085574024E-01  0.88889024082E+00  0.88000000000E+00 0.  1.
        -11    1    4    4    0    0  0.36356559660E-01  0.35592544939E-01  0.76147322769E-02  0.51447778904E-01  0.51100000000E-03 0.  1.
         11    1    4    4    0    0  0.66153943071E-01  0.35509840331E-01  0.17272638110E-01  0.77044779787E-01  0.51100000000E-03 0. -1.
</event>
<event>
 8    1  0.1122465E+005  0.1043930E+01  0.7957747E-01            NaN
         13   -1    0    0    0    0  0.00000000000E+00  0.00000000000E+00  0.74505805969E-08  0.10566000000E+00  0.10566000000E+00 0.  1.
     999900   -1    0    0    0    0 -0.00000000000E+00 -0.00000000000E+00 -0.74505805969E-08  0.93827000000E+00  0.93827000000E+00 0. -1.
     999902    2    1    2    0    0  0.21123953829E-01 -0.42633993743E-02  0.12165773659E-01  0.10191832013E+01  0.10188827183E+01 0.  0.
     999903    2    3    3    0    0 -0.61912862042E-01 -0.10494131755E+00  0.38202189494E-01  0.12917811646E+00  0.19537038547E-01 0.  0.
         14    1    1    2    0    0 -0.21123953829E-01  0.42633993743E-02 -0.12165773659E-01  0.24746798749E-01  0.00000000000E+00 0.  1.
     999901    1    3    3    0    0  0.83036815871E-01  0.10067791818E+00 -0.26036415836E-01  0.89000508479E+00  0.88000000000E+00 0. -1.
        -11    1    4    4    0    0 -0.34838505333E-01 -0.67500026066E-01  0.14830745482E-01  0.77396299041E-01  0.51100000000E-03 0.  1.
         11    1    4    4    0    0 -0.27074356709E-01 -0.37441291486E-01  0.23371444012E-01  0.51781817422E-01  0.51100000000E-03 0. -1.
</event>
<event>
 8    1  0.1122465E+005  0.1043930E+01  0.7957747E-01            NaN
         13   -1    0    0    0    0  0.00000000000E+00  0.00000000000E+00  0.74505805969E-08  0.10566000000E+00  0.10566000000E+00 0.  1.
     999900   -1    0    0    0    0 -0.00000000000E+00 -0.00000000000E+00 -0.74505805969E-08  0.93827000000E+00  0.93827000000E+00 0. -1.
     999902    2    1    2    0    0 -0.57628839760E-02  0.11309228406E-02  0.23012555118E-01  0.10201798945E+01  0.10199034021E+01 0.  0.
     999903    2    3    3    0    0  0.12036358295E+00  0.42617994090E-01 -0.22271381662E-02  0.12986191487E+00  0.23568437934E-01 0.  0.
         14    1    1    2    0    0  0.57628839760E-02 -0.11309228406E-02 -0.23012555118E-01  0.23750105500E-01  0.00000000000E+00 0. -1.
     999901    1    3    3    0    0 -0.12612646693E+00 -0.41487071249E-01  0.25239693284E-01  0.89031797963E+00  0.88000000000E+00 0. -1.
        -11    1    4    4    0    0  0.49045851941E-01  0.91818876191E-02  0.76252649732E-02  0.50479782485E-01  0.51100000000E-03 0.  1.
         11    1    4    4    0    0  0.71317731014E-01  0.33436106470E-01 -0.98524031394E-02  0.79382132382E-01  0.51100000000E-03 0. -1.
</event>
<event>
 8    1  0.1122465E+005  0.1043930E+01  0.7957747E-01            NaN
         13   -1    0    0    0    0  0.00000000000E+00  0.00000000000E+00  0.74505805969E-08  0.10566000000E+00  0.10566000000E+00 0.  1.
     999900   -1    0    0    0    0 -0.00000000000E+00 -0.00000000000E+00 -0.74505805969E-08  0.93827000000E+00  0.93827000000E+00 0. -1.
     999902    2    1    2    0    0  0.21482577983E-01  0.12785847086E-01  0.12729217853E-02  0.10188980330E+01  0.10185904978E+01 0.  0.
     999903    2    3    3    0    0  0.68797727506E-03 -0.12208653206E+00 -0.33631162909E-01  0.12769588465E+00  0.16419172201E-01 0.  0.
         14    1    1    2    0    0 -0.21482577983E-01 -0.12785847086E-01 -0.12729217853E-02  0.25031967009E-01  0.00000000000E+00 0. -1.
     999901    1    3    3    0    0  0.20794600708E-01  0.13487237914E+00  0.34904084695E-01  0.89120214834E+00  0.88000000000E+00 0. -1.
        -11    1    4    4    0    0 -0.66279612608E-02 -0.53262749713E-01 -0.19104146529E-01  0.56974379444E-01  0.51100000000E-03 0. -1.
         11    1    4    4    0    0  0.73159385359E-02 -0.68823782345E-01 -0.14527016380E-01  0.70721505208E-01  0.51100000000E-03 0.  1.
</event>
<event>
 8    1  0.1122465E+005  0.1043930E+01  0.7957747E-01            NaN
         13   -1    0    0    0    0  0.00000000000E+00  0.00000000000E+00  0.74505805969E-08  0.10566000000E+00  0.10566000000E+00 0.  1.
     999900   -1    0    0    0    0 -0.00000000000E+00 -0.00000000000E+00 -0.74505805969E-08  0.93827000000E+00  0.93827000000E+00 0. -1.
     999902    2    1    2    0    0 -0.14888770448E-01 -0.13272596452E-01 -0.11949424924E-01  0.10206786332E+01  0.10204137623E+01 0.  0.
     999903    2    3    3    0    0  0.38044778847E-01  0.11893819899E+00  0.23019210936E-01  0.12854385607E+00  0.19998462040E-01 0.  0.
         14    1    1    2    0    0  0.14888770448E-01  0.13272596452E-01  0.11949424924E-01  0.23251366799E-01  0.00000000000E+00 0.  1.
     999901    1    3    3    0    0 -0.52933549294E-01 -0.13221079544E+00 -0.34968635861E-01  0.89213477713E+00  0.88000000000E+00 0. -1.
        -11    1    4    4    0    0  0.39518074809E-01  0.10400753157E+00  0.22545693184E-01  0.11352450953E+00  0.51100000000E-03 0.  1.
         11    1    4    4    0    0 -0.14732959625E-02  0.14930667419E-01  0.47351775200E-03  0.15019346544E-01  0.51100000000E-03 0. -1.
</event>
<event>
 8    1  0.1122465E+005  0.1043930E+01  0.7957747E-01            NaN
         13   -1    0    0    0    0  0.00000000000E+00  0.00000000000E+00  0.74505805969E-08  0.10566000000E+00  0.10566000000E+00 0. -1.
     999900   -1    0    0    0    0 -0.00000000000E+00 -0.00000000000E+00 -0.74505805969E-08  0.93827000000E+00  0.93827000000E+00 0.  1.
     999902    2    1    2    0    0  0.10038773349E-01  0.87017000899E-03 -0.21507529822E-01  0.10201790420E+01  0.10199025295E+01 0.  0.
     999903    2    3    3    0    0 -0.96076934853E-01  0.16604074815E-01  0.80336638436E-01  0.12783363025E+00  0.19518935333E-01 0.  0.
         14    1    1    2    0    0 -0.10038773349E-01 -0.87017000899E-03  0.21507529822E-01  0.23750957986E-01  0.00000000000E+00 0. -1.
     999901    1    3    3    0    0  0.10611570820E+00 -0.15733904806E-01 -0.10184416826E+00  0.89234541176E+00  0.88000000000E+00 0.  1.
        -11    1    4    4    0    0 -0.23162605756E-01 -0.22432631902E-02  0.12234626139E-01  0.26296116308E-01  0.51100000000E-03 0.  1.
         11    1    4    4    0    0 -0.72914329098E-01  0.18847338006E-01  0.68102012297E-01  0.10153751394E+00  0.51100000000E-03 0. -1.
</event>
<event>
 8    1  0.1122465E+005  0.1043930E+01  0.7957747E-01            NaN
         13   -1    0    0    0    0  0.00000000000E+00  0.00000000000E+00  0.74505805969E-08  0.10566000000E+00  0.10566000000E+00 0. -1.
     999900   -1    0    0    0    0 -0.00000000000E+00 -0.00000000000E+00 -0.74505805969E-08  0.93827000000E+00  0.93827000000E+00 0. -1.
     999902    2    1    2    0    0  0.15714494931E-01  0.17981629846E-04  0.15125068208E-01  0.10221191458E+01  0.10218864099E+01 0.  0.
     999903    2    3    3    0    0 -0.88552928161E-01 -0.18499101851E-01  0.95665597753E-01  0.13211838464E+00  0.10932662584E-01 0.  0.
         14    1    1    2    0    0 -0.15714494931E-01 -0.17981629846E-04 -0.15125068208E-01  0.21810854237E-01  0.00000000000E+00 0.  1.
     999901    1    3    3    0    0  0.10426742309E+00  0.18517083481E-01 -0.80540529546E-01  0.89000076112E+00  0.88000000000E+00 0.  1.
        -11    1    4    4    0    0 -0.64334576695E-01 -0.11009293501E-01  0.74858370770E-01  0.99318573778E-01  0.51100000000E-03 0. -1.
         11    1    4    4    0    0 -0.24218351467E-01 -0.74898083503E-02  0.20807226983E-01  0.32799810863E-01  0.51100000000E-03 0.  1.
</event>
<event>
 8    1  0.1122465E+005  0.1043930E+01  0.7957747E-01            NaN
         13   -1    0    0    0    0  0.00000000000E+00  0.00000000000E+00  0.74505805969E-08  0.10566000000E+00  0.10566000000E+00 0.  1.
     999900   -1    0    0    0    0 -0.00000000000E+00 -0.00000000000E+00 -0.74505805969E-08  0.93827000000E+00  0.93827000000E+00 0. -1.
     999902    2    1    2    0    0 -0.53434177022E-02  0.22779109795E-01 -0.34561201406E-02  0.10202786846E+01  0.10200045144E+01 0.  0.
     999903    2    3    3    0    0  0.10946078373E+00 -0.39531936258E-02  0.67109166357E-01  0.12961933308E+00  0.17327446016E-01 0.  0.
         14    1    1    2    0    0  0.53434177022E-02 -0.22779109795E-01  0.34561201406E-02  0.23651315444E-01  0.00000000000E+00 0.  1.
     999901    1    3    3    0    0 -0.11480420143E+00  0.26732303421E-01 -0.70565286498E-01  0.89065935148E+00  0.88000000000E+00 0. -1.
        -11    1    4    4    0    0  0.39574403791E-01  0.15061442145E-02  0.33517681861E-01  0.51885431714E-01  0.51100000000E-03 0.  1.
         11    1    4    4    0    0  0.69886379934E-01 -0.54593378403E-02  0.33591484496E-01  0.77733901366E-01  0.51100000000E-03 0. -1.
</event>
<event>
 8    1  0.1122465E+005  0.1043930E+01  0.7957747E-01            NaN
         13   -1    0    0    0    0  0.00000000000E+00  0.00000000000E+00  0.74505805969E-08  0.10566000000E+00  0.10566000000E+00 0. -1.
     999900   -1    0    0    0    0 -0.00000000000E+00 -0.00000000000E+00 -0.74505805969E-08  0.93827000000E+00  0.93827000000E+00 0. -1.
     999902    2    1    2    0    0  0.42024619812E-02  0.12312856904E-01 -0.20964908893E-01  0.10192562379E+01  0.10189575477E+01 0.  0.
     999903    2    3    3    0    0 -0.12405630641E+00 -0.28080931015E-01 -0.34422476633E-02  0.12886923583E+00  0.20418742114E-01 0.  0.
         14    1    1    2    0    0 -0.42024619812E-02 -0.12312856904E-01  0.20964908893E-01  0.24673762111E-01  0.00000000000E+00 0. -1.
     999901    1    3    3    0    0  0.12825876839E+00  0.40393787919E-01 -0.17522661230E-01  0.89038700205E+00  0.88000000000E+00 0. -1.
        -11    1    4    4    0    0 -0.45782728354E-01 -0.64808743591E-02  0.77954883028E-02  0.46894463500E-01  0.51100000000E-03 0. -1.
         11    1    4    4    0    0 -0.78273578052E-01 -0.21600056656E-01 -0.11237735966E-01  0.81974772335E-01  0.51100000000E-03 0.  1.
</event>
<event>
 8    1  0.1122465E+005  0.1043930E+01  0.7957747E-01            NaN
         13   -1    0    0    0    0  0.00000000000E+00  0.00000000000E+00  0.74505805969E-08  0.10566000000E+00  0.10566000000E+00 0.  1.
     999900   -1    0    0    0    0 -0.00000000000E+00 -0.00000000000E+00 -0.74505805969E-08  0.93827000000E+00  0.93827000000E+00 0.  1.
     999902    2    1    2    0    0 -0.15642483934E-01  0.17595726596E-01 -0.90254139213E-04  0.10203863163E+01  0.10201146648E+01 0.  0.
     999903    2    3    3    0    0  0.91462894406E-01 -0.71740452454E-01  0.49732909935E-01  0.12801035142E+00  0.20028334129E-01 0.  0.
         14    1    1    2    0    0  0.15642483934E-01 -0.17595726596E-01  0.90254139213E-04  0.23543683737E-01  0.00000000000E+00 0. -1.
     999901    1    3    3    0    0 -0.10710537834E+00  0.89336179050E-01 -0.49823164074E-01  0.89237596485E+00  0.88000000000E+00 0.  1.
        -11    1    4    4    0    0  0.40139638104E-01 -0.43889243674E-01  0.27458029921E-01  0.65510768470E-01  0.51100000000E-03 0. -1.
         11    1    4    4    0    0  0.51323256302E-01 -0.27851208780E-01  0.22274880014E-01  0.62499582947E-01  0.51100000000E-03 0.  1.
</event>
<event>
 8    1  0.1122465E+005  0.1043930E+01  0.7957747E-01            NaN
         13   -1    0    0    0    0  0.00000000000E+00  0.00000000000E+00  0.74505805969E-08  0.10566000000E+00  0.10566000000E+00 0. -1.
     999900   -1    0    0    0    0 -0.00000000000E+00 -0.00000000000E+00 -0.74505805969E-08  0.93827000000E+00  0.93827000000E+00 0.  1.
     999902    2    1    2    0    0  0.16525655130E-01 -0.38101906520E-02 -0.17252473741E-01  0.10197377971E+01  0.10194507895E+01 0.  0.
     999903    2    3    3    0    0 -0.91918888061E-01 -0.22491300810E-01  0.82771056683E-01  0.12726151762E+00  0.19735892367E-01 0.  0.
         14    1    1    2    0    0 -0.16525655130E-01  0.38101906520E-02  0.17252473741E-01  0.24192202886E-01  0.00000000000E+00 0.  1.
     999901    1    3    3    0    0  0.10844454319E+00  0.18681110158E-01 -0.10002353042E+00  0.89247627950E+00  0.88000000000E+00 0. -1.
        -11    1    4    4    0    0 -0.67031904118E-01 -0.14945065536E-01  0.70765455890E-01  0.98613599579E-01  0.51100000000E-03 0. -1.
         11    1    4    4    0    0 -0.24886983942E-01 -0.75462352745E-02  0.12005600793E-01  0.28647918039E-01  0.51100000000E-03 0.  1.
</event>
<event>
 8    1  0.1122465E+005  0.1043930E+01  0.7957747E-01            NaN
         13   -1    0    0    0    0  0.00000000000E+00  0.00000000000E+00  0.74505805969E-08  0.10566000000E+00  0.10566000000E+00 0. -1.
     999900   -1    0    0    0    0 -0.00000000000E+00 -0.00000000000E+00 -0.74505805969E-08  0.93827000000E+00  0.93827000000E+00 0. -1.
     999902    2    1    2    0    0  0.44897799676E-02  0.25025565694E-01 -0.23183277166E-02  0.10183993967E+01  0.10180793287E+01 0.  0.
     999903    2    3    3    0    0  0.92438209995E-03 -0.43971490213E-01  0.11809560400E+00  0.12751622772E+00  0.19479995257E-01 0.  0.
         14    1    1    2    0    0 -0.44897799676E-02 -0.25025565694E-01  0.23183277166E-02  0.25530603320E-01  0.00000000000E+00 0. -1.
     999901    1    3    3    0    0  0.35653978677E-02  0.68997055907E-01 -0.12041393171E+00  0.89088316896E+00  0.88000000000E+00 0.  1.
        -11    1    4    4    0    0  0.56041484831E-02 -0.25892396403E-01  0.89655259002E-01  0.93488765418E-01  0.51100000000E-03 0.  1.
         11    1    4    4    0    0 -0.46797663832E-02 -0.18079093810E-01  0.28440344993E-01  0.34027462302E-01  0.51100000000E-03 0. -1.
</event>
<event>
 8    1  0.1122465E+005  0.1043930E+01  0.7957747E-01            NaN
         13   -1    0    0    0    0  0.00000000000E+00  0.00000000000E+00  0.74505805969E-08  0.10566000000E+00  0.10566000000E+00 0. -1.
     999900   -1    0    0    0    0 -0.00000000000E+00 -0.00000000000E+00 -0.74505805969E-08  0.93827000000E+00  0.93827000000E+00 0. -1.
     999902    2    1    2    0    0 -0.17324864130E-01  0.68378438254E-02 -0.14677422343E-01  0.10202164226E+01  0.10199407901E+01 0.  0.
     999903    2    3    3    0    0 -0.13037809676E+00  0.12723378572E-01  0.71859063381E-02  0.13269533664E+00  0.19901825039E-01 0.  0.
         14    1    1    2    0    0  0.17324864130E-01 -0.68378438254E-02  0.14677422343E-01  0.23713577375E-01  0.00000000000E+00 0. -1.
     999901    1    3    3    0    0  0.11305323263E+00 -0.58855347469E-02 -0.21863328681E-01  0.88752108598E+00  0.88000000000E+00 0.  1.
        -11    1    4    4    0    0 -0.93886639815E-01  0.24647928798E-02 -0.93859899470E-03  0.93925068160E-01  0.51100000000E-03 0. -1.
         11    1    4    4    0    0 -0.36491456942E-01  0.10258585693E-01  0.81245053328E-02  0.38770268480E-01  0.51100000000E-03 0.  1.
</event>
<event>
 8    1  0.1122465E+005  0.1043930E+01  0.7957747E-01            NaN
         13   -1    0    0    0    0  0.00000000000E+00  0.00000000000E+00  0.74505805969E-08  0.10566000000E+00  0.10566000000E+00 0.  1.
     999900   -1    0    0    0    0 -0.00000000000E+00 -0.00000000000E+00 -0.74505805969E-08  0.93827000000E+00  0.93827000000E+00 0. -1.
     999902    2    1    2    0    0  0.19753673315E-01  0.12885926721E-01  0.19444920436E-02  0.10202649252E+01  0.10199904322E+01 0.  0.
     999903    2    3    3    0    0  0.83794064298E-02 -0.48885268123E-01  0.11884205631E+00  0.13031543505E+00  0.19967332605E-01 0.  0.
         14    1    1    2    0    0 -0.19753673315E-01 -0.12885926721E-01 -0.19444920436E-02  0.23665074819E-01  0.00000000000E+00 0. -1.
     999901    1    3    3    0    0  0.11374266885E-01  0.61771194844E-01 -0.11689756427E+00  0.88994949013E+00  0.88000000000E+00 0. -1.
        -11    1    4    4    0    0 -0.36127269427E-02 -0.34700952165E-02  0.47114926054E-02  0.68958422505E-02  0.51100000000E-03 0. -1.
         11    1    4    4    0    0  0.11992133372E-01 -0.45415172907E-01  0.11413056371E+00  0.12341959280E+00  0.51100000000E-03 0.  1.
</event>
<event>
 8    1  0.1122465E+005  0.1043930E+01  0.7957747E-01            NaN
         13   -1    0    0    0    0  0.00000000000E+00  0.00000000000E+00  0.74505805969E-08  0.10566000000E+00  0.10566000000E+00 0. -1.
     999900   -1    0    0    0    0 -0.00000000000E+00 -0.00000000000E+00 -0.74505805969E-08  0.93827000000E+00  0.93827000000E+00 0. -1.
     999902    2    1    2    0    0  0.87887518466E-02 -0.10511808381E-01 -0.18719417967E-01  0.10207317914E+01  0.10204681441E+01 0.  0.
     999903    2    3    3    0    0  0.11443027618E+00  0.25099145627E-01 -0.59265748670E-01  0.13277217707E+00  0.19793100278E-01 0.  0.
         14    1    1    2    0    0 -0.87887518466E-02  0.10511808381E-01  0.18719417967E-01  0.23198208626E-01  0.00000000000E+00 0. -1.
     999901    1    3    3    0    0 -0.10564152434E+00 -0.35610954009E-01  0.40546330703E-01  0.88795961431E+00  0.88000000000E+00 0.  1.
        -11    1    4    4    0    0  0.72638072981E-01  0.10774202836E-01 -0.27755491372E-01  0.78504786577E-01  0.51100000000E-03 0. -1.
         11    1    4    4    0    0  0.41792203202E-01  0.14324942791E-01 -0.31510257297E-01  0.54267390488E-01  0.51100000000E-03 0.  1.
</event>
<event>
 8    1  0.1122465E+005  0.1043930E+01  0.7957747E-01            NaN
         13   -1    0    0    0    0  0.00000000000E+00  0.00000000000E+00  0.74505805969E-08  0.10566000000E+00  0.10566000000E+00 0.  1.
     999900   -1    0    0    0    0 -0.00000000000E+00 -0.00000000000E+00 -0.74505805969E-08  0.93827000000E+00  0.93827000000E+00 0.  1.
     999902    2    1    2    0    0 -0.18974496754E-01 -0.94070382784E-02  0.10718140857E-01  0.10201939001E+01  0.10199177375E+01 0.  0.
     999903    2    3    3    0    0 -0.82885945281E-01  0.47349362134E-02 -0.99320256882E-01  0.13092840672E+00  0.19627396997E-01 0.  0.
         14    1    1    2    0    0  0.18974496754E-01  0.94070382784E-02 -0.10718140857E-01  0.23736099925E-01  0.00000000000E+00 0. -1.
     999901    1    3    3    0    0  0.63911448527E-01 -0.14141974492E-01  0.11003839774E+00  0.88926549336E+00  0.88000000000E+00 0. -1.
        -11    1    4    4    0    0 -0.70266234092E-01 -0.24700013451E-02 -0.87074817145E-01  0.11191840538E+00  0.51100000000E-03 0.  1.
         11    1    4    4    0    0 -0.12619711188E-01  0.72049375585E-02 -0.12245439737E-01  0.19010001343E-01  0.51100000000E-03 0. -1.
</event>
<event>
 8    1  0.1122465E+005  0.1043930E+01  0.7957747E-01            NaN
         13   -1    0    0    0    0  0.00000000000E+00  0.00000000000E+00  0.74505805969E-08  0.10566000000E+00  0.10566000000E+00 0. -1.
     999900   -1    0    0    0    0 -0.00000000000E+00 -0.00000000000E+00 -0.74505805969E-08  0.93827000000E+00  0.93827000000E+00 0.  1.
     999902    2    1    2    0    0 -0.98605693208E-02  0.17698098252E-01 -0.11933423609E-01  0.10204170226E+01  0.10201460875E+01 0.  0.
     999903    2    3    3    0    0  0.96802271564E-01  0.74255674526E-01  0.42106941017E-01  0.13053159057E+00  0.19517086756E-01 0.  0.
         14    1    1    2    0    0  0.98605693208E-02 -0.17698098252E-01  0.11933423609E-01  0.23512977441E-01  0.00000000000E+00 0. -1.
     999901    1    3    3    0    0 -0.10666284088E+00 -0.56557576274E-01 -0.54040364626E-01  0.88988543199E+00  0.88000000000E+00 0.  1.
        -11    1    4    4    0    0  0.18576928189E-01  0.24577642207E-01  0.85798440432E-02  0.31984959000E-01  0.51100000000E-03 0.  1.
         11    1    4    4    0    0  0.78225343375E-01  0.49678032319E-01  0.33527096973E-01  0.98546631569E-01  0.51100000000E-03 0. -1.
</event>
<event>
 8    1  0.1122465E+005  0.1043930E+01  0.7957747E-01            NaN
         13   -1    0    0    0    0  0.00000000000E+00  0.00000000000E+00  0.74505805969E-08  0.10566000000E+00  0.10566000000E+00 0. -1.
     999900   -1    0    0    0    0 -0.00000000000E+00 -0.00000000000E+00 -0.74505805969E-08  0.93827000000E+00  0.93827000000E+00 0. -1.
     999902    2    1    2    0    0  0.65623374798E-02  0.75432714912E-02 -0.26578673189E-01  0.10155329740E+01  0.10151358678E+01 0.  0.
     999903    2    3    3    0    0  0.21396087250E-01 -0.11291911639E+00 -0.49923535952E-01  0.12689569723E+00  0.20040936498E-01 0.  0.
         14    1    1    2    0    0 -0.65623374798E-02 -0.75432714912E-02  0.26578673189E-01  0.28397026015E-01  0.00000000000E+00 0. -1.
     999901    1    3    3    0    0 -0.14833749770E-01  0.12046238789E+00  0.23344862763E-01  0.88863727676E+00  0.88000000000E+00 0.  1.
        -11    1    4    4    0    0  0.21562017438E-01 -0.79490477781E-01 -0.42355026384E-01  0.92616769728E-01  0.51100000000E-03 0. -1.
         11    1    4    4    0    0 -0.16593018837E-03 -0.33428638613E-01 -0.75685095687E-02  0.34278927498E-01  0.51100000000E-03 0.  1.
</event>
<event>
 8    1  0.1122465E+005  0.1043930E+01  0.7957747E-01            NaN
         13   -1    0    0    0    0  0.00000000000E+00  0.00000000000E+00  0.74505805969E-08  0.10566000000E+00  0.10566000000E+00 0.  1.
     999900   -1    0    0    0    0 -0.00000000000E+00 -0.00000000000E+00 -0.74505805969E-08  0.93827000000E+00  0.93827000000E+00 0.  1.
     999902    2    1    2    0    0 -0.19126289291E-01  0.13394966770E-01  0.30628353267E-02  0.10203796064E+01  0.10201077983E+01 0.  0.
     999903    2    3    3    0    0 -0.64772159212E-01 -0.15125584532E-01  0.11143773517E+00  0.13209919677E+00  0.24649808308E-01 0.  0.
         14    1    1    2    0    0  0.19126289291E-01 -0.13394966770E-01 -0.30628353267E-02  0.23550393565E-01  0.00000000000E+00 0. -1.
     999901    1    3    3    0    0  0.45645869921E-01  0.28520551302E-01 -0.10837489984E+00  0.88828040967E+00  0.88000000000E+00 0.  1.
        -11    1    4    4    0    0 -0.34260448306E-01 -0.66022385897E-03  0.37422630356E-01  0.50743754270E-01  0.51100000000E-03 0.  1.
         11    1    4    4    0    0 -0.30511710906E-01 -0.14465360673E-01  0.74015104815E-01  0.81355442495E-01  0.51100000000E-03 0. -1.
</event>
<event>
 8    1  0.1122465E+005  0.1043930E+01  0.7957747E-01            NaN
         13   -1    0    0    0    0  0.00000000000E+00  0.00000000000E+00  0.74505805969E-08  0.10566000000E+00  0.10566000000E+00 0.  1.
     999900   -1    0    0    0    0 -0.00000000000E+00 -0.00000000000E+00 -0.74505805969E-08  0.93827000000E+00  0.93827000000E+00 0.  1.
     999902    2    1    2    0    0  0.77599193151E-04 -0.11812110010E-01  0.21783546393E-01  0.10191498697E+01  0.10188485668E+01 0.  0.
     999903    2    3    3    0    0  0.50655732599E-01  0.42618900001E-01  0.11170393488E+00  0.13145253462E+00  0.20484772589E-01 0.  0.
         14    1    1    2    0    0 -0.77599193151E-04  0.11812110010E-01 -0.21783546393E-01  0.24780130306E-01  0.00000000000E+00 0. -1.
     999901    1    3    3    0    0 -0.50578133406E-01 -0.54431010011E-01 -0.89920388488E-01  0.88769733507E+00  0.88000000000E+00 0.  1.
        -11    1    4    4    0    0  0.14186378962E-01  0.47004605464E-02  0.38509787109E-01  0.41311166790E-01  0.51100000000E-03 0.  1.
         11    1    4    4    0    0  0.36469353636E-01  0.37918439455E-01  0.73194147772E-01  0.90141367831E-01  0.51100000000E-03 0. -1.
</event>
<event>
 8    1  0.1122465E+005  0.1043930E+01  0.7957747E-01            NaN
         13   -1    0    0    0    0  0.00000000000E+00  0.00000000000E+00  0.74505805969E-08  0.10566000000E+00  0.10566000000E+00 0. -1.
     999900   -1    0    0    0    0 -0.00000000000E+00 -0.00000000000E+00 -0.74505805969E-08  0.93827000000E+00  0.93827000000E+00 0. -1.
     999902    2    1    2    0    0 -0.16383401801E-01  0.57715737799E-02 -0.11840358535E-01  0.10229080827E+01  0.10226920478E+01 0.  0.
     999903    2    3    3    0    0  0.24796175345E-01  0.11370067157E+00 -0.63401662203E-01  0.13386195576E+00  0.18882780576E-01 0.  0.
         14    1    1    2    0    0  0.16383401801E-01 -0.57715737799E-02  0.11840358535E-01  0.21021917341E-01  0.00000000000E+00 0.  1.
     999901    1    3    3    0    0 -0.41179577146E-01 -0.10792909779E+00  0.51561303669E-01  0.88904612690E+00  0.88000000000E+00 0.  1.
        -11    1    4    4    0    0  0.50697220997E-02  0.41957872049E-02 -0.42076853749E-02  0.78276720455E-02  0.51100000000E-03 0.  1.
         11    1    4    4    0    0  0.19726453246E-01  0.10950488436E+00 -0.59193976828E-01  0.12603428371E+00  0.51100000000E-03 0. -1.
</event>
<event>
 8    1  0.1122465E+005  0.1043930E+01  0.7957747E-01            NaN
         13   -1    0    0    0    0  0.00000000000E+00  0.00000000000E+00  0.74505805969E-08  0.10566000000E+00  0.10566000000E+00 0. -1.
     999900   -1    0    0    0    0 -0.00000000000E+00 -0.00000000000E+00 -0.74505805969E-08  0.93827000000E+00  0.93827000000E+00 0.  1.
     999902    2    1    2    0    0  0.21437838701E-01  0.12148578332E-01  0.48149232566E-02  0.10188231808E+01  0.10185137807E+01 0.  0.
     999903    2    3    3    0    0 -0.92074469381E-01  0.87110437564E-01  0.19667767962E-02  0.12836687287E+00  0.20205187312E-01 0.  0.
         14    1    1    2    0    0 -0.21437838701E-01 -0.12148578332E-01 -0.48149232566E-02  0.25106819185E-01  0.00000000000E+00 0.  1.
     999901    1    3    3    0    0  0.11351230808E+00 -0.74961859232E-01  0.28481464604E-02  0.89045630795E+00  0.88000000000E+00 0.  1.
        -11    1    4    4    0    0 -0.25498941362E-01  0.12672318545E-01  0.91036004383E-03  0.28493394749E-01  0.51100000000E-03 0. -1.
         11    1    4    4    0    0 -0.66575528019E-01  0.74438119019E-01  0.10564167524E-02  0.99873478118E-01  0.51100000000E-03 0.  1.
</event>
<event>
 8    1  0.1122465E+005  0.1043930E+01  0.7957747E-01            NaN
         13   -1    0    0    0    0  0.00000000000E+00  0.00000000000E+00  0.74505805969E-08  0.10566000000E+00  0.10566000000E+00 0.  1.
     999900   -1    0    0    0    0 -0.00000000000E+00 -0.00000000000E+00 -0.74505805969E-08  0.93827000000E+00  0.93827000000E+00 0.  1.
     999902    2    1    2    0    0 -0.16972675259E-01  0.13142084177E-01 -0.11037404273E-01  0.10197926767E+01  0.10195069853E+01 0.  0.
     999903    2    3    3    0    0  0.96161829553E-01  0.67695350258E-01 -0.51733968519E-01  0.12994342805E+00  0.19471340098E-01 0.  0.
         14    1    1    2    0    0  0.16972675259E-01 -0.13142084177E-01  0.11037404273E-01  0.24137323279E-01  0.00000000000E+00 0. -1.
     999901    1    3    3    0    0 -0.11313450481E+00 -0.54553266081E-01  0.40696564246E-01  0.88984924867E+00  0.88000000000E+00 0. -1.
        -11    1    4    4    0    0  0.20506991747E-01  0.81450797380E-02 -0.15932390914E-01  0.27220970513E-01  0.51100000000E-03 0. -1.
         11    1    4    4    0    0  0.75654837805E-01  0.59550270520E-01 -0.35801577605E-01  0.10272245754E+00  0.51100000000E-03 0.  1.
</event>
<event>
 8    1  0.1122465E+005  0.1043930E+01  0.7957747E-01            NaN
         13   -1    0    0    0    0  0.00000000000E+00  0.00000000000E+00  0.74505805969E-08  0.10566000000E+00  0.10566000000E+00 0. -1.
     999900   -1    0    0    0    0 -0.00000000000E+00 -0.00000000000E+00 -0.74505805969E-08  0.93827000000E+00  0.93827000000E+00 0. -1.
     999902    2    1    2    0    0 -0.20392415264E-01 -0.26464191997E-02  0.12441840207E-01  0.10198955763E+01  0.10196123445E+01 0.  0.
     999903    2    3    3    0    0  0.75913975835E-01  0.83244917846E-01 -0.57003849598E-01  0.12777734054E+00  0.19620443721E-01 0.  0.
         14    1    1    2    0    0  0.20392415264E-01  0.26464191997E-02 -0.12441840207E-01  0.24034423700E-01  0.00000000000E+00 0. -1.
     999901    1    3    3    0    0 -0.96306391099E-01 -0.85891337045E-01  0.69445689804E-01  0.89211823576E+00  0.88000000000E+00 0. -1.
        -11    1    4    4    0    0  0.33886847424E-01  0.47760403647E-01 -0.36865899600E-01  0.69200652159E-01  0.51100000000E-03 0. -1.
         11    1    4    4    0    0  0.42027128411E-01  0.35484514199E-01 -0.20137949997E-01  0.58576688379E-01  0.51100000000E-03 0.  1.
</event>
<event>
 8    1  0.1122465E+005  0.1043930E+01  0.7957747E-01            NaN
         13   -1    0    0    0    0  0.00000000000E+00  0.00000000000E+00  0.74505805969E-08  0.10566000000E+00  0.10566000000E+00 0. -1.
     999900   -1    0    0    0    0 -0.00000000000E+00 -0.00000000000E+00 -0.74505805969E-08  0.93827000000E+00  0.93827000000E+00 0. -1.
     999902    2    1    2    0    0  0.19169501883E-01 -0.10106485521E-01 -0.12851886182E-01  0.10187351229E+01  0.10184235214E+01 0.  0.
     999903    2    3    3    0    0 -0.24031131593E-01 -0.10436887166E+00  0.68766987447E-01  0.12889618655E+00  0.20370853849E-01 0.  0.
         14    1    1    2    0    0 -0.19169501883E-01  0.10106485521E-01  0.12851886182E-01  0.25194877067E-01  0.00000000000E+00 0. -1.
     999901    1    3    3    0    0  0.43200633476E-01  0.94262386141E-01 -0.81618873629E-01  0.88983893638E+00  0.88000000000E+00 0. -1.
        -11    1    4    4    0    0 -0.73753111619E-02 -0.63660927738E-01  0.32348360822E-01  0.71789877449E-01  0.51100000000E-03 0.  1.
         11    1    4    4    0    0 -0.16655820431E-01 -0.40707943923E-01  0.36418626625E-01  0.57106309099E-01  0.51100000000E-03 0. -1.
</event>
<event>
 8    1  0.1122465E+005  0.1043930E+01  0.7957747E-01            NaN
         13   -1    0    0    0    0  0.00000000000E+00  0.00000000000E+00  0.74505805969E-08  0.10566000000E+00  0.10566000000E+00 0. -1.
     999900   -1    0    0    0    0 -0.00000000000E+00 -0.00000000000E+00 -0.74505805969E-08  0.93827000000E+00  0.93827000000E+00 0. -1.
     999902    2    1    2    0    0  0.10275521587E-01  0.47100690681E-02  0.20846384134E-01  0.10202162313E+01  0.10199405942E+01 0.  0.
     999903    2    3    3    0    0  0.13061573826E+00 -0.75467663585E-03  0.42800495471E-02  0.13185477635E+00  0.17502074276E-01 0.  0.
         14    1    1    2    0    0 -0.10275521587E-01 -0.47100690681E-02 -0.20846384134E-01  0.23713768700E-01  0.00000000000E+00 0.  1.
     999901    1    3    3    0    0 -0.12034021668E+00  0.54647457039E-02  0.16566334587E-01  0.88836145495E+00  0.88000000000E+00 0.  1.
        -11    1    4    4    0    0  0.83204352673E-01 -0.69241594107E-02  0.81174247296E-02  0.83887198025E-01  0.51100000000E-03 0.  1.
         11    1    4    4    0    0  0.47411385589E-01  0.61694827748E-02 -0.38373751825E-02  0.47967578327E-01  0.51100000000E-03 0. -1.
</event>
<event>
 8    1  0.1122465E+005  0.1043930E+01  0.7957747E-01            NaN
         13   -1    0    0    0    0  0.00000000000E+00  0.00000000000E+00  0.74505805969E-08  0.10566000000E+00  0.10566000000E+00 0.  1.
     999900   -1    0    0    0    0 -0.00000000000E+00 -0.00000000000E+00 -0.74505805969E-08  0.93827000000E+00  0.93827000000E+00 0. -1.
     999902    2    1    2    0    0 -0.21873806233E-01 -0.80083547792E-02 -0.29764405765E-02  0.10204468924E+01  0.10201766532E+01 0.  0.
     999903    2    3    3    0    0  0.10594113982E+00 -0.66208715604E-01 -0.25296841103E-01  0.12903108439E+00  0.20049225474E-01 0.  0.
         14    1    1    2    0    0  0.21873806233E-01  0.80083547792E-02  0.29764405765E-02  0.23483107629E-01  0.00000000000E+00 0.  1.
     999901    1    3    3    0    0 -0.12781494605E+00  0.58200360825E-01  0.22320400526E-01  0.89141580798E+00  0.88000000000E+00 0. -1.
        -11    1    4    4    0    0  0.44569221451E-01 -0.25885763431E-01 -0.57668069765E-03  0.51546890603E-01  0.51100000000E-03 0.  1.
         11    1    4    4    0    0  0.61371918366E-01 -0.40322952173E-01 -0.24720160405E-01  0.77484193790E-01  0.51100000000E-03 0. -1.
</event>
<event>
 8    1  0.1122465E+005  0.1043930E+01  0.7957747E-01            NaN
         13   -1    0    0    0    0  0.00000000000E+00  0.00000000000E+00  0.74505805969E-08  0.10566000000E+00  0.10566000000E+00 0. -1.
     999900   -1    0    0    0    0 -0.00000000000E+00 -0.00000000000E+00 -0.74505805969E-08  0.93827000000E+00  0.93827000000E+00 0. -1.
     999902    2    1    2    0    0 -0.56006319327E-03  0.19592452110E-01  0.14205407918E-01  0.10197231525E+01  0.10194357931E+01 0.  0.
     999903    2    3    3    0    0 -0.11385588335E+00 -0.53933921129E-01 -0.17808791056E-01  0.12884326199E+00  0.20283074192E-01 0.  0.
         14    1    1    2    0    0  0.56006319327E-03 -0.19592452110E-01 -0.14205407918E-01  0.24206847473E-01  0.00000000000E+00 0.  1.
     999901    1    3    3    0    0  0.11329582016E+00  0.73526373238E-01  0.32014198974E-01  0.89087989054E+00  0.88000000000E+00 0.  1.
        -11    1    4    4    0    0 -0.90286753951E-01 -0.46675199027E-01 -0.21537734530E-01  0.10389613695E+00  0.51100000000E-03 0. -1.
         11    1    4    4    0    0 -0.23569129404E-01 -0.72587221015E-02  0.37289434746E-02  0.24947125041E-01  0.51100000000E-03 0.  1.
</event>
<event>
 7    1  0.2566274E+005  0.1043930E+01  0.7957747E-01            NaN
         13   -1    0    0    0    0  0.00000000000E+00  0.00000000000E+00  0.74505805969E-08  0.10566000000E+00  0.10566000000E+00 0.  1.
     999900   -1    0    0    0    0 -0.00000000000E+00 -0.00000000000E+00 -0.74505805969E-08  0.93827000000E+00  0.93827000000E+00 0. -1.
     999903    2    1    2    0    0  0.94073373896E-01  0.85397557373E-02  0.58818041239E-02  0.96816902395E-01  0.20400731982E-01 0.  0.
         14    1    1    2    0    0 -0.41130584779E-01 -0.47594672079E-01 -0.14758655295E-01  0.64612659137E-01  0.00000000000E+00 0. -1.
     999901    1    1    2    0    0 -0.52942789117E-01  0.39054916342E-01  0.88768511707E-02  0.88250043847E+00  0.88000000000E+00 0. -1.
        -11    1    3    3    0    0  0.51144684847E-01  0.29978733437E-02  0.13215883828E-01  0.52912066101E-01  0.51100000000E-03 0. -1.
         11    1    3    3    0    0  0.42928689049E-01  0.55418823936E-02 -0.73340797043E-02  0.43904836294E-01  0.51100000000E-03 0.  1.
</event>
<event>
 8    1  0.1122465E+005  0.1043930E+01  0.7957747E-01            NaN
         13   -1    0    0    0    0  0.00000000000E+00  0.00000000000E+00  0.74505805969E-08  0.10566000000E+00  0.10566000000E+00 0.  1.
     999900   -1    0    0    0    0 -0.00000000000E+00 -0.00000000000E+00 -0.74505805969E-08  0.93827000000E+00  0.93827000000E+00 0.  1.
     999902    2    1    2    0    0 -0.16683295366E-01  0.64814934656E-02  0.16364146719E-01  0.10196786619E+01  0.10193902325E+01 0.  0.
     999903    2    3    3    0    0  0.71387854844E-01  0.60937540146E-01 -0.84588306628E-01  0.12787521587E+00  0.19679420636E-01 0.  0.
         14    1    1    2    0    0  0.16683295366E-01 -0.64814934656E-02 -0.16364146719E-01  0.24251338100E-01  0.00000000000E+00 0. -1.
     999901    1    3    3    0    0 -0.88071150209E-01 -0.54456046681E-01  0.10095245335E+00  0.89180344603E+00  0.88000000000E+00 0. -1.
        -11    1    4    4    0    0  0.46299150221E-01  0.40561875354E-01 -0.67346838405E-01  0.91239984697E-01  0.51100000000E-03 0. -1.
         11    1    4    4    0    0  0.25088704622E-01  0.20375664793E-01 -0.17241468223E-01  0.36635231170E-01  0.51100000000E-03 0.  1.
</event>
<event>
 8    1  0.1122465E+005  0.1043930E+01  0.7957747E-01            NaN
         13   -1    0    0    0    0  0.00000000000E+00  0.00000000000E+00  0.74505805969E-08  0.10566000000E+00  0.10566000000E+00 0. -1.
     999900   -1    0    0    0    0 -0.00000000000E+00 -0.00000000000E+00 -0.74505805969E-08  0.93827000000E+00  0.93827000000E+00 0. -1.
     999902    2    1    2    0    0 -0.27545436379E-02 -0.20550818284E-01  0.10912478445E-01  0.10204991266E+01  0.10202301023E+01 0.  0.
     999903    2    3    3    0    0  0.11486281297E+00  0.88049788940E-02  0.58891719801E-01  0.13089381354E+00  0.19848483713E-01 0.  0.
         14    1    1    2    0    0  0.27545436379E-02  0.20550818284E-01 -0.10912478445E-01  0.23430873407E-01  0.00000000000E+00 0.  1.
     999901    1    3    3    0    0 -0.11761735661E+00 -0.29355797178E-01 -0.47979241356E-01  0.88960531305E+00  0.88000000000E+00 0.  1.
        -11    1    4    4    0    0  0.31358242480E-01  0.14569656516E-02  0.65688526991E-02  0.32076051302E-01  0.51100000000E-03 0. -1.
         11    1    4    4    0    0  0.83504570492E-01  0.73480132424E-02  0.52322867102E-01  0.98817762242E-01  0.51100000000E-03 0.  1.
</event>
<event>
 8    1  0.1122465E+005  0.1043930E+01  0.7957747E-01            NaN
         13   -1    0    0    0    0  0.00000000000E+00  0.00000000000E+00  0.74505805969E-08  0.10566000000E+00  0.10566000000E+00 0. -1.
     999900   -1    0    0    0    0 -0.00000000000E+00 -0.00000000000E+00 -0.74505805969E-08  0.93827000000E+00  0.93827000000E+00 0. -1.
     999902    2    1    2    0    0 -0.62227066520E-02  0.14979729149E-01  0.18741670209E-01  0.10191436214E+01  0.10188421646E+01 0.  0.
     999903    2    3    3    0    0 -0.83858998300E-01 -0.92617576674E-01  0.25677309016E-01  0.12917020767E+00  0.20378205197E-01 0.  0.
         14    1    1    2    0    0  0.62227066520E-02 -0.14979729149E-01 -0.18741670209E-01  0.24786378631E-01  0.00000000000E+00 0.  1.
     999901    1    3    3    0    0  0.77636291648E-01  0.10759730582E+00 -0.69356388074E-02  0.88997341370E+00  0.88000000000E+00 0.  1.
        -11    1    4    4    0    0 -0.26391328454E-01 -0.20216093401E-01  0.60510392297E-04  0.33248419999E-01  0.51100000000E-03 0. -1.
         11    1    4    4    0    0 -0.57467669846E-01 -0.72401483273E-01  0.25616798624E-01  0.95921787673E-01  0.51100000000E-03 0.  1.
</event>
<event>
 8    1  0.1122465E+005  0.1043930E+01  0.7957747E-01            NaN
         13   -1    0    0    0    0  0.00000000000E+00  0.00000000000E+00  0.74505805969E-08  0.10566000000E+00  0.10566000000E+00 0. -1.
     999900   -1    0    0    0    0 -0.00000000000E+00 -0.00000000000E+00 -0.74505805969E-08  0.93827000000E+00  0.93827000000E+00 0.  1.
     999902    2    1    2    0    0 -0.27364223987E-02 -0.18359215926E-01 -0.15151377549E-01  0.10199693435E+01  0.10196878683E+01 0.  0.
     999903    2    3    3    0    0 -0.38235084686E-01 -0.95060180778E-01  0.80713551970E-01  0.13073749651E+00  0.89025755926E-02 0.  0.
         14    1    1    2    0    0  0.27364223987E-02  0.18359215926E-01  0.15151377549E-01  0.23960656472E-01  0.00000000000E+00 0.  1.
     999901    1    3    3    0    0  0.35498662288E-01  0.76700964852E-01 -0.95864929519E-01  0.88923184701E+00  0.88000000000E+00 0.  1.
        -11    1    4    4    0    0 -0.52904945379E-02 -0.22565738400E-01  0.16818344799E-01  0.28641224219E-01  0.51100000000E-03 0.  1.
         11    1    4    4    0    0 -0.32944590148E-01 -0.72494442378E-01  0.63895207171E-01  0.10209627229E+00  0.51100000000E-03 0. -1.
</event>
<event>
 8    1  0.1122465E+005  0.1043930E+01  0.7957747E-01            NaN
         13   -1    0    0    0    0  0.00000000000E+00  0.00000000000E+00  0.74505805969E-08  0.10566000000E+00  0.10566000000E+00 0.  1.
     999900   -1    0    0    0    0 -0.00000000000E+00 -0.00000000000E+00 -0.74505805969E-08  0.93827000000E+00  0.93827000000E+00 0.  1.
     999902    2    1    2    0    0  0.34116570612E-02  0.22680091069E-01 -0.97162227447E-02  0.10190215492E+01  0.10187170789E+01 0.  0.
     999903    2    3    3    0    0  0.97756742902E-01  0.31286698361E-01  0.76346583304E-01  0.12976237695E+00  0.21776946838E-01 0.  0.
         14    1    1    2    0    0 -0.34116570612E-02 -0.22680091069E-01  0.97162227447E-02  0.24908450759E-01  0.00000000000E+00 0.  1.
     999901    1    3    3    0    0 -0.94345085840E-01 -0.86066072919E-02 -0.86062806049E-01  0.88925917229E+00  0.88000000000E+00 0.  1.
        -11    1    4    4    0    0  0.27721982498E-01  0.15384469898E-01  0.14021263063E-01  0.34670551864E-01  0.51100000000E-03 0. -1.
         11    1    4    4    0    0  0.70034760403E-01  0.15902228463E-01  0.62325320241E-01  0.95091825090E-01  0.51100000000E-03 0.  1.
</event>
<event>
 8    1  0.1122465E+005  0.1043930E+01  0.7957747E-01            NaN
         13   -1    0    0    0    0  0.00000000000E+00  0.00000000000E+00  0.74505805969E-08  0.10566000000E+00  0.10566000000E+00 0.  1.
     999900   -1    0    0    0    0 -0.00000000000E+00 -0.00000000000E+00 -0.74505805969E-08  0.93827000000E+00  0.93827000000E+00 0. -1.
     999902    2    1    2    0    0  0.20592898341E-02  0.23313610820E-01  0.17929306454E-02  0.10204570427E+01  0.10201870398E+01 0.  0.
     999903    2    3    3    0    0  0.12627730758E+00 -0.71397297854E-02  0.27199743923E-01  0.13084868615E+00  0.19611691581E-01 0.  0.
         14    1    1    2    0    0 -0.20592898341E-02 -0.23313610820E-01 -0.17929306454E-02  0.23472957300E-01  0.00000000000E+00 0. -1.
     999901    1    3    3    0    0 -0.12421801774E+00  0.30453340605E-01 -0.25406813277E-01  0.88960835655E+00  0.88000000000E+00 0. -1.
        -11    1    4    4    0    0  0.10412700372E+00 -0.11084112405E-01  0.27772618599E-01  0.10833683546E+00  0.51100000000E-03 0.  1.
         11    1    4    4    0    0  0.22150303853E-01  0.39443826197E-02 -0.57287467596E-03  0.22511850689E-01  0.51100000000E-03 0. -1.
</event>
<event>
 8    1  0.1122465E+005  0.1043930E+01  0.7957747E-01            NaN
         13   -1    0    0    0    0  0.00000000000E+00  0.00000000000E+00  0.74505805969E-08  0.10566000000E+00  0.10566000000E+00 0. -1.
     999900   -1    0    0    0    0 -0.00000000000E+00 -0.00000000000E+00 -0.74505805969E-08  0.93827000000E+00  0.93827000000E+00 0.  1.
     999902    2    1    2    0    0  0.59643485987E-02 -0.18489462704E-01 -0.13938086099E-01  0.10200196690E+01  0.10197393889E+01 0.  0.
     999903    2    3    3    0    0  0.23066833550E-01 -0.94288315530E-01  0.85537185415E-01  0.13101275634E+00  0.20624426776E-01 0.  0.
         14    1    1    2    0    0 -0.59643485987E-02  0.18489462704E-01  0.13938086099E-01  0.23910331018E-01  0.00000000000E+00 0. -1.
     999901    1    3    3    0    0 -0.17102484951E-01  0.75798852826E-01 -0.99475271514E-01  0.88900691264E+00  0.88000000000E+00 0.  1.
        -11    1    4    4    0    0 -0.24919575452E-02 -0.29100875096E-01  0.25651347693E-01  0.38875744922E-01  0.51100000000E-03 0.  1.
         11    1    4    4    0    0  0.25558791095E-01 -0.65187440433E-01  0.59885837722E-01  0.92137011419E-01  0.51100000000E-03 0. -1.
</event>
<event>
 8    1  0.1122465E+005  0.1043930E+01  0.7957747E-01            NaN
         13   -1    0    0    0    0  0.00000000000E+00  0.00000000000E+00  0.74505805969E-08  0.10566000000E+00  0.10566000000E+00 0. -1.
     999900   -1    0    0    0    0 -0.00000000000E+00 -0.00000000000E+00 -0.74505805969E-08  0.93827000000E+00  0.93827000000E+00 0. -1.
     999902    2    1    2    0    0 -0.95907431032E-02  0.10179989390E-01  0.19063076557E-01  0.10202864930E+01  0.10200125060E+01 0.  0.
     999903    2    3    3    0    0  0.26233715666E-01 -0.56214641053E-01 -0.10979341389E+00  0.12770841014E+00  0.20163099465E-01 0.  0.
         14    1    1    2    0    0  0.95907431032E-02 -0.10179989390E-01 -0.19063076557E-01  0.23643507038E-01  0.00000000000E+00 0.  1.
     999901    1    3    3    0    0 -0.35824458769E-01  0.66394630444E-01  0.12885649045E+00  0.89257808282E+00  0.88000000000E+00 0.  1.
        -11    1    4    4    0    0  0.19752238955E-01 -0.30659503276E-01 -0.46188116830E-01  0.58853711371E-01  0.51100000000E-03 0.  1.
         11    1    4    4    0    0  0.64814767112E-02 -0.25555137778E-01 -0.63605297065E-01  0.68854698772E-01  0.51100000000E-03 0. -1.
</event>
<event>
 8    1  0.1253433E+005  0.1043930E+01  0.7957747E-01            NaN
         13   -1    0    0    0    0  0.00000000000E+00  0.00000000000E+00  0.74505805969E-08  0.10566000000E+00  0.10566000000E+00 0. -1.
     999900   -1    0    0    0    0 -0.00000000000E+00 -0.00000000000E+00 -0.74505805969E-08  0.93827000000E+00  0.93827000000E+00 0. -1.
     999902    2    1    2    0    0 -0.28600898770E-02 -0.27350828105E-02 -0.23273962210E-01  0.10203219906E+01  0.10200488353E+01 0.  0.
     999903    2    3    3    0    0 -0.15995318512E-01  0.12792543038E+00 -0.16775431529E-02  0.13031574944E+00  0.18937118295E-01 0.  0.
         14    1    1    2    0    0  0.28600898770E-02  0.27350828105E-02  0.23273962210E-01  0.23608009425E-01  0.00000000000E+00 0. -1.
     999901    1    3    3    0    0  0.13135228635E-01 -0.13066051319E+00 -0.21596419057E-01  0.89000624113E+00  0.88000000000E+00 0. -1.
        -11    1    4    4    0    0 -0.12900669074E-01  0.10542469002E+00  0.58757515943E-02  0.10637470614E+00  0.51100000000E-03 0. -1.
         11    1    4    4    0    0 -0.30946494374E-02  0.22500740363E-01 -0.75532947471E-02  0.23941043306E-01  0.51100000000E-03 0.  1.
</event>
<event>
 8    1  0.1122465E+005  0.1043930E+01  0.7957747E-01            NaN
         13   -1    0    0    0    0  0.00000000000E+00  0.00000000000E+00  0.74505805969E-08  0.10566000000E+00  0.10566000000E+00 0.  1.
     999900   -1    0    0    0    0 -0.00000000000E+00 -0.00000000000E+00 -0.74505805969E-08  0.93827000000E+00  0.93827000000E+00 0. -1.
     999902    2    1    2    0    0 -0.99421148483E-02  0.21671968359E-01 -0.24364983408E-02  0.10199621802E+01  0.10196805346E+01 0.  0.
     999903    2    3    3    0    0 -0.71121499330E-01 -0.28045445065E-01 -0.10331140986E+00  0.13069816654E+00  0.23747603517E-01 0.  0.
         14    1    1    2    0    0  0.99421148483E-02 -0.21671968359E-01  0.24364983408E-02  0.23967819766E-01  0.00000000000E+00 0.  1.
     999901    1    3    3    0    0  0.61179384482E-01  0.49717413423E-01  0.10087491152E+00  0.88926401370E+00  0.88000000000E+00 0. -1.
        -11    1    4    4    0    0 -0.62060778680E-01 -0.21328316227E-01 -0.72034294384E-01  0.97445564351E-01  0.51100000000E-03 0. -1.
         11    1    4    4    0    0 -0.90607206503E-02 -0.67171288376E-02 -0.31277115477E-01  0.33252602185E-01  0.51100000000E-03 0.  1.
</event>
<event>
 8    1  0.1122465E+005  0.1043930E+01  0.7957747E-01            NaN
         13   -1    0    0    0    0  0.00000000000E+00  0.00000000000E+00  0.74505805969E-08  0.10566000000E+00  0.10566000000E+00 0.  1.
     999900   -1    0    0    0    0 -0.00000000000E+00 -0.00000000000E+00 -0.74505805969E-08  0.93827000000E+00  0.93827000000E+00 0.  1.
     999902    2    1    2    0    0 -0.12335695279E-01  0.19659554622E-01 -0.45365356582E-02  0.10202815831E+01  0.10200074810E+01 0.  0.
     999903    2    3    3    0    0  0.11477150234E-01  0.12564449863E-01  0.12732758425E+00  0.13010994896E+00  0.20656590457E-01 0.  0.
         14    1    1    2    0    0  0.12335695279E-01 -0.19659554622E-01  0.45365356582E-02  0.23648416897E-01  0.00000000000E+00 0.  1.
     999901    1    3    3    0    0 -0.23812845513E-01  0.70951047585E-02 -0.13186411990E+00  0.89017163415E+00  0.88000000000E+00 0.  1.
        -11    1    4    4    0    0  0.44557231585E-03  0.15019195199E-01  0.61063289213E-01  0.62886891874E-01  0.51100000000E-03 0.  1.
         11    1    4    4    0    0  0.11031577919E-01 -0.24547453363E-02  0.66264295034E-01  0.67223057081E-01  0.51100000000E-03 0. -1.
</event>
<event>
 8    1  0.1122465E+005  0.1043930E+01  0.7957747E-01            NaN
         13   -1    0    0    0    0  0.00000000000E+00  0.00000000000E+00  0.74505805969E-08  0.10566000000E+00  0.10566000000E+00 0. -1.
     999900   -1    0    0    0    0 -0.00000000000E+00 -0.00000000000E+00 -0.74505805969E-08  0.93827000000E+00  0.93827000000E+00 0.  1.
     999902    2    1    2    0    0 -0.11118949431E-01  0.13003714817E-01  0.17185692462E-01  0.10196797286E+01  0.10193913249E+01 0.  0.
     999903    2    3    3    0    0 -0.10392807689E+00 -0.20459195277E-01  0.76147639773E-01  0.13220589144E+00  0.21454856110E-01 0.  0.
         14    1    1    2    0    0  0.11118949431E-01 -0.13003714817E-01 -0.17185692462E-01  0.24250271357E-01  0.00000000000E+00 0.  1.
     999901    1    3    3    0    0  0.92809127458E-01  0.33462910094E-01 -0.58961947312E-01  0.88747383720E+00  0.88000000000E+00 0.  1.
        -11    1    4    4    0    0 -0.59262100098E-02  0.33620257394E-02  0.78140323277E-02  0.10379952041E-01  0.51100000000E-03 0.  1.
         11    1    4    4    0    0 -0.98001866879E-01 -0.23821221017E-01  0.68333607446E-01  0.12182593940E+00  0.51100000000E-03 0. -1.
</event>
<event>
 8    1  0.1122465E+005  0.1043930E+01  0.7957747E-01            NaN
         13   -1    0    0    0    0  0.00000000000E+00  0.00000000000E+00  0.74505805969E-08  0.10566000000E+00  0.10566000000E+00 0. -1.
     999900   -1    0    0    0    0 -0.00000000000E+00 -0.00000000000E+00 -0.74505805969E-08  0.93827000000E+00  0.93827000000E+00 0.  1.
     999902    2    1    2    0    0  0.12423473937E-01 -0.72856966728E-02 -0.22363135111E-01  0.10173304907E+01  0.10169826909E+01 0.  0.
     999903    2    3    3    0    0  0.44250937695E-01  0.23813499576E-01 -0.11915992905E+00  0.13090521653E+00  0.20294303975E-01 0.  0.
         14    1    1    2    0    0 -0.12423473937E-01  0.72856966728E-02  0.22363135111E-01  0.26599509256E-01  0.00000000000E+00 0. -1.
     999901    1    3    3    0    0 -0.31827463758E-01 -0.31099196249E-01  0.96796793938E-01  0.88642527422E+00  0.88000000000E+00 0. -1.
        -11    1    4    4    0    0  0.21000260243E-01  0.10197387873E-01 -0.80219913391E-01  0.83549346348E-01  0.51100000000E-03 0.  1.
         11    1    4    4    0    0  0.23250677451E-01  0.13616111703E-01 -0.38940015657E-01  0.47355870177E-01  0.51100000000E-03 0. -1.
</event>
<event>
 8    1  0.1122465E+005  0.1043930E+01  0.7957747E-01            NaN
         13   -1    0    0    0    0  0.00000000000E+00  0.00000000000E+00  0.74505805969E-08  0.10566000000E+00  0.10566000000E+00 0.  1.
     999900   -1    0    0    0    0 -0.00000000000E+00 -0.00000000000E+00 -0.74505805969E-08  0.93827000000E+00  0.93827000000E+00 0. -1.
     999902    2    1    2    0    0 -0.10376709117E-01 -0.19751715939E-01  0.76716296204E-02  0.10203363509E+01  0.10200635317E+01 0.  0.
     999903    2    3    3    0    0  0.72366104886E-01  0.10100195209E+00 -0.21731843353E-01  0.12776008763E+00  0.20300726891E-01 0.  0.
         14    1    1    2    0    0  0.10376709117E-01  0.19751715939E-01 -0.76716296204E-02  0.23593649054E-01  0.00000000000E+00 0. -1.
     999901    1    3    3    0    0 -0.82742814003E-01 -0.12075366803E+00  0.29403472974E-01  0.89257626332E+00  0.88000000000E+00 0.  1.
        -11    1    4    4    0    0  0.22657522945E-01  0.48071246206E-01 -0.62331182871E-02  0.53510007871E-01  0.51100000000E-03 0. -1.
         11    1    4    4    0    0  0.49708581941E-01  0.52930705889E-01 -0.15498725066E-01  0.74250079759E-01  0.51100000000E-03 0.  1.
</event>
<event>
 8    1  0.1122465E+005  0.1043930E+01  0.7957747E-01            NaN
         13   -1    0    0    0    0  0.00000000000E+00  0.00000000000E+00  0.74505805969E-08  0.10566000000E+00  0.10566000000E+00 0. -1.
     999900   -1    0    0    0    0 -0.00000000000E+00 -0.00000000000E+00 -0.74505805969E-08  0.93827000000E+00  0.93827000000E+00 0. -1.
     999902    2    1    2    0    0 -0.14731724701E-01 -0.12007372548E-01  0.61256413013E-02  0.10239619207E+01  0.10237672054E+01 0.  0.
     999903    2    3    3    0    0 -0.99887630846E-01  0.67389777881E-02  0.89379903013E-01  0.13574222601E+00  0.20352696190E-01 0.  0.
         14    1    1    2    0    0  0.14731724701E-01  0.12007372548E-01 -0.61256413013E-02  0.19968079265E-01  0.00000000000E+00 0.  1.
     999901    1    3    3    0    0  0.85155906144E-01 -0.18746350336E-01 -0.83254261712E-01  0.88821969472E+00  0.88000000000E+00 0. -1.
        -11    1    4    4    0    0 -0.77831367097E-01  0.10407730291E-01  0.60033663939E-01  0.98845052891E-01  0.51100000000E-03 0.  1.
         11    1    4    4    0    0 -0.22056263749E-01 -0.36687525032E-02  0.29346239074E-01  0.36897173120E-01  0.51100000000E-03 0. -1.
</event>
<event>
 8    1  0.1122465E+005  0.1043930E+01  0.7957747E-01            NaN
         13   -1    0    0    0    0  0.00000000000E+00  0.00000000000E+00  0.74505805969E-08  0.10566000000E+00  0.10566000000E+00 0.  1.
     999900   -1    0    0    0    0 -0.00000000000E+00 -0.00000000000E+00 -0.74505805969E-08  0.93827000000E+00  0.93827000000E+00 0. -1.
     999902    2    1    2    0    0 -0.14265328356E-01  0.13995181652E-01 -0.14249441516E-01  0.10193859318E+01  0.10190904114E+01 0.  0.
     999903    2    3    3    0    0  0.64438252030E-01  0.97350247485E-01  0.52483062991E-01  0.12944461474E+00  0.19289307269E-01 0.  0.
         14    1    1    2    0    0  0.14265328356E-01 -0.13995181652E-01  0.14249441516E-01  0.24544068246E-01  0.00000000000E+00 0.  1.
     999901    1    3    3    0    0 -0.78703580386E-01 -0.83355065833E-01 -0.66732504507E-01  0.88994131701E+00  0.88000000000E+00 0.  1.
        -11    1    4    4    0    0  0.40474039333E-01  0.55816615674E-01  0.20985645961E-01  0.72071498545E-01  0.51100000000E-03 0.  1.
         11    1    4    4    0    0  0.23964212697E-01  0.41533631811E-01  0.31497417030E-01  0.57373116197E-01  0.51100000000E-03 0. -1.
</event>
<event>
 8    1  0.1122465E+005  0.1043930E+01  0.7957747E-01            NaN
         13   -1    0    0    0    0  0.00000000000E+00  0.00000000000E+00  0.74505805969E-08  0.10566000000E+00  0.10566000000E+00 0. -1.
     999900   -1    0    0    0    0 -0.00000000000E+00 -0.00000000000E+00 -0.74505805969E-08  0.93827000000E+00  0.93827000000E+00 0. -1.
     999902    2    1    2    0    0  0.13423439382E-01 -0.39816826395E-02 -0.21820304818E-01  0.10180037927E+01  0.10176735988E+01 0.  0.
     999903    2    3    3    0    0  0.11311435036E-02 -0.17966267579E-01 -0.12855584526E+00  0.13135891187E+00  0.20111989492E-01 0.  0.
         14    1    1    2    0    0 -0.13423439382E-01  0.39816826395E-02  0.21820304818E-01  0.25926207278E-01  0.00000000000E+00 0. -1.
     999901    1    3    3    0    0  0.12292295878E-01  0.13984584940E-01  0.10673554044E+00  0.88664488086E+00  0.88000000000E+00 0.  1.
        -11    1    4    4    0    0  0.96318487393E-02 -0.48332925671E-02 -0.39947240457E-01  0.41378452947E-01  0.51100000000E-03 0.  1.
         11    1    4    4    0    0 -0.85007052357E-02 -0.13132975012E-01 -0.88608604798E-01  0.89980458920E-01  0.51100000000E-03 0. -1.
</event>
<event>
 8    1  0.1122465E+005  0.1043930E+01  0.7957747E-01            NaN
         13   -1    0    0    0    0  0.00000000000E+00  0.00000000000E+00  0.74505805969E-08  0.10566000000E+00  0.10566000000E+00 0.  1.
     999900   -1    0    0    0    0 -0.00000000000E+00 -0.00000000000E+00 -0.74505805969E-08  0.93827000000E+00  0.93827000000E+00 0. -1.
     999902    2    1    2    0    0  0.17901678768E-01 -0.11831606216E-01 -0.46389935151E-02  0.10219760193E+01  0.10217401855E+01 0.  0.
     999903    2    3    3    0    0 -0.75854929303E-01  0.10332837255E+00 -0.19926410467E-02  0.12953043246E+00  0.18532119195E-01 0.  0.
         14    1    1    2    0    0 -0.17901678768E-01  0.11831606216E-01  0.46389935151E-02  0.21953980714E-01  0.00000000000E+00 0. -1.
     999901    1    3    3    0    0  0.93756608071E-01 -0.11515997876E+00 -0.26463524684E-02  0.89244558683E+00  0.88000000000E+00 0.  1.
        -11    1    4    4    0    0 -0.40835726280E-01  0.49989200379E-01  0.76286468121E-02  0.64999492833E-01  0.51100000000E-03 0. -1.
         11    1    4    4    0    0 -0.35019203023E-01  0.53339172169E-01 -0.96212878588E-02  0.64530939626E-01  0.51100000000E-03 0.  1.
</event>
<event>
 8    1  0.1122465E+005  0.1043930E+01  0.7957747E-01            NaN
         13   -1    0    0    0    0  0.00000000000E+00  0.00000000000E+00  0.74505805969E-08  0.10566000000E+00  0.10566000000E+00 0. -1.
     999900   -1    0    0    0    0 -0.00000000000E+00 -0.00000000000E+00 -0.74505805969E-08  0.93827000000E+00  0.93827000000E+00 0.  1.
     999902    2    1    2    0    0  0.54307236042E-02 -0.20351818399E-01  0.11277203841E-01  0.10200372271E+01  0.10197573633E+01 0.  0.
     999903    2    3    3    0    0 -0.11324930080E+00 -0.26020820588E-01  0.56399696437E-01  0.13090668261E+00  0.21287239348E-01 0.  0.
         14    1    1    2    0    0 -0.54307236042E-02  0.20351818399E-01 -0.11277203841E-01  0.23892772913E-01  0.00000000000E+00 0.  1.
     999901    1    3    3    0    0  0.11868002440E+00  0.56690021890E-02 -0.45122492595E-01  0.88913054447E+00  0.88000000000E+00 0.  1.
        -11    1    4    4    0    0 -0.60284129681E-01 -0.21796074429E-01  0.38795211663E-01  0.74930465906E-01  0.51100000000E-03 0. -1.
         11    1    4    4    0    0 -0.52965171118E-01 -0.42247461582E-02  0.17604484774E-01  0.55976216707E-01  0.51100000000E-03 0.  1.
</event>
<event>
 8    1  0.1122465E+005  0.1043930E+01  0.7957747E-01            NaN
         13   -1    0    0    0    0  0.00000000000E+00  0.00000000000E+00  0.74505805969E-08  0.10566000000E+00  0.10566000000E+00 0. -1.
     999900   -1    0    0    0    0 -0.00000000000E+00 -0.00000000000E+00 -0.74505805969E-08  0.93827000000E+00  0.93827000000E+00 0.  1.
     999902    2    1    2    0    0  0.48270040041E-02 -0.42664243829E-02  0.24457161723E-01  0.10186385962E+01  0.10183245723E+01 0.  0.
     999903    2    3    3    0    0  0.46596929506E-04 -0.74265977036E-01  0.10727919793E+00  0.13196939110E+00  0.19790309770E-01 0.  0.
         14    1    1    2    0    0 -0.48270040041E-02  0.42664243829E-02 -0.24457161723E-01  0.25291403761E-01  0.00000000000E+00 0.  1.
     999901    1    3    3    0    0  0.47804070746E-02  0.69999552653E-01 -0.82822036212E-01  0.88666920514E+00  0.88000000000E+00 0. -1.
        -11    1    4    4    0    0  0.10574291340E-02 -0.54377881279E-01  0.61843438172E-01  0.82358630966E-01  0.51100000000E-03 0.  1.
         11    1    4    4    0    0 -0.10108322045E-02 -0.19888095758E-01  0.45435759763E-01  0.49610760132E-01  0.51100000000E-03 0. -1.
</event>
<event>
 8    1  0.1122465E+005  0.1043930E+01  0.7957747E-01            NaN
         13   -1    0    0    0    0  0.00000000000E+00  0.00000000000E+00  0.74505805969E-08  0.10566000000E+00  0.10566000000E+00 0. -1.
     999900   -1    0    0    0    0 -0.00000000000E+00 -0.00000000000E+00 -0.74505805969E-08  0.93827000000E+00  0.93827000000E+00 0.  1.
     999902    2    1    2    0    0  0.22765141302E-01  0.11830509718E-02 -0.46349968730E-02  0.10206677029E+01  0.10204025801E+01 0.  0.
     999903    2    3    3    0    0 -0.23837400338E-01  0.10743821896E+00 -0.67384169184E-01  0.13083658625E+00  0.21596145413E-01 0.  0.
         14    1    1    2    0    0 -0.22765141302E-01 -0.11830509718E-02  0.46349968730E-02  0.23262297051E-01  0.00000000000E+00 0. -1.
     999901    1    3    3    0    0  0.46602541639E-01 -0.10625516799E+00  0.62749172311E-01  0.88983111669E+00  0.88000000000E+00 0. -1.
        -11    1    4    4    0    0 -0.20227663407E-01  0.45416775434E-01 -0.34735371450E-01  0.60651867313E-01  0.51100000000E-03 0.  1.
         11    1    4    4    0    0 -0.36097369304E-02  0.62021443531E-01 -0.32648797734E-01  0.70184718941E-01  0.51100000000E-03 0. -1.
</event>
<event>
 8    1  0.1122465E+005  0.1043930E+01  0.7957747E-01            NaN
         13   -1    0    0    0    0  0.00000000000E+00  0.00000000000E+00  0.74505805969E-08  0.10566000000E+00  0.10566000000E+00 0.  1.
     999900   -1    0    0    0    0 -0.00000000000E+00 -0.00000000000E+00 -0.74505805969E-08  0.93827000000E+00  0.93827000000E+00 0. -1.
     999902    2    1    2    0    0 -0.13351425712E-01 -0.16334790990E-01  0.11011170286E-01  0.10201322725E+01  0.10198546570E+01 0.  0.
     999903    2    3    3    0    0 -0.56224074182E-01 -0.46360187129E-01  0.10913502564E+00  0.13313290414E+00  0.22438869741E-01 0.  0.
         14    1    1    2    0    0  0.13351425712E-01  0.16334790990E-01 -0.11011170286E-01  0.23797727545E-01  0.00000000000E+00 0. -1.
     999901    1    3    3    0    0  0.42872648470E-01  0.30025396139E-01 -0.98123855354E-01  0.88699936831E+00  0.88000000000E+00 0. -1.
        -11    1    4    4    0    0 -0.11799115971E-01 -0.23439956750E-01  0.38609704663E-01  0.46686412641E-01  0.51100000000E-03 0.  1.
         11    1    4    4    0    0 -0.44424958211E-01 -0.22920230379E-01  0.70525320977E-01  0.86446491500E-01  0.51100000000E-03 0. -1.
</event>
<event>
 8    1  0.1122465E+005  0.1043930E+01  0.7957747E-01            NaN
         13   -1    0    0    0    0  0.00000000000E+00  0.00000000000E+00  0.74505805969E-08  0.10566000000E+00  0.10566000000E+00 0. -1.
     999900   -1    0    0    0    0 -0.00000000000E+00 -0.00000000000E+00 -0.74505805969E-08  0.93827000000E+00  0.93827000000E+00 0. -1.
     999902    2    1    2    0    0 -0.11209804522E-01  0.19697944472E-01 -0.35472700562E-02  0.10209898200E+01  0.10207320710E+01 0.  0.
     999903    2    3    3    0    0  0.10885470506E+00  0.59966005968E-01  0.36089494349E-01  0.13104146400E+00  0.20594780910E-01 0.  0.
         14    1    1    2    0    0  0.11209804522E-01 -0.19697944472E-01  0.35472700562E-02  0.22940180006E-01  0.00000000000E+00 0.  1.
     999901    1    3    3    0    0 -0.12006450958E+00 -0.40268061496E-01 -0.39636764405E-01  0.88994835599E+00  0.88000000000E+00 0. -1.
        -11    1    4    4    0    0  0.53924754066E-01  0.40823200997E-01  0.16052672576E-01  0.69515194444E-01  0.51100000000E-03 0.  1.
         11    1    4    4    0    0  0.54929950992E-01  0.19142804971E-01  0.20036821773E-01  0.61526269560E-01  0.51100000000E-03 0. -1.
</event>
<event>
 8    1  0.1122465E+005  0.1043930E+01  0.7957747E-01            NaN
         13   -1    0    0    0    0  0.00000000000E+00  0.00000000000E+00  0.74505805969E-08  0.10566000000E+00  0.10566000000E+00 0. -1.
     999900   -1    0    0    0    0 -0.00000000000E+00 -0.00000000000E+00 -0.74505805969E-08  0.93827000000E+00  0.93827000000E+00 0.  1.
     999902    2    1    2    0    0  0.89714284909E-02 -0.22375458621E-01  0.36797812372E-02  0.10195437648E+01  0.10192520787E+01 0.  0.
     999903    2    3    3    0    0 -0.14870457988E-01 -0.10551627661E+00  0.75948570401E-01  0.13235516644E+00  0.19871828978E-01 0.  0.
         14    1    1    2    0    0 -0.89714284909E-02  0.22375458621E-01 -0.36797812372E-02  0.24386235208E-01  0.00000000000E+00 0.  1.
     999901    1    3    3    0    0  0.23841886479E-01  0.83140817984E-01 -0.72268789163E-01  0.88718859836E+00  0.88000000000E+00 0. -1.
        -11    1    4    4    0    0 -0.99102196496E-02 -0.47655084462E-01  0.23296104444E-01  0.53964702647E-01  0.51100000000E-03 0. -1.
         11    1    4    4    0    0 -0.49602383389E-02 -0.57861192143E-01  0.52652465957E-01  0.78390463788E-01  0.51100000000E-03 0.  1.
</event>
<event>
 8    1  0.1122465E+005  0.1043930E+01  0.7957747E-01            NaN
         13   -1    0    0    0    0  0.00000000000E+00  0.00000000000E+00  0.74505805969E-08  0.10566000000E+00  0.10566000000E+00 0.  1.
     999900   -1    0    0    0    0 -0.00000000000E+00 -0.00000000000E+00 -0.74505805969E-08  0.93827000000E+00  0.93827000000E+00 0. -1.
     999902    2    1    2    0    0 -0.66351215577E-02  0.13856125919E-01  0.95319667543E-02  0.10258503027E+01  0.10256909711E+01 0.  0.
     999903    2    3    3    0    0  0.14000455850E-01 -0.11999896030E+00  0.55047707996E-01  0.13432649829E+00  0.20435135224E-01 0.  0.
         14    1    1    2    0    0  0.66351215577E-02 -0.13856125919E-01 -0.95319667543E-02  0.18079697281E-01  0.00000000000E+00 0.  1.
     999901    1    3    3    0    0 -0.20635577408E-01  0.13385508621E+00 -0.45515741242E-01  0.89152380443E+00  0.88000000000E+00 0. -1.
        -11    1    4    4    0    0 -0.10111849976E-03 -0.47773709570E-01  0.30799608225E-01  0.56843773087E-01  0.51100000000E-03 0.  1.
         11    1    4    4    0    0  0.14101574350E-01 -0.72225250726E-01  0.24248099772E-01  0.77482725204E-01  0.51100000000E-03 0. -1.
</event>
<event>
 8    1  0.1122465E+005  0.1043930E+01  0.7957747E-01            NaN
         13   -1    0    0    0    0  0.00000000000E+00  0.00000000000E+00  0.74505805969E-08  0.10566000000E+00  0.10566000000E+00 0.  1.
     999900   -1    0    0    0    0 -0.00000000000E+00 -0.00000000000E+00 -0.74505805969E-08  0.93827000000E+00  0.93827000000E+00 0.  1.
     999902    2    1    2    0    0  0.18761892584E-01 -0.87227655417E-02  0.11662002150E-01  0.10201792622E+01  0.10199027549E+01 0.  0.
     999903    2    3    3    0    0  0.66494048709E-01 -0.21940378374E-01  0.11145065501E+00  0.13315567781E+00  0.20158058323E-01 0.  0.
         14    1    1    2    0    0 -0.18761892584E-01  0.87227655417E-02 -0.11662002150E-01  0.23750737803E-01  0.00000000000E+00 0. -1.
     999901    1    3    3    0    0 -0.47732156125E-01  0.13217612833E-01 -0.99788652856E-01  0.88702358439E+00  0.88000000000E+00 0.  1.
        -11    1    4    4    0    0  0.56775944278E-01 -0.14360833902E-01  0.10199394065E+00  0.11761278183E+00  0.51100000000E-03 0. -1.
         11    1    4    4    0    0  0.97181044315E-02 -0.75795444721E-02  0.94567143543E-02  0.15542895983E-01  0.51100000000E-03 0.  1.
</event>
<event>
 8    1  0.1122465E+005  0.1043930E+01  0.7957747E-01            NaN
         13   -1    0    0    0    0  0.00000000000E+00  0.00000000000E+00  0.74505805969E-08  0.10566000000E+00  0.10566000000E+00 0.  1.
     999900   -1    0    0    0    0 -0.00000000000E+00 -0.00000000000E+00 -0.74505805969E-08  0.93827000000E+00  0.93827000000E+00 0. -1.
     999902    2    1    2    0    0 -0.18529132308E-01 -0.53189065480E-02 -0.15271280188E-01  0.10193366775E+01  0.10190399554E+01 0.  0.
     999903    2    3    3    0    0  0.11022438590E+00  0.61728082053E-01  0.11913887842E-02  0.12729195523E+00  0.15557991471E-01 0.  0.
         14    1    1    2    0    0  0.18529132308E-01  0.53189065480E-02  0.15271280188E-01  0.24593322458E-01  0.00000000000E+00 0. -1.
     999901    1    3    3    0    0 -0.12875351821E+00 -0.67046988601E-01 -0.16462668972E-01  0.89204472231E+00  0.88000000000E+00 0.  1.
        -11    1    4    4    0    0  0.14313561509E-01  0.14330067561E-01 -0.99468835026E-03  0.20284955146E-01  0.51100000000E-03 0. -1.
         11    1    4    4    0    0  0.95910824391E-01  0.47398014492E-01  0.21860771344E-02  0.10700700009E+00  0.51100000000E-03 0.  1.
</event>
<event>
 8    1  0.1122465E+005  0.1043930E+01  0.7957747E-01            NaN
         13   -1    0    0    0    0  0.00000000000E+00  0.00000000000E+00  0.74505805969E-08  0.10566000000E+00  0.10566000000E+00 0.  1.
     999900   -1    0    0    0    0 -0.00000000000E+00 -0.00000000000E+00 -0.74505805969E-08  0.93827000000E+00  0.93827000000E+00 0.  1.
     999902    2    1    2    0    0  0.15172472820E-01 -0.12127867515E-01  0.14050236852E-01  0.10199571350E+01  0.10196753694E+01 0.  0.
     999903    2    3    3    0    0 -0.32077496890E-01 -0.42448479936E-02  0.12615667235E+00  0.13155263560E+00  0.18536596555E-01 0.  0.
         14    1    1    2    0    0 -0.15172472820E-01  0.12127867515E-01 -0.14050236852E-01  0.23972865025E-01  0.00000000000E+00 0. -1.
     999901    1    3    3    0    0  0.47249969710E-01 -0.78830195213E-02 -0.11210643550E+00  0.88840449938E+00  0.88000000000E+00 0.  1.
        -11    1    4    4    0    0 -0.18316601195E-01 -0.23375622619E-02  0.37391892314E-01  0.41705836624E-01  0.51100000000E-03 0. -1.
         11    1    4    4    0    0 -0.13760895695E-01 -0.19072857317E-02  0.88764780039E-01  0.89846798973E-01  0.51100000000E-03 0.  1.
</event>
<event>
 8    1  0.1122465E+005  0.1043930E+01  0.7957747E-01            NaN
         13   -1    0    0    0    0  0.00000000000E+00  0.00000000000E+00  0.74505805969E-08  0.10566000000E+00  0.10566000000E+00 0.  1.
     999900   -1    0    0    0    0 -0.00000000000E+00 -0.00000000000E+00 -0.74505805969E-08  0.93827000000E+00  0.93827000000E+00 0.  1.
     999902    2    1    2    0    0 -0.73960309357E-02 -0.19977261799E-01  0.94103566128E-02  0.10206416537E+01  0.10203759298E+01 0.  0.
     999903    2    3    3    0    0  0.86476901249E-02 -0.74585205377E-01 -0.10576916439E+00  0.13131283342E+00  0.20450151084E-01 0.  0.
         14    1    1    2    0    0  0.73960309357E-02  0.19977261799E-01 -0.94103566128E-02  0.23288346317E-01  0.00000000000E+00 0.  1.
     999901    1    3    3    0    0 -0.16043721061E-01  0.54607943579E-01  0.11517952101E+00  0.88932882026E+00  0.88000000000E+00 0. -1.
        -11    1    4    4    0    0 -0.64792981117E-02 -0.27370084867E-01 -0.41635147101E-01  0.50247880002E-01  0.51100000000E-03 0. -1.
         11    1    4    4    0    0  0.15126988237E-01 -0.47215120511E-01 -0.64134017293E-01  0.81064953420E-01  0.51100000000E-03 0.  1.
</event>
<event>
 8    1  0.1122465E+005  0.1043930E+01  0.7957747E-01            NaN
         13   -1    0    0    0    0  0.00000000000E+00  0.00000000000E+00  0.74505805969E-08  0.10566000000E+00  0.10566000000E+00 0. -1.
     999900   -1    0    0    0    0 -0.00000000000E+00 -0.00000000000E+00 -0.74505805969E-08  0.93827000000E+00  0.93827000000E+00 0.  1.
     999902    2    1    2    0    0 -0.12668242270E-01  0.13678351271E-01 -0.16503089803E-01  0.10190315336E+01  0.10187273104E+01 0.  0.
     999903    2    3    3    0    0  0.29883188431E-01  0.11869192511E+00 -0.43589203502E-01  0.13135358947E+00  0.19312399324E-01 0.  0.
         14    1    1    2    0    0  0.12668242270E-01 -0.13678351271E-01  0.16503089803E-01  0.24898466393E-01  0.00000000000E+00 0.  1.
     999901    1    3    3    0    0 -0.42551430700E-01 -0.10501357384E+00  0.27086113700E-01  0.88767794413E+00  0.88000000000E+00 0.  1.
        -11    1    4    4    0    0  0.30047818294E-01  0.90582590943E-01 -0.29412649303E-01  0.99867122849E-01  0.51100000000E-03 0. -1.
         11    1    4    4    0    0 -0.16462986343E-03  0.28109334170E-01 -0.14176554200E-01  0.31486466624E-01  0.51100000000E-03 0.  1.
</event>
<event>
 8    1  0.1122465E+005  0.1043930E+01  0.7957747E-01            NaN
         13   -1    0    0    0    0  0.00000000000E+00  0.00000000000E+00  0.74505805969E-08  0.10566000000E+00  0.10566000000E+00 0.  1.
     999900   -1    0    0    0    0 -0.00000000000E+00 -0.00000000000E+00 -0.74505805969E-08  0.93827000000E+00  0.93827000000E+00 0.  1.
     999902    2    1    2    0    0  0.78505246001E-03 -0.11547635622E-01 -0.20412074160E-01  0.10204647711E+01  0.10201949481E+01 0.  0.
     999903    2    3    3    0    0 -0.30250991540E-02  0.80583527295E-01  0.97570177665E-01  0.12781563500E+00  0.17721198729E-01 0.  0.
         14    1    1    2    0    0 -0.78505246001E-03  0.11547635622E-01  0.20412074160E-01  0.23465228900E-01  0.00000000000E+00 0.  1.
     999901    1    3    3    0    0  0.38101516140E-02 -0.92131162916E-01 -0.11798225183E+00  0.89264913610E+00  0.88000000000E+00 0.  1.
        -11    1    4    4    0    0 -0.55062228245E-02  0.92265710846E-02  0.17421931906E-01  0.20475178537E-01  0.51100000000E-03 0.  1.
         11    1    4    4    0    0  0.24811236705E-02  0.71356956210E-01  0.80148245759E-01  0.10734045646E+00  0.51100000000E-03 0. -1.
</event>
<event>
 8    1  0.1122465E+005  0.1043930E+01  0.7957747E-01            NaN
         13   -1    0    0    0    0  0.00000000000E+00  0.00000000000E+00  0.74505805969E-08  0.10566000000E+00  0.10566000000E+00 0.  1.
     999900   -1    0    0    0    0 -0.00000000000E+00 -0.00000000000E+00 -0.74505805969E-08  0.93827000000E+00  0.93827000000E+00 0.  1.
     999902    2    1    2    0    0 -0.14307006027E-01  0.14959439614E-01 -0.12051646852E-01  0.10199776004E+01  0.10196963214E+01 0.  0.
     999903    2    3    3    0    0 -0.26689010307E-01  0.21964627979E-01  0.12324512793E+00  0.12952400589E+00  0.19808038528E-01 0.  0.
         14    1    1    2    0    0  0.14307006027E-01 -0.14959439614E-01  0.12051646852E-01  0.23952399605E-01  0.00000000000E+00 0.  1.
     999901    1    3    3    0    0  0.12382004280E-01 -0.70051883650E-02 -0.13529677478E+00  0.89045359450E+00  0.88000000000E+00 0.  1.
        -11    1    4    4    0    0 -0.26166373623E-01  0.18179576370E-01  0.80082678582E-01  0.86189747856E-01  0.51100000000E-03 0.  1.
         11    1    4    4    0    0 -0.52263668384E-03  0.37850516082E-02  0.43162449350E-01  0.43334258037E-01  0.51100000000E-03 0. -1.
</event>
<event>
 8    1  0.1122465E+005  0.1043930E+01  0.7957747E-01            NaN
         13   -1    0    0    0    0  0.00000000000E+00  0.00000000000E+00  0.74505805969E-08  0.10566000000E+00  0.10566000000E+00 0.  1.
     999900   -1    0    0    0    0 -0.00000000000E+00 -0.00000000000E+00 -0.74505805969E-08  0.93827000000E+00  0.93827000000E+00 0. -1.
     999902    2    1    2    0    0  0.62867503182E-02  0.21228113991E-01 -0.78933155948E-02  0.10204255220E+01  0.10201547851E+01 0.  0.
     999903    2    3    3    0    0 -0.27794507505E-01  0.58235102067E-01 -0.11408008858E+00  0.13261547475E+00  0.20217214812E-01 0.  0.
         14    1    1    2    0    0 -0.62867503182E-02 -0.21228113991E-01  0.78933155948E-02  0.23504477962E-01  0.00000000000E+00 0.  1.
     999901    1    3    3    0    0  0.34081257823E-01 -0.37006988076E-01  0.10618677298E+00  0.88781004728E+00  0.88000000000E+00 0. -1.
        -11    1    4    4    0    0 -0.96531671132E-02  0.13914938834E-01 -0.48756990501E-01  0.51616997218E-01  0.51100000000E-03 0.  1.
         11    1    4    4    0    0 -0.18141340392E-01  0.44320163233E-01 -0.65323098075E-01  0.80998477537E-01  0.51100000000E-03 0. -1.
</event>
<event>
 8    1  0.1122465E+005  0.1043930E+01  0.7957747E-01            NaN
         13   -1    0    0    0    0  0.00000000000E+00  0.00000000000E+00  0.74505805969E-08  0.10566000000E+00  0.10566000000E+00 0. -1.
     999900   -1    0    0    0    0 -0.00000000000E+00 -0.00000000000E+00 -0.74505805969E-08  0.93827000000E+00  0.93827000000E+00 0.  1.
     999902    2    1    2    0    0 -0.22999861348E-01  0.31673730415E-02  0.14544212970E-02  0.10206675578E+01  0.10204024316E+01 0.  0.
     999903    2    3    3    0    0  0.40472112874E-01  0.17597812244E-01  0.12094540862E+00  0.13020979627E+00  0.19471113515E-01 0.  0.
         14    1    1    2    0    0  0.22999861348E-01 -0.31673730415E-02 -0.14544212970E-02  0.23262442162E-01  0.00000000000E+00 0. -1.
     999901    1    3    3    0    0 -0.63471974222E-01 -0.14430439202E-01 -0.11949098732E+00  0.89045776157E+00  0.88000000000E+00 0.  1.
        -11    1    4    4    0    0  0.31966826891E-01  0.11174479652E-01  0.65402212030E-01  0.73650916331E-01  0.51100000000E-03 0.  1.
         11    1    4    4    0    0  0.85052859828E-02  0.64233325918E-02  0.55543196591E-01  0.56558879938E-01  0.51100000000E-03 0. -1.
</event>
<event>
 8    1  0.1122465E+005  0.1043930E+01  0.7957747E-01            NaN
         13   -1    0    0    0    0  0.00000000000E+00  0.00000000000E+00  0.74505805969E-08  0.10566000000E+00  0.10566000000E+00 0.  1.
     999900   -1    0    0    0    0 -0.00000000000E+00 -0.00000000000E+00 -0.74505805969E-08  0.93827000000E+00  0.93827000000E+00 0. -1.
     999902    2    1    2    0    0 -0.82863451255E-02  0.95922743418E-02 -0.18838488021E-01  0.10212239683E+01  0.10209715127E+01 0.  0.
     999903    2    3    3    0    0  0.94721314613E-01  0.49329536978E-01  0.70790503554E-01  0.12980768841E+00  0.20813695393E-01 0.  0.
         14    1    1    2    0    0  0.82863451255E-02 -0.95922743418E-02  0.18838488021E-01  0.22706031655E-01  0.00000000000E+00 0.  1.
     999901    1    3    3    0    0 -0.10300765974E+00 -0.39737262636E-01 -0.89628991575E-01  0.89141627994E+00  0.88000000000E+00 0. -1.
        -11    1    4    4    0    0  0.46662822139E-01  0.26703899745E-01  0.47738478136E-01  0.71900908529E-01  0.51100000000E-03 0.  1.
         11    1    4    4    0    0  0.48058492473E-01  0.22625637234E-01  0.23052025418E-01  0.57906779879E-01  0.51100000000E-03 0. -1.
</event>
<event>
 8    1  0.1122465E+005  0.1043930E+01  0.7957747E-01            NaN
         13   -1    0    0    0    0  0.00000000000E+00  0.00000000000E+00  0.74505805969E-08  0.10566000000E+00  0.10566000000E+00 0. -1.
     999900   -1    0    0    0    0 -0.00000000000E+00 -0.00000000000E+00 -0.74505805969E-08  0.93827000000E+00  0.93827000000E+00 0. -1.
     999902    2    1    2    0    0  0.20325039495E-01 -0.21083453200E-02 -0.68547654066E-02  0.10223768063E+01  0.10221495947E+01 0.  0.
     999903    2    3    3    0    0 -0.61878158068E-01 -0.10547787533E+00  0.42869906223E-01  0.13113319852E+00  0.20089755200E-01 0.  0.
         14    1    1    2    0    0 -0.20325039495E-01  0.21083453200E-02  0.68547654066E-02  0.21553193714E-01  0.00000000000E+00 0.  1.
     999901    1    3    3    0    0  0.82203197563E-01  0.10336953001E+00 -0.49724671629E-01  0.89124360777E+00  0.88000000000E+00 0. -1.
        -11    1    4    4    0    0 -0.52341621465E-01 -0.83669146484E-01  0.42140722025E-01  0.10731389931E+00  0.51100000000E-03 0. -1.
         11    1    4    4    0    0 -0.95365366026E-02 -0.21808728843E-01  0.72918419748E-03  0.23819299207E-01  0.51100000000E-03 0.  1.
</event>
<event>
 8    1  0.1122465E+005  0.1043930E+01  0.7957747E-01            NaN
         13   -1    0    0    0    0  0.00000000000E+00  0.00000000000E+00  0.74505805969E-08  0.10566000000E+00  0.10566000000E+00 0. -1.
     999900   -1    0    0    0    0 -0.00000000000E+00 -0.00000000000E+00 -0.74505805969E-08  0.93827000000E+00  0.93827000000E+00 0. -1.
     999902    2    1    2    0    0 -0.16638840299E-01 -0.16026257738E-01  0.30516968583E-02  0.10206275367E+01  0.10203614868E+01 0.  0.
     999903    2    3    3    0    0 -0.45177769448E-01  0.80432827383E-01  0.89965050359E-01  0.13064284208E+00  0.21526061606E-01 0.  0.
         14    1    1    2    0    0  0.16638840299E-01  0.16026257738E-01 -0.30516968583E-02  0.23302463331E-01  0.00000000000E+00 0.  1.
     999901    1    3    3    0    0  0.28538929149E-01 -0.96459085121E-01 -0.86913353501E-01  0.88998469459E+00  0.88000000000E+00 0. -1.
        -11    1    4    4    0    0 -0.11964898553E-01  0.88796996863E-02  0.81527460393E-02  0.16992240961E-01  0.51100000000E-03 0.  1.
         11    1    4    4    0    0 -0.33212870896E-01  0.71553127697E-01  0.81812304320E-01  0.11365060112E+00  0.51100000000E-03 0. -1.
</event>
<event>
 8    1  0.1122465E+005  0.1043930E+01  0.7957747E-01            NaN
         13   -1    0    0    0    0  0.00000000000E+00  0.00000000000E+00  0.74505805969E-08  0.10566000000E+00  0.10566000000E+00 0. -1.
     999900   -1    0    0    0    0 -0.00000000000E+00 -0.00000000000E+00 -0.74505805969E-08  0.93827000000E+00  0.93827000000E+00 0. -1.
     999902    2    1    2    0    0  0.19236620656E-01 -0.93422806318E-02  0.78441360923E-02  0.10211515836E+01  0.10208974975E+01 0.  0.
     999903    2    3    3    0    0  0.12189979308E+00 -0.36704262922E-01  0.37428051726E-01  0.13426736733E+00  0.20496448591E-01 0.  0.
         14    1    1    2    0    0 -0.19236620656E-01  0.93422806318E-02 -0.78441360923E-02  0.22778416378E-01  0.00000000000E+00 0.  1.
     999901    1    3    3    0    0 -0.10266317242E+00  0.27361982290E-01 -0.29583915634E-01  0.88688421629E+00  0.88000000000E+00 0.  1.
        -11    1    4    4    0    0  0.98112041553E-01 -0.29941892197E-01  0.38349781600E-01  0.10951464046E+00  0.51100000000E-03 0. -1.
         11    1    4    4    0    0  0.23787751522E-01 -0.67623707246E-02 -0.92172987342E-03  0.24752726865E-01  0.51100000000E-03 0.  1.
</event>
<event>
 8    1  0.1122465E+005  0.1043930E+01  0.7957747E-01            NaN
         13   -1    0    0    0    0  0.00000000000E+00  0.00000000000E+00  0.74505805969E-08  0.10566000000E+00  0.10566000000E+00 0.  1.
     999900   -1    0    0    0    0 -0.00000000000E+00 -0.00000000000E+00 -0.74505805969E-08  0.93827000000E+00  0.93827000000E+00 0.  1.
     999902    2    1    2    0    0 -0.19275202526E-01  0.11523598393E-01  0.83488523635E-02  0.10199710750E+01  0.10196896409E+01 0.  0.
     999903    2    3    3    0    0 -0.28464115737E-02  0.12876649868E+00 -0.18517213038E-01  0.13163691020E+00  0.19911697784E-01 0.  0.
         14    1    1    2    0    0  0.19275202526E-01 -0.11523598393E-01 -0.83488523635E-02  0.23958925021E-01  0.00000000000E+00 0. -1.
     999901    1    3    3    0    0 -0.16428790953E-01 -0.11724290028E+00  0.26866065401E-01  0.88833416478E+00  0.88000000000E+00 0.  1.
        -11    1    4    4    0    0  0.64747644402E-02  0.96281305216E-01 -0.14907589803E-01  0.97644813807E-01  0.51100000000E-03 0.  1.
         11    1    4    4    0    0 -0.93211760139E-02  0.32485193461E-01 -0.36096232351E-02  0.33992096396E-01  0.51100000000E-03 0. -1.
</event>
<event>
 8    1  0.1122465E+005  0.1043930E+01  0.7957747E-01            NaN
         13   -1    0    0    0    0  0.00000000000E+00  0.00000000000E+00  0.74505805969E-08  0.10566000000E+00  0.10566000000E+00 0. -1.
     999900   -1    0    0    0    0 -0.00000000000E+00 -0.00000000000E+00 -0.74505805969E-08  0.93827000000E+00  0.93827000000E+00 0.  1.
     999902    2    1    2    0    0 -0.58843238240E-03 -0.15289467854E-01 -0.18582701270E-01  0.10198586297E+01  0.10195745161E+01 0.  0.
     999903    2    3    3    0    0  0.29249721045E-02 -0.84264571276E-02 -0.13093156379E+00  0.13268237226E+00  0.19544228554E-01 0.  0.
         14    1    1    2    0    0  0.58843238240E-03  0.15289467854E-01  0.18582701270E-01  0.24071370265E-01  0.00000000000E+00 0. -1.
     999901    1    3    3    0    0 -0.35134044869E-02 -0.68630107264E-02  0.11234886252E+00  0.88717625748E+00  0.88000000000E+00 0. -1.
        -11    1    4    4    0    0  0.10867169214E-01 -0.78117924199E-02 -0.88295389198E-01  0.89305410487E-01  0.51100000000E-03 0. -1.
         11    1    4    4    0    0 -0.79421971093E-02 -0.61466470776E-03 -0.42636174590E-01  0.43376961768E-01  0.51100000000E-03 0.  1.
</event>
<event>
 8    1  0.1122465E+005  0.1043930E+01  0.7957747E-01            NaN
         13   -1    0    0    0    0  0.00000000000E+00  0.00000000000E+00  0.74505805969E-08  0.10566000000E+00  0.10566000000E+00 0.  1.
     999900   -1    0    0    0    0 -0.00000000000E+00 -0.00000000000E+00 -0.74505805969E-08  0.93827000000E+00  0.93827000000E+00 0. -1.
     999902    2    1    2    0    0 -0.49238783636E-02 -0.49468277068E-02  0.22984378881E-01  0.10199092308E+01  0.10196263245E+01 0.  0.
     999903    2    3    3    0    0  0.36928955176E-01 -0.10860817953E+00  0.62328298045E-01  0.13196481836E+00  0.19246094523E-01 0.  0.
         14    1    1    2    0    0  0.49238783636E-02  0.49468277068E-02 -0.22984378881E-01  0.24020769243E-01  0.00000000000E+00 0. -1.
     999901    1    3    3    0    0 -0.41852833539E-01  0.10366135183E+00 -0.39343919164E-01  0.88794441240E+00  0.88000000000E+00 0.  1.
        -11    1    4    4    0    0  0.23463249027E-01 -0.44478428515E-01  0.33142266871E-01  0.60228943477E-01  0.51100000000E-03 0.  1.
         11    1    4    4    0    0  0.13465706149E-01 -0.64129751020E-01  0.29186031174E-01  0.71735874879E-01  0.51100000000E-03 0. -1.
</event>
<event>
 8    1  0.1122465E+005  0.1043930E+01  0.7957747E-01            NaN
         13   -1    0    0    0    0  0.00000000000E+00  0.00000000000E+00  0.74505805969E-08  0.10566000000E+00  0.10566000000E+00 0. -1.
     999900   -1    0    0    0    0 -0.00000000000E+00 -0.00000000000E+00 -0.74505805969E-08  0.93827000000E+00  0.93827000000E+00 0. -1.
     999902    2    1    2    0    0 -0.11344594656E-01  0.19689917525E-01  0.65103815049E-02  0.10202915198E+01  0.10200176506E+01 0.  0.
     999903    2    3    3    0    0 -0.74213186028E-02  0.11058958701E+00 -0.68514776859E-01  0.13242502283E+00  0.23600408845E-01 0.  0.
         14    1    1    2    0    0  0.11344594656E-01 -0.19689917525E-01 -0.65103815049E-02  0.23638480225E-01  0.00000000000E+00 0. -1.
     999901    1    3    3    0    0 -0.39232760528E-02 -0.90899669490E-01  0.75025158364E-01  0.88786649694E+00  0.88000000000E+00 0.  1.
        -11    1    4    4    0    0  0.51445298842E-02  0.45056134636E-01 -0.37466403197E-01  0.58826133186E-01  0.51100000000E-03 0.  1.
         11    1    4    4    0    0 -0.12565848487E-01  0.65533452378E-01 -0.31048373663E-01  0.73598889645E-01  0.51100000000E-03 0. -1.
</event>
<event>
 8    1  0.1122465E+005  0.1043930E+01  0.7957747E-01            NaN
         13   -1    0    0    0    0  0.00000000000E+00  0.00000000000E+00  0.74505805969E-08  0.10566000000E+00  0.10566000000E+00 0. -1.
     999900   -1    0    0    0    0 -0.00000000000E+00 -0.00000000000E+00 -0.74505805969E-08  0.93827000000E+00  0.93827000000E+00 0. -1.
     999902    2    1    2    0    0 -0.10136900279E-01 -0.20336381876E-01 -0.39113721371E-02  0.10208730269E+01  0.10206126166E+01 0.  0.
     999903    2    3    3    0    0 -0.82008541984E-01 -0.10413588499E+00  0.30268070466E-03  0.13396511297E+00  0.19413304145E-01 0.  0.
         14    1    1    2    0    0  0.10136900279E-01  0.20336381876E-01  0.39113721371E-02  0.23056973068E-01  0.00000000000E+00 0. -1.
     999901    1    3    3    0    0  0.71871641706E-01  0.83799503111E-01 -0.42140528418E-02  0.88690791396E+00  0.88000000000E+00 0. -1.
        -11    1    4    4    0    0 -0.67753556379E-01 -0.94479648177E-01 -0.35361625032E-02  0.11631729832E+00  0.51100000000E-03 0.  1.
         11    1    4    4    0    0 -0.14254985605E-01 -0.96562368097E-02  0.38388432079E-02  0.17647814655E-01  0.51100000000E-03 0. -1.
</event>
<event>
 8    1  0.1122465E+005  0.1043930E+01  0.7957747E-01            NaN
         13   -1    0    0    0    0  0.00000000000E+00  0.00000000000E+00  0.74505805969E-08  0.10566000000E+00  0.10566000000E+00 0. -1.
     999900   -1    0    0    0    0 -0.00000000000E+00 -0.00000000000E+00 -0.74505805969E-08  0.93827000000E+00  0.93827000000E+00 0.  1.
     999902    2    1    2    0    0  0.14170499745E-01 -0.20041149322E-01 -0.18201563105E-01  0.10133727156E+01  0.10129118980E+01 0.  0.
     999903    2    3    3    0    0  0.52344114138E-01  0.57689479216E-01 -0.96578548524E-01  0.12565529026E+00  0.19845746088E-01 0.  0.
         14    1    1    2    0    0 -0.14170499745E-01  0.20041149322E-01  0.18201563105E-01  0.30557284379E-01  0.00000000000E+00 0. -1.
     999901    1    3    3    0    0 -0.38173614393E-01 -0.77730628537E-01  0.78376985419E-01  0.88771742536E+00  0.88000000000E+00 0.  1.
        -11    1    4    4    0    0  0.10325507070E-01  0.68199761008E-02 -0.64724881159E-02  0.13974347701E-01  0.51100000000E-03 0.  1.
         11    1    4    4    0    0  0.42018607068E-01  0.50869503115E-01 -0.90106060408E-01  0.11168094256E+00  0.51100000000E-03 0. -1.
</event>
<event>
 8    1  0.1122465E+005  0.1043930E+01  0.7957747E-01            NaN
         13   -1    0    0    0    0  0.00000000000E+00  0.00000000000E+00  0.74505805969E-08  0.10566000000E+00  0.10566000000E+00 0.  1.
     999900   -1    0    0    0    0 -0.00000000000E+00 -0.00000000000E+00 -0.74505805969E-08  0.93827000000E+00  0.93827000000E+00 0. -1.
     999902    2    1    2    0    0 -0.19838262113E-01 -0.12719508336E-01  0.42607133079E-05  0.10203642928E+01  0.10200921270E+01 0.  0.
     999903    2    3    3    0    0 -0.26192565965E-01 -0.10059651404E+00  0.79586672272E-01  0.13239126085E+00  0.19690058331E-01 0.  0.
         14    1    1    2    0    0  0.19838262113E-01  0.12719508336E-01 -0.42607133079E-05  0.23565707164E-01  0.00000000000E+00 0.  1.
     999901    1    3    3    0    0  0.63543038522E-02  0.87877005703E-01 -0.79582411558E-01  0.88797303199E+00  0.88000000000E+00 0. -1.
        -11    1    4    4    0    0 -0.17439850679E-01 -0.36544065745E-01  0.37917989059E-01  0.55476590992E-01  0.51100000000E-03 0.  1.
         11    1    4    4    0    0 -0.87527152863E-02 -0.64052448294E-01  0.41668683213E-01  0.76914669856E-01  0.51100000000E-03 0. -1.
</event>
<event>
 8    1  0.1122465E+005  0.1043930E+01  0.7957747E-01            NaN
         13   -1    0    0    0    0  0.00000000000E+00  0.00000000000E+00  0.74505805969E-08  0.10566000000E+00  0.10566000000E+00 0. -1.
     999900   -1    0    0    0    0 -0.00000000000E+00 -0.00000000000E+00 -0.74505805969E-08  0.93827000000E+00  0.93827000000E+00 0.  1.
     999902    2    1    2    0    0 -0.27508286521E-01  0.18401616815E-01 -0.37220569946E-02  0.10106256604E+01  0.10100767527E+01 0.  0.
     999903    2    3    3    0    0  0.41678725546E-01  0.10027559541E+00  0.52291317208E-01  0.12235335467E+00  0.21063008959E-01 0.  0.
         14    1    1    2    0    0  0.27508286521E-01 -0.18401616815E-01  0.37220569946E-02  0.33304339612E-01  0.00000000000E+00 0. -1.
     999901    1    3    3    0    0 -0.69187012067E-01 -0.81873978595E-01 -0.56013374203E-01  0.88827230571E+00  0.88000000000E+00 0.  1.
        -11    1    4    4    0    0  0.57700738474E-02  0.17239075970E-01  0.18042902926E-01  0.25618098280E-01  0.51100000000E-03 0. -1.
         11    1    4    4    0    0  0.35908651699E-01  0.83036519440E-01  0.34248414282E-01  0.96735256393E-01  0.51100000000E-03 0.  1.
</event>
<event>
 8    1  0.1122465E+005  0.1043930E+01  0.7957747E-01            NaN
         13   -1    0    0    0    0  0.00000000000E+00  0.00000000000E+00  0.74505805969E-08  0.10566000000E+00  0.10566000000E+00 0. -1.
     999900   -1    0    0    0    0 -0.00000000000E+00 -0.00000000000E+00 -0.74505805969E-08  0.93827000000E+00  0.93827000000E+00 0. -1.
     999902    2    1    2    0    0  0.11212086029E-01  0.14084672665E-01 -0.15307021779E-01  0.10202996426E+01  0.10200259638E+01 0.  0.
     999903    2    3    3    0    0  0.79194310868E-01 -0.92885366554E-01  0.39178769645E-01  0.12955115187E+00  0.18684077904E-01 0.  0.
         14    1    1    2    0    0 -0.11212086029E-01 -0.14084672665E-01  0.15307021779E-01  0.23630357444E-01  0.00000000000E+00 0. -1.
     999901    1    3    3    0    0 -0.67982224840E-01  0.10697003922E+00 -0.54485791424E-01  0.89074849068E+00  0.88000000000E+00 0. -1.
        -11    1    4    4    0    0  0.22360069130E-01 -0.39459117929E-01  0.11626766711E-01  0.46823471726E-01  0.51100000000E-03 0. -1.
         11    1    4    4    0    0  0.56834241738E-01 -0.53426248625E-01  0.27552002934E-01  0.82727680148E-01  0.51100000000E-03 0.  1.
</event>
<event>
 8    1  0.1122465E+005  0.1043930E+01  0.7957747E-01            NaN
         13   -1    0    0    0    0  0.00000000000E+00  0.00000000000E+00  0.74505805969E-08  0.10566000000E+00  0.10566000000E+00 0. -1.
     999900   -1    0    0    0    0 -0.00000000000E+00 -0.00000000000E+00 -0.74505805969E-08  0.93827000000E+00  0.93827000000E+00 0.  1.
     999902    2    1    2    0    0  0.69890845129E-02  0.17624997608E-01  0.13578673493E-01  0.10206090177E+01  0.10203425399E+01 0.  0.
     999903    2    3    3    0    0 -0.73642112308E-01  0.10100676578E+00  0.40163757578E-01  0.13259962816E+00  0.18547412941E-01 0.  0.
         14    1    1    2    0    0 -0.69890845129E-02 -0.17624997608E-01 -0.13578673493E-01  0.23320982330E-01  0.00000000000E+00 0.  1.
     999901    1    3    3    0    0  0.80631196821E-01 -0.83381768170E-01 -0.26585084085E-01  0.88800938951E+00  0.88000000000E+00 0.  1.
        -11    1    4    4    0    0 -0.67464470382E-01  0.80970696628E-01  0.33849749820E-01  0.11069677123E+00  0.51100000000E-03 0. -1.
         11    1    4    4    0    0 -0.61776419260E-02  0.20036069150E-01  0.63140077582E-02  0.21902856931E-01  0.51100000000E-03 0.  1.
</event>
<event>
 8    1  0.1122465E+005  0.1043930E+01  0.7957747E-01            NaN
         13   -1    0    0    0    0  0.00000000000E+00  0.00000000000E+00  0.74505805969E-08  0.10566000000E+00  0.10566000000E+00 0.  1.
     999900   -1    0    0    0    0 -0.00000000000E+00 -0.00000000000E+00 -0.74505805969E-08  0.93827000000E+00  0.93827000000E+00 0.  1.
     999902    2    1    2    0    0 -0.60880827940E-02 -0.19661689586E-01 -0.12410624922E-01  0.10198952252E+01  0.10196119850E+01 0.  0.
     999903    2    3    3    0    0  0.54740834434E-02  0.10572775170E+00  0.67817861228E-01  0.12731872669E+00  0.20061724669E-01 0.  0.
         14    1    1    2    0    0  0.60880827940E-02  0.19661689586E-01  0.12410624922E-01  0.24034774815E-01  0.00000000000E+00 0.  1.
     999901    1    3    3    0    0 -0.11562166237E-01 -0.12538944128E+00 -0.80228486150E-01  0.89257649849E+00  0.88000000000E+00 0.  1.
        -11    1    4    4    0    0  0.73515390879E-02  0.27401640562E-01  0.10560964109E-01  0.30276890797E-01  0.51100000000E-03 0.  1.
         11    1    4    4    0    0 -0.18774556445E-02  0.78326111133E-01  0.57256897119E-01  0.97041835894E-01  0.51100000000E-03 0. -1.
</event>
<event>
 8    1  0.1122465E+005  0.1043930E+01  0.7957747E-01            NaN
         13   -1    0    0    0    0  0.00000000000E+00  0.00000000000E+00  0.74505805969E-08  0.10566000000E+00  0.10566000000E+00 0. -1.
     999900   -1    0    0    0    0 -0.00000000000E+00 -0.00000000000E+00 -0.74505805969E-08  0.93827000000E+00  0.93827000000E+00 0. -1.
     999902    2    1    2    0    0 -0.18935127834E-01 -0.14485908058E-01  0.23717213820E-02  0.10199715848E+01  0.10196901628E+01 0.  0.
     999903    2    3    3    0    0 -0.33538262628E-01  0.11045837606E+00 -0.54677892268E-01  0.12919721148E+00  0.19400506399E-01 0.  0.
         14    1    1    2    0    0  0.18935127834E-01  0.14485908058E-01 -0.23717213820E-02  0.23958415237E-01  0.00000000000E+00 0.  1.
     999901    1    3    3    0    0  0.14603134794E-01 -0.12494428412E+00  0.57049613650E-01  0.89077437328E+00  0.88000000000E+00 0.  1.
        -11    1    4    4    0    0 -0.16422311581E-01  0.77747809688E-01 -0.30787742260E-01  0.85220657257E-01  0.51100000000E-03 0.  1.
         11    1    4    4    0    0 -0.17115951047E-01  0.32710566376E-01 -0.23890150007E-01  0.43976554222E-01  0.51100000000E-03 0. -1.
</event>
<event>
 8    1  0.1122465E+005  0.1043930E+01  0.7957747E-01            NaN
         13   -1    0    0    0    0  0.00000000000E+00  0.00000000000E+00  0.74505805969E-08  0.10566000000E+00  0.10566000000E+00 0. -1.
     999900   -1    0    0    0    0 -0.00000000000E+00 -0.00000000000E+00 -0.74505805969E-08  0.93827000000E+00  0.93827000000E+00 0.  1.
     999902    2    1    2    0    0 -0.18250236494E-01  0.16034953221E-01  0.25656129924E-02  0.10195010576E+01  0.10192083365E+01 0.  0.
     999903    2    3    3    0    0 -0.91806721887E-02 -0.55843418740E-01 -0.11397032371E+00  0.12886679939E+00  0.20362837191E-01 0.  0.
         14    1    1    2    0    0  0.18250236494E-01 -0.16034953221E-01 -0.25656129924E-02  0.24428942403E-01  0.00000000000E+00 0. -1.
     999901    1    3    3    0    0 -0.90695643056E-02  0.71878371960E-01  0.11653593671E+00  0.89063425821E+00  0.88000000000E+00 0. -1.
        -11    1    4    4    0    0  0.18338945685E-02 -0.36879669005E-01 -0.58083675494E-01  0.68829119093E-01  0.51100000000E-03 0.  1.
         11    1    4    4    0    0 -0.11014566757E-01 -0.18963749735E-01 -0.55886648221E-01  0.60037680295E-01  0.51100000000E-03 0. -1.
</event>
<event>
 8    1  0.1122465E+005  0.1043930E+01  0.7957747E-01            NaN
         13   -1    0    0    0    0  0.00000000000E+00  0.00000000000E+00  0.74505805969E-08  0.10566000000E+00  0.10566000000E+00 0.  1.
     999900   -1    0    0    0    0 -0.00000000000E+00 -0.00000000000E+00 -0.74505805969E-08  0.93827000000E+00  0.93827000000E+00 0. -1.
     999902    2    1    2    0    0 -0.20027854596E-01  0.11683287268E-01  0.65853785509E-02  0.10198264448E+01  0.10195415618E+01 0.  0.
     999903    2    3    3    0    0  0.79450878199E-01  0.23523465478E-01 -0.95700774237E-01  0.12825554740E+00  0.20616783792E-01 0.  0.
         14    1    1    2    0    0  0.20027854596E-01 -0.11683287268E-01 -0.65853785509E-02  0.24103555169E-01  0.00000000000E+00 0. -1.
     999901    1    3    3    0    0 -0.99478732796E-01 -0.11840178210E-01  0.10228615279E+00  0.89157089743E+00  0.88000000000E+00 0.  1.
        -11    1    4    4    0    0  0.62950969609E-01  0.14290473978E-01 -0.61431699636E-01  0.89113169971E-01  0.51100000000E-03 0. -1.
         11    1    4    4    0    0  0.16499908590E-01  0.92329915001E-02 -0.34269074601E-01  0.39142377426E-01  0.51100000000E-03 0.  1.
</event>
<event>
 8    1  0.1122465E+005  0.1043930E+01  0.7957747E-01            NaN
         13   -1    0    0    0    0  0.00000000000E+00  0.00000000000E+00  0.74505805969E-08  0.10566000000E+00  0.10566000000E+00 0.  1.
     999900   -1    0    0    0    0 -0.00000000000E+00 -0.00000000000E+00 -0.74505805969E-08  0.93827000000E+00  0.93827000000E+00 0. -1.
     999902    2    1    2    0    0 -0.23283222925E-01 -0.25434220553E-02  0.76504928351E-03  0.10204957779E+01  0.10202266758E+01 0.  0.
     999903    2    3    3    0    0  0.76865770280E-01  0.18616523615E-01  0.99980699713E-01  0.12902434849E+00  0.19905290672E-01 0.  0.
         14    1    1    2    0    0  0.23283222925E-01  0.25434220553E-02 -0.76504928351E-03  0.23434222110E-01  0.00000000000E+00 0. -1.
     999901    1    3    3    0    0 -0.10014899320E+00 -0.21159945670E-01 -0.99215650429E-01  0.89147142940E+00  0.88000000000E+00 0.  1.
        -11    1    4    4    0    0  0.26249935166E-01 -0.73120607111E-03  0.23185019407E-01  0.35034269001E-01  0.51100000000E-03 0. -1.
         11    1    4    4    0    0  0.50615835115E-01  0.19347729686E-01  0.76795680305E-01  0.93990079492E-01  0.51100000000E-03 0.  1.
</event>
<event>
 8    1  0.1122465E+005  0.1043930E+01  0.7957747E-01            NaN
         13   -1    0    0    0    0  0.00000000000E+00  0.00000000000E+00  0.74505805969E-08  0.10566000000E+00  0.10566000000E+00 0.  1.
     999900   -1    0    0    0    0 -0.00000000000E+00 -0.00000000000E+00 -0.74505805969E-08  0.93827000000E+00  0.93827000000E+00 0. -1.
     999902    2    1    2    0    0  0.25823566643E-01  0.49840379191E-02  0.32152188002E-02  0.10174340596E+01  0.10170889984E+01 0.  0.
     999903    2    3    3    0    0  0.88263993282E-01 -0.87259136002E-01 -0.31917731236E-01  0.12971679928E+00  0.20075286347E-01 0.  0.
         14    1    1    2    0    0 -0.25823566643E-01 -0.49840379191E-02 -0.32152188002E-02  0.26495940445E-01  0.00000000000E+00 0.  1.
     999901    1    3    3    0    0 -0.62440426639E-01  0.92243173921E-01  0.35132950036E-01  0.88771726028E+00  0.88000000000E+00 0. -1.
        -11    1    4    4    0    0  0.54797967979E-01 -0.40142501820E-01 -0.17762391667E-01  0.70213968879E-01  0.51100000000E-03 0. -1.
         11    1    4    4    0    0  0.33466025303E-01 -0.47116634183E-01 -0.14155339569E-01  0.59502830399E-01  0.51100000000E-03 0.  1.
</event>
<event>
 8    1  0.1122465E+005  0.1043930E+01  0.7957747E-01            NaN
         13   -1    0    0    0    0  0.00000000000E+00  0.00000000000E+00  0.74505805969E-08  0.10566000000E+00  0.10566000000E+00 0. -1.
     999900   -1    0    0    0    0 -0.00000000000E+00 -0.00000000000E+00 -0.74505805969E-08  0.93827000000E+00  0.93827000000E+00 0.  1.
     999902    2    1    2    0    0 -0.18517374657E-01 -0.24370913944E-03 -0.10056009525E-01  0.10228568919E+01  0.10226397926E+01 0.  0.
     999903    2    3    3    0    0  0.61468660090E-01 -0.16504795488E-01  0.11232972499E+00  0.13064589851E+00  0.19989478077E-01 0.  0.
         14    1    1    2    0    0  0.18517374657E-01  0.24370913944E-03  0.10056009525E-01  0.21073108121E-01  0.00000000000E+00 0. -1.
     999901    1    3    3    0    0 -0.79986034746E-01  0.16261086348E-01 -0.12238573451E+00  0.89221099337E+00  0.88000000000E+00 0.  1.
        -11    1    4    4    0    0  0.16470691995E-01 -0.67770110793E-02  0.50545115654E-01  0.53593669509E-01  0.51100000000E-03 0.  1.
         11    1    4    4    0    0  0.44997968095E-01 -0.97277844084E-02  0.61784609331E-01  0.77052228997E-01  0.51100000000E-03 0. -1.
</event>
<event>
 8    1  0.1122465E+005  0.1043930E+01  0.7957747E-01            NaN
         13   -1    0    0    0    0  0.00000000000E+00  0.00000000000E+00  0.74505805969E-08  0.10566000000E+00  0.10566000000E+00 0. -1.
     999900   -1    0    0    0    0 -0.00000000000E+00 -0.00000000000E+00 -0.74505805969E-08  0.93827000000E+00  0.93827000000E+00 0. -1.
     999902    2    1    2    0    0 -0.20718227920E-01  0.59356302684E-02  0.14630037938E-01  0.10178816856E+01  0.10175483336E+01 0.  0.
     999903    2    3    3    0    0  0.83108105162E-01  0.84084743369E-01 -0.39840264817E-01  0.12667227964E+00  0.21941251526E-01 0.  0.
         14    1    1    2    0    0  0.20718227920E-01 -0.59356302684E-02 -0.14630037938E-01  0.26048314435E-01  0.00000000000E+00 0.  1.
     999901    1    3    3    0    0 -0.10382633308E+00 -0.78149113101E-01  0.54470302755E-01  0.89120940592E+00  0.88000000000E+00 0. -1.
        -11    1    4    4    0    0  0.13185304440E-01  0.20441714567E-01 -0.70126361135E-03  0.24340682802E-01  0.51100000000E-03 0.  1.
         11    1    4    4    0    0  0.69922800722E-01  0.63643028802E-01 -0.39139001205E-01  0.10233159684E+00  0.51100000000E-03 0. -1.
</event>
<event>
 8    1  0.1122465E+005  0.1043930E+01  0.7957747E-01            NaN
         13   -1    0    0    0    0  0.00000000000E+00  0.00000000000E+00  0.74505805969E-08  0.10566000000E+00  0.10566000000E+00 0. -1.
     999900   -1    0    0    0    0 -0.00000000000E+00 -0.00000000000E+00 -0.74505805969E-08  0.93827000000E+00  0.93827000000E+00 0. -1.
     999902    2    1    2    0    0 -0.81882804509E-02 -0.16673475729E-01 -0.16422387776E-01  0.10191358969E+01  0.10188342499E+01 0.  0.
     999903    2    3    3    0    0 -0.80867862322E-01  0.87167674516E-01  0.43138937982E-01  0.12806190576E+00  0.20026709677E-01 0.  0.
         14    1    1    2    0    0  0.81882804509E-02  0.16673475729E-01  0.16422387776E-01  0.24794103127E-01  0.00000000000E+00 0. -1.
     999901    1    3    3    0    0  0.72679581871E-01 -0.10384115024E+00 -0.59561325758E-01  0.89107399111E+00  0.88000000000E+00 0. -1.
        -11    1    4    4    0    0 -0.29213769985E-01  0.33585014480E-01  0.61151566802E-02  0.44933882723E-01  0.51100000000E-03 0.  1.
         11    1    4    4    0    0 -0.51654092337E-01  0.53582660036E-01  0.37023781302E-01  0.83128023040E-01  0.51100000000E-03 0. -1.
</event>
<event>
 8    1  0.1122465E+005  0.1043930E+01  0.7957747E-01            NaN
         13   -1    0    0    0    0  0.00000000000E+00  0.00000000000E+00  0.74505805969E-08  0.10566000000E+00  0.10566000000E+00 0.  1.
     999900   -1    0    0    0    0 -0.00000000000E+00 -0.00000000000E+00 -0.74505805969E-08  0.93827000000E+00  0.93827000000E+00 0. -1.
     999902    2    1    2    0    0 -0.75010057874E-02  0.22793531247E-01  0.67177353801E-02  0.10190113700E+01  0.10187066477E+01 0.  0.
     999903    2    3    3    0    0  0.57265866275E-01  0.56647380125E-01 -0.99538593558E-01  0.12961200059E+00  0.20075706042E-01 0.  0.
         14    1    1    2    0    0  0.75010057874E-02 -0.22793531247E-01 -0.67177353801E-02  0.24918630042E-01  0.00000000000E+00 0. -1.
     999901    1    3    3    0    0 -0.64766872063E-01 -0.33853848878E-01  0.10625632894E+00  0.88939936937E+00  0.88000000000E+00 0.  1.
        -11    1    4    4    0    0  0.11202903639E-01  0.95057196667E-02 -0.32132962594E-01  0.35336272616E-01  0.51100000000E-03 0.  1.
         11    1    4    4    0    0  0.46062962637E-01  0.47141660458E-01 -0.67405630964E-01  0.94275727970E-01  0.51100000000E-03 0. -1.
</event>
<event>
 8    1  0.1122465E+005  0.1043930E+01  0.7957747E-01            NaN
         13   -1    0    0    0    0  0.00000000000E+00  0.00000000000E+00  0.74505805969E-08  0.10566000000E+00  0.10566000000E+00 0.  1.
     999900   -1    0    0    0    0 -0.00000000000E+00 -0.00000000000E+00 -0.74505805969E-08  0.93827000000E+00  0.93827000000E+00 0.  1.
     999902    2    1    2    0    0 -0.16481332323E-01 -0.10601891446E-01 -0.12481501196E-01  0.10206959240E+01  0.10204314513E+01 0.  0.
     999903    2    3    3    0    0  0.11867724110E+00 -0.47490886707E-01  0.58810024462E-02  0.12942390068E+00  0.19398144318E-01 0.  0.
         14    1    1    2    0    0  0.16481332323E-01  0.10601891446E-01  0.12481501196E-01  0.23234076041E-01  0.00000000000E+00 0. -1.
     999901    1    3    3    0    0 -0.13515857342E+00  0.36888995261E-01 -0.18362503642E-01  0.89127202328E+00  0.88000000000E+00 0.  1.
        -11    1    4    4    0    0  0.65075242729E-01 -0.35414814789E-01  0.73754721174E-02  0.74455725318E-01  0.51100000000E-03 0. -1.
         11    1    4    4    0    0  0.53601998368E-01 -0.12076071918E-01 -0.14944696712E-02  0.54968175362E-01  0.51100000000E-03 0.  1.
</event>
<event>
 8    1  0.1122465E+005  0.1043930E+01  0.7957747E-01            NaN
         13   -1    0    0    0    0  0.00000000000E+00  0.00000000000E+00  0.74505805969E-08  0.10566000000E+00  0.10566000000E+00 0. -1.
     999900   -1    0    0    0    0 -0.00000000000E+00 -0.00000000000E+00 -0.74505805969E-08  0.93827000000E+00  0.93827000000E+00 0.  1.
     999902    2    1    2    0    0  0.62536526214E-02  0.15262528216E-01  0.16820960418E-01  0.10203716119E+01  0.10200996171E+01 0.  0.
     999903    2    3    3    0    0  0.37257089171E-01 -0.11838451131E+00 -0.27355599075E-01  0.12864614260E+00  0.19962915456E-01 0.  0.
         14    1    1    2    0    0 -0.62536526214E-02 -0.15262528216E-01 -0.16820960418E-01  0.23558388061E-01  0.00000000000E+00 0.  1.
     999901    1    3    3    0    0 -0.31003436549E-01  0.13364703953E+00  0.44176559493E-01  0.89172546934E+00  0.88000000000E+00 0. -1.
        -11    1    4    4    0    0  0.35086816485E-01 -0.91299202978E-01 -0.15646195511E-01  0.99053993915E-01  0.51100000000E-03 0.  1.
         11    1    4    4    0    0  0.21702726850E-02 -0.27085308336E-01 -0.11709403564E-01  0.29592148689E-01  0.51100000000E-03 0. -1.
</event>
<event>
 8    1  0.1122465E+005  0.1043930E+01  0.7957747E-01            NaN
         13   -1    0    0    0    0  0.00000000000E+00  0.00000000000E+00  0.74505805969E-08  0.10566000000E+00  0.10566000000E+00 0.  1.
     999900   -1    0    0    0    0 -0.00000000000E+00 -0.00000000000E+00 -0.74505805969E-08  0.93827000000E+00  0.93827000000E+00 0.  1.
     999902    2    1    2    0    0  0.19067660610E-01 -0.10111572822E-01 -0.93384352216E-02  0.10204134960E+01  0.10201424787E+01 0.  0.
     999903    2    3    3    0    0 -0.10454562552E+00  0.32650311412E-01 -0.64764341390E-01  0.12902084724E+00  0.21357164060E-01 0.  0.
         14    1    1    2    0    0 -0.19067660610E-01  0.10111572822E-01  0.93384352216E-02  0.23516503960E-01  0.00000000000E+00 0. -1.
     999901    1    3    3    0    0  0.12361328613E+00 -0.42761884234E-01  0.55425906169E-01  0.89139264880E+00  0.88000000000E+00 0. -1.
        -11    1    4    4    0    0 -0.33025442559E-01  0.62104445716E-02 -0.30647684453E-01  0.45483965980E-01  0.51100000000E-03 0.  1.
         11    1    4    4    0    0 -0.71520182964E-01  0.26439866840E-01 -0.34116656938E-01  0.83536881265E-01  0.51100000000E-03 0. -1.
</event>
<event>
 8    1  0.1122465E+005  0.1043930E+01  0.7957747E-01            NaN
         13   -1    0    0    0    0  0.00000000000E+00  0.00000000000E+00  0.74505805969E-08  0.10566000000E+00  0.10566000000E+00 0.  1.
     999900   -1    0    0    0    0 -0.00000000000E+00 -0.00000000000E+00 -0.74505805969E-08  0.93827000000E+00  0.93827000000E+00 0.  1.
     999902    2    1    2    0    0 -0.14071920521E-01 -0.12234551097E-01 -0.15369017907E-01  0.10197657723E+01  0.10194794360E+01 0.  0.
     999903    2    3    3    0    0  0.36501656973E-01  0.87340492602E-01 -0.86453330417E-01  0.12986361166E+00  0.20727920397E-01 0.  0.
         14    1    1    2    0    0  0.14071920521E-01  0.12234551097E-01  0.15369017907E-01  0.24164227675E-01  0.00000000000E+00 0.  1.
     999901    1    3    3    0    0 -0.50573577494E-01 -0.99575043699E-01  0.71084312510E-01  0.88990216066E+00  0.88000000000E+00 0.  1.
        -11    1    4    4    0    0  0.17490692492E-01  0.19496907342E-01 -0.19406267375E-01  0.32602424054E-01  0.51100000000E-03 0.  1.
         11    1    4    4    0    0  0.19010964482E-01  0.67843585260E-01 -0.67047063042E-01  0.97261187608E-01  0.51100000000E-03 0. -1.
</event>
<event>
 8    1  0.1122465E+005  0.1043930E+01  0.7957747E-01            NaN
         13   -1    0    0    0    0  0.00000000000E+00  0.00000000000E+00  0.74505805969E-08  0.10566000000E+00  0.10566000000E+00 0.  1.
     999900   -1    0    0    0    0 -0.00000000000E+00 -0.00000000000E+00 -0.74505805969E-08  0.93827000000E+00  0.93827000000E+00 0.  1.
     999902    2    1    2    0    0  0.12301938911E-01 -0.12760054917E-01  0.16203593768E-01  0.10199151472E+01  0.10196323820E+01 0.  0.
     999903    2    3    3    0    0  0.55747397974E-01 -0.10265194340E+00  0.60754705838E-01  0.13314975486E+00  0.19812346448E-01 0.  0.
         14    1    1    2    0    0 -0.12301938911E-01  0.12760054917E-01 -0.16203593768E-01  0.24014852768E-01  0.00000000000E+00 0. -1.
     999901    1    3    3    0    0 -0.43445459063E-01  0.89891888484E-01 -0.44551112069E-01  0.88676539238E+00  0.88000000000E+00 0.  1.
        -11    1    4    4    0    0  0.54187554345E-01 -0.90611837340E-01  0.58778568401E-01  0.12083864173E+00  0.51100000000E-03 0.  1.
         11    1    4    4    0    0  0.15598436293E-02 -0.12040106061E-01  0.19761374371E-02  0.12311113121E-01  0.51100000000E-03 0. -1.
</event>
<event>
 8    1  0.1122465E+005  0.1043930E+01  0.7957747E-01            NaN
         13   -1    0    0    0    0  0.00000000000E+00  0.00000000000E+00  0.74505805969E-08  0.10566000000E+00  0.10566000000E+00 0.  1.
     999900   -1    0    0    0    0 -0.00000000000E+00 -0.00000000000E+00 -0.74505805969E-08  0.93827000000E+00  0.93827000000E+00 0.  1.
     999902    2    1    2    0    0  0.19737703745E-01 -0.11692424272E-01 -0.77028634685E-03  0.10209760662E+01  0.10207180045E+01 0.  0.
     999903    2    3    3    0    0 -0.95388479029E-01  0.55212288354E-01  0.63418893070E-01  0.12864735478E+00  0.19514793761E-01 0.  0.
         14    1    1    2    0    0 -0.19737703745E-01  0.11692424272E-01  0.77028634685E-03  0.22953933771E-01  0.00000000000E+00 0. -1.
     999901    1    3    3    0    0  0.11512618277E+00 -0.66904712627E-01 -0.64189179417E-01  0.89232871145E+00  0.88000000000E+00 0. -1.
        -11    1    4    4    0    0 -0.59396181553E-01  0.23431226126E-01  0.38248978240E-01  0.74432346452E-01  0.51100000000E-03 0.  1.
         11    1    4    4    0    0 -0.35992297476E-01  0.31781062228E-01  0.25169914830E-01  0.54215008323E-01  0.51100000000E-03 0. -1.
</event>
<event>
 8    1  0.1122465E+005  0.1043930E+01  0.7957747E-01            NaN
         13   -1    0    0    0    0  0.00000000000E+00  0.00000000000E+00  0.74505805969E-08  0.10566000000E+00  0.10566000000E+00 0. -1.
     999900   -1    0    0    0    0 -0.00000000000E+00 -0.00000000000E+00 -0.74505805969E-08  0.93827000000E+00  0.93827000000E+00 0.  1.
     999902    2    1    2    0    0 -0.10804032242E-01  0.65884115814E-02  0.20034448929E-01  0.10202337255E+01  0.10199584998E+01 0.  0.
     999903    2    3    3    0    0 -0.54807709539E-01  0.26568079109E-01  0.11720758807E+00  0.13356686041E+00  0.19817659929E-01 0.  0.
         14    1    1    2    0    0  0.10804032242E-01 -0.65884115814E-02 -0.20034448929E-01  0.23696274470E-01  0.00000000000E+00 0.  1.
     999901    1    3    3    0    0  0.44003677298E-01 -0.19979667527E-01 -0.97173139146E-01  0.88666686512E+00  0.88000000000E+00 0.  1.
        -11    1    4    4    0    0 -0.26397834564E-01  0.21408785648E-01  0.75913831514E-01  0.83176635594E-01  0.51100000000E-03 0. -1.
         11    1    4    4    0    0 -0.28409874975E-01  0.51592934601E-02  0.41293756561E-01  0.50390224816E-01  0.51100000000E-03 0.  1.
</event>
<event>
 8    1  0.1122465E+005  0.1043930E+01  0.7957747E-01            NaN
         13   -1    0    0    0    0  0.00000000000E+00  0.00000000000E+00  0.74505805969E-08  0.10566000000E+00  0.10566000000E+00 0. -1.
     999900   -1    0    0    0    0 -0.00000000000E+00 -0.00000000000E+00 -0.74505805969E-08  0.93827000000E+00  0.93827000000E+00 0. -1.
     999902    2    1    2    0    0 -0.32248749616E-03  0.19756072239E-01  0.13026445368E-01  0.10202636807E+01  0.10199891586E+01 0.  0.
     999903    2    3    3    0    0 -0.58369900095E-01  0.11732144027E+00  0.97932675017E-02  0.13296499563E+00  0.20308037619E-01 0.  0.
         14    1    1    2    0    0  0.32248749616E-03 -0.19756072239E-01 -0.13026445368E-01  0.23666319262E-01  0.00000000000E+00 0.  1.
     999901    1    3    3    0    0  0.58047412598E-01 -0.97565368030E-01  0.32331778663E-02  0.88729868510E+00  0.88000000000E+00 0. -1.
        -11    1    4    4    0    0 -0.43882431136E-01  0.94823382250E-01  0.15413921877E-01  0.10561719411E+00  0.51100000000E-03 0. -1.
         11    1    4    4    0    0 -0.14487468958E-01  0.22498058018E-01 -0.56206543751E-02  0.27347801521E-01  0.51100000000E-03 0.  1.
</event>
<event>
 8    1  0.1122465E+005  0.1043930E+01  0.7957747E-01            NaN
         13   -1    0    0    0    0  0.00000000000E+00  0.00000000000E+00  0.74505805969E-08  0.10566000000E+00  0.10566000000E+00 0. -1.
     999900   -1    0    0    0    0 -0.00000000000E+00 -0.00000000000E+00 -0.74505805969E-08  0.93827000000E+00  0.93827000000E+00 0.  1.
     999902    2    1    2    0    0 -0.51654332141E-03 -0.45514170673E-02  0.22385136012E-01  0.10210810060E+01  0.10208253250E+01 0.  0.
     999903    2    3    3    0    0  0.40603288301E-01  0.23590055911E-01 -0.11805953281E+00  0.12855230163E+00  0.19558200525E-01 0.  0.
         14    1    1    2    0    0  0.51654332141E-03  0.45514170673E-02 -0.22385136012E-01  0.22848994039E-01  0.00000000000E+00 0.  1.
     999901    1    3    3    0    0 -0.41119831623E-01 -0.28141472979E-01  0.14044466882E+00  0.89252870433E+00  0.88000000000E+00 0. -1.
        -11    1    4    4    0    0  0.29398514414E-01  0.22133387125E-01 -0.68949344954E-01  0.78156463366E-01  0.51100000000E-03 0.  1.
         11    1    4    4    0    0  0.11204773887E-01  0.14566687863E-02 -0.49110187858E-01  0.50395838263E-01  0.51100000000E-03 0. -1.
</event>
<event>
 8    1  0.1122465E+005  0.1043930E+01  0.7957747E-01            NaN
         13   -1    0    0    0    0  0.00000000000E+00  0.00000000000E+00  0.74505805969E-08  0.10566000000E+00  0.10566000000E+00 0. -1.
     999900   -1    0    0    0    0 -0.00000000000E+00 -0.00000000000E+00 -0.74505805969E-08  0.93827000000E+00  0.93827000000E+00 0.  1.
     999902    2    1    2    0    0 -0.26223492879E-02 -0.70423028085E-02  0.20059348453E-01  0.10225092576E+01  0.10222848594E+01 0.  0.
     999903    2    3    3    0    0 -0.12990054241E+00 -0.20219385085E-01 -0.46005800062E-02  0.13291300872E+00  0.19019150867E-01 0.  0.
         14    1    1    2    0    0  0.26223492879E-02  0.70423028085E-02 -0.20059348453E-01  0.21420742401E-01  0.00000000000E+00 0.  1.
     999901    1    3    3    0    0  0.12727819312E+00  0.13177082276E-01  0.24659928459E-01  0.88959624888E+00  0.88000000000E+00 0.  1.
        -11    1    4    4    0    0 -0.90569784109E-01 -0.17421639565E-01 -0.11276834572E-01  0.92918391278E-01  0.51100000000E-03 0. -1.
         11    1    4    4    0    0 -0.39330758302E-01 -0.27977455196E-02  0.66762545663E-02  0.39994617446E-01  0.51100000000E-03 0.  1.
</event>
<event>
 8    1  0.1122465E+005  0.1043930E+01  0.7957747E-01            NaN
         13   -1    0    0    0    0  0.00000000000E+00  0.00000000000E+00  0.74505805969E-08  0.10566000000E+00  0.10566000000E+00 0. -1.
     999900   -1    0    0    0    0 -0.00000000000E+00 -0.00000000000E+00 -0.74505805969E-08  0.93827000000E+00  0.93827000000E+00 0. -1.
     999902    2    1    2    0    0  0.13174108491E-01  0.14369277561E-01  0.16614044177E-01  0.10183163369E+01  0.10179941563E+01 0.  0.
     999903    2    3    3    0    0  0.14206532175E-01  0.73966681166E-01  0.10625912968E+00  0.13175604131E+00  0.19893624619E-01 0.  0.
         14    1    1    2    0    0 -0.13174108491E-01 -0.14369277561E-01 -0.16614044177E-01  0.25613663074E-01  0.00000000000E+00 0.  1.
     999901    1    3    3    0    0 -0.10324236843E-02 -0.59597403606E-01 -0.89645085506E-01  0.88656029562E+00  0.88000000000E+00 0. -1.
        -11    1    4    4    0    0  0.15678187932E-01  0.40878431806E-01  0.70687335550E-01  0.83149337290E-01  0.51100000000E-03 0.  1.
         11    1    4    4    0    0 -0.14716557566E-02  0.33088249360E-01  0.35571794133E-01  0.48606704015E-01  0.51100000000E-03 0. -1.
</event>
<event>
 8    1  0.1122465E+005  0.1043930E+01  0.7957747E-01            NaN
         13   -1    0    0    0    0  0.00000000000E+00  0.00000000000E+00  0.74505805969E-08  0.10566000000E+00  0.10566000000E+00 0. -1.
     999900   -1    0    0    0    0 -0.00000000000E+00 -0.00000000000E+00 -0.74505805969E-08  0.93827000000E+00  0.93827000000E+00 0. -1.
     999902    2    1    2    0    0 -0.12670124114E-01 -0.19754016823E-01  0.39271437155E-02  0.10201355535E+01  0.10198580155E+01 0.  0.
     999903    2    3    3    0    0  0.28318950350E-01 -0.95616144172E-01 -0.83676518907E-01  0.13159204400E+00  0.19243083265E-01 0.  0.
         14    1    1    2    0    0  0.12670124114E-01  0.19754016823E-01 -0.39271437155E-02  0.23794446484E-01  0.00000000000E+00 0. -1.
     999901    1    3    3    0    0 -0.40989074464E-01  0.75862127349E-01  0.87603662623E-01  0.88854350951E+00  0.88000000000E+00 0. -1.
        -11    1    4    4    0    0  0.43776908736E-02 -0.28487097562E-01 -0.14495416424E-01  0.32265416830E-01  0.51100000000E-03 0.  1.
         11    1    4    4    0    0  0.23941259476E-01 -0.67129046610E-01 -0.69181102483E-01  0.99326627174E-01  0.51100000000E-03 0. -1.
</event>
<event>
 8    1  0.1122465E+005  0.1043930E+01  0.7957747E-01            NaN
         13   -1    0    0    0    0  0.00000000000E+00  0.00000000000E+00  0.74505805969E-08  0.10566000000E+00  0.10566000000E+00 0. -1.
     999900   -1    0    0    0    0 -0.00000000000E+00 -0.00000000000E+00 -0.74505805969E-08  0.93827000000E+00  0.93827000000E+00 0. -1.
     999902    2    1    2    0    0 -0.17408804791E-01 -0.67913548351E-02  0.14399250242E-01  0.10203391672E+01  0.10200664139E+01 0.  0.
     999903    2    3    3    0    0  0.66993699453E-01  0.73917991198E-01 -0.77379533875E-01  0.12789245928E+00  0.20417239992E-01 0.  0.
         14    1    1    2    0    0  0.17408804791E-01  0.67913548351E-02 -0.14399250242E-01  0.23590832802E-01  0.00000000000E+00 0.  1.
     999901    1    3    3    0    0 -0.84402504244E-01 -0.80709346033E-01  0.91778784117E-01  0.89244670792E+00  0.88000000000E+00 0.  1.
        -11    1    4    4    0    0  0.15439737686E-01  0.92608591870E-02 -0.21689214106E-01  0.28192767552E-01  0.51100000000E-03 0.  1.
         11    1    4    4    0    0  0.51553961767E-01  0.64657132011E-01 -0.55690319769E-01  0.99699691728E-01  0.51100000000E-03 0. -1.
</event>
<event>
 8    1  0.1122465E+005  0.1043930E+01  0.7957747E-01            NaN
         13   -1    0    0    0    0  0.00000000000E+00  0.00000000000E+00  0.74505805969E-08  0.10566000000E+00  0.10566000000E+00 0.  1.
     999900   -1    0    0    0    0 -0.00000000000E+00 -0.00000000000E+00 -0.74505805969E-08  0.93827000000E+00  0.93827000000E+00 0. -1.
     999902    2    1    2    0    0  0.22076349266E-01 -0.71959644248E-02 -0.18370308870E-02  0.10206379030E+01  0.10203720925E+01 0.  0.
     999903    2    3    3    0    0 -0.15365947200E-01 -0.40903579504E-01 -0.12181460795E+00  0.13106904793E+00  0.20762501430E-01 0.  0.
         14    1    1    2    0    0 -0.22076349266E-01  0.71959644248E-02  0.18370308870E-02  0.23292097016E-01  0.00000000000E+00 0.  1.
     999901    1    3    3    0    0  0.37442296466E-01  0.33707615079E-01  0.11997757707E+00  0.88956885505E+00  0.88000000000E+00 0.  1.
        -11    1    4    4    0    0 -0.54724450383E-02 -0.34770521788E-01 -0.75374680419E-01  0.83189785487E-01  0.51100000000E-03 0. -1.
         11    1    4    4    0    0 -0.98935021616E-02 -0.61330577161E-02 -0.46439927534E-01  0.47879262446E-01  0.51100000000E-03 0.  1.
</event>
<event>
 8    1  0.1122465E+005  0.1043930E+01  0.7957747E-01            NaN
         13   -1    0    0    0    0  0.00000000000E+00  0.00000000000E+00  0.74505805969E-08  0.10566000000E+00  0.10566000000E+00 0. -1.
     999900   -1    0    0    0    0 -0.00000000000E+00 -0.00000000000E+00 -0.74505805969E-08  0.93827000000E+00  0.93827000000E+00 0.  1.
     999902    2    1    2    0    0 -0.15592433959E-01 -0.17553075800E-01  0.20437773746E-02  0.10203628302E+01  0.10200906302E+01 0.  0.
     999903    2    3    3    0    0  0.10158351961E+00 -0.11343182868E-01  0.76805737702E-01  0.12943179045E+00  0.20139210037E-01 0.  0.
         14    1    1    2    0    0  0.15592433959E-01  0.17553075800E-01 -0.20437773746E-02  0.23567169808E-01  0.00000000000E+00 0.  1.
     999901    1    3    3    0    0 -0.11717595357E+00 -0.62098929317E-02 -0.74761960327E-01  0.89093103974E+00  0.88000000000E+00 0.  1.
        -11    1    4    4    0    0  0.78980410084E-01 -0.47699901868E-02  0.67876795852E-01  0.10425055645E+00  0.51100000000E-03 0.  1.
         11    1    4    4    0    0  0.22603109527E-01 -0.65731926817E-02  0.89289418493E-02  0.25181234002E-01  0.51100000000E-03 0. -1.
</event>
<event>
 8    1  0.1122465E+005  0.1043930E+01  0.7957747E-01            NaN
         13   -1    0    0    0    0  0.00000000000E+00  0.00000000000E+00  0.74505805969E-08  0.10566000000E+00  0.10566000000E+00 0. -1.
     999900   -1    0    0    0    0 -0.00000000000E+00 -0.00000000000E+00 -0.74505805969E-08  0.93827000000E+00  0.93827000000E+00 0. -1.
     999902    2    1    2    0    0 -0.13969660640E-01  0.18766274227E-01  0.15007043181E-02  0.10204869503E+01  0.10202176430E+01 0.  0.
     999903    2    3    3    0    0  0.68684924637E-01  0.58924958853E-01 -0.92288196530E-01  0.13074493242E+00  0.19681374119E-01 0.  0.
         14    1    1    2    0    0  0.13969660640E-01 -0.18766274227E-01 -0.15007043181E-02  0.23443049720E-01  0.00000000000E+00 0.  1.
     999901    1    3    3    0    0 -0.82654585276E-01 -0.40158684626E-01  0.93788900848E-01  0.88974201786E+00  0.88000000000E+00 0. -1.
        -11    1    4    4    0    0  0.41603185408E-01  0.37951052404E-01 -0.70145377930E-01  0.89954113750E-01  0.51100000000E-03 0.  1.
         11    1    4    4    0    0  0.27081739229E-01  0.20973906449E-01 -0.22142818600E-01  0.40790818673E-01  0.51100000000E-03 0. -1.
</event>
<event>
 8    1  0.1122465E+005  0.1043930E+01  0.7957747E-01            NaN
         13   -1    0    0    0    0  0.00000000000E+00  0.00000000000E+00  0.74505805969E-08  0.10566000000E+00  0.10566000000E+00 0. -1.
     999900   -1    0    0    0    0 -0.00000000000E+00 -0.00000000000E+00 -0.74505805969E-08  0.93827000000E+00  0.93827000000E+00 0. -1.
     999902    2    1    2    0    0  0.75313212507E-03 -0.17034650028E-01 -0.13959642475E-01  0.10218932551E+01  0.10216556204E+01 0.  0.
     999903    2    3    3    0    0  0.84639232683E-01 -0.65571672190E-01  0.74889857367E-01  0.13212533363E+00  0.19625726649E-01 0.  0.
         14    1    1    2    0    0 -0.75313212507E-03  0.17034650028E-01  0.13959642475E-01  0.22036744942E-01  0.00000000000E+00 0.  1.
     999901    1    3    3    0    0 -0.83886100558E-01  0.48537022162E-01 -0.88849499842E-01  0.88976792143E+00  0.88000000000E+00 0. -1.
        -11    1    4    4    0    0  0.76378800475E-01 -0.58993318864E-01  0.59246803748E-01  0.11324476901E+00  0.51100000000E-03 0.  1.
         11    1    4    4    0    0  0.82604322080E-02 -0.65783533261E-02  0.15643053619E-01  0.18880564617E-01  0.51100000000E-03 0. -1.
</event>
<event>
 8    1  0.1122465E+005  0.1043930E+01  0.7957747E-01            NaN
         13   -1    0    0    0    0  0.00000000000E+00  0.00000000000E+00  0.74505805969E-08  0.10566000000E+00  0.10566000000E+00 0. -1.
     999900   -1    0    0    0    0 -0.00000000000E+00 -0.00000000000E+00 -0.74505805969E-08  0.93827000000E+00  0.93827000000E+00 0. -1.
     999902    2    1    2    0    0  0.19040857261E-01 -0.11636674455E-01  0.84489601985E-02  0.10200689152E+01  0.10197898021E+01 0.  0.
     999903    2    3    3    0    0  0.14438129070E-01  0.12090187313E+00  0.39595640098E-01  0.12958715385E+00  0.19982322962E-01 0.  0.
         14    1    1    2    0    0 -0.19040857261E-01  0.11636674455E-01 -0.84489601985E-02  0.23861084762E-01  0.00000000000E+00 0.  1.
     999901    1    3    3    0    0  0.46027281910E-02 -0.13253854758E+00 -0.31146679900E-01  0.89048176139E+00  0.88000000000E+00 0. -1.
        -11    1    4    4    0    0 -0.36128058609E-02  0.51255981835E-01  0.14591272028E-01  0.53417173085E-01  0.51100000000E-03 0. -1.
         11    1    4    4    0    0  0.18050934931E-01  0.69645891291E-01  0.25004368071E-01  0.76169980761E-01  0.51100000000E-03 0.  1.
</event>
<event>
 8    1  0.1122465E+005  0.1043930E+01  0.7957747E-01            NaN
         13   -1    0    0    0    0  0.00000000000E+00  0.00000000000E+00  0.74505805969E-08  0.10566000000E+00  0.10566000000E+00 0.  1.
     999900   -1    0    0    0    0 -0.00000000000E+00 -0.00000000000E+00 -0.74505805969E-08  0.93827000000E+00  0.93827000000E+00 0. -1.
     999902    2    1    2    0    0 -0.22523634623E-01 -0.15428580901E-01  0.58692248456E-02  0.10160050465E+01  0.10156212146E+01 0.  0.
     999903    2    3    3    0    0  0.69074045034E-01 -0.96928569883E-01  0.38903902671E-01  0.12689106450E+00  0.20529424021E-01 0.  0.
         14    1    1    2    0    0  0.22523634623E-01  0.15428580901E-01 -0.58692248456E-02  0.27924953457E-01  0.00000000000E+00 0. -1.
     999901    1    3    3    0    0 -0.91597679656E-01  0.81499988981E-01 -0.33034677826E-01  0.88911398204E+00  0.88000000000E+00 0. -1.
        -11    1    4    4    0    0  0.10877986130E-01 -0.12717617135E-01  0.13274109072E-01  0.21366596839E-01  0.51100000000E-03 0. -1.
         11    1    4    4    0    0  0.58196058904E-01 -0.84210952748E-01  0.25629793599E-01  0.10552446766E+00  0.51100000000E-03 0.  1.
</event>
<event>
 8    1  0.1122465E+005  0.1043930E+01  0.7957747E-01            NaN
         13   -1    0    0    0    0  0.00000000000E+00  0.00000000000E+00  0.74505805969E-08  0.10566000000E+00  0.10566000000E+00 0. -1.
     999900   -1    0    0    0    0 -0.00000000000E+00 -0.00000000000E+00 -0.74505805969E-08  0.93827000000E+00  0.93827000000E+00 0. -1.
     999902    2    1    2    0    0 -0.12379164307E-01  0.20337530172E-01  0.26237453444E-02  0.10199770694E+01  0.10196957778E+01 0.  0.
     999903    2    3    3    0    0 -0.39467223052E-01 -0.42421571742E-01  0.11483620207E+00  0.13022198896E+00  0.20326378427E-01 0.  0.
         14    1    1    2    0    0  0.12379164307E-01 -0.20337530172E-01 -0.26237453444E-02  0.23952930553E-01  0.00000000000E+00 0.  1.
     999901    1    3    3    0    0  0.27088058745E-01  0.62759101914E-01 -0.11221245672E+00  0.88975508048E+00  0.88000000000E+00 0. -1.
        -11    1    4    4    0    0 -0.34752290713E-02 -0.14389907660E-01  0.39024116615E-01  0.41740740987E-01  0.51100000000E-03 0.  1.
         11    1    4    4    0    0 -0.35991993981E-01 -0.28031664083E-01  0.75812085454E-01  0.88481247978E-01  0.51100000000E-03 0. -1.
</event>
<event>
 8    1  0.1122465E+005  0.1043930E+01  0.7957747E-01            NaN
         13   -1    0    0    0    0  0.00000000000E+00  0.00000000000E+00  0.74505805969E-08  0.10566000000E+00  0.10566000000E+00 0. -1.
     999900   -1    0    0    0    0 -0.00000000000E+00 -0.00000000000E+00 -0.74505805969E-08  0.93827000000E+00  0.93827000000E+00 0.  1.
     999902    2    1    2    0    0 -0.40477441067E-02  0.22050701889E-01 -0.39760756856E-02  0.10211610109E+01  0.10209071375E+01 0.  0.
     999903    2    3    3    0    0  0.40830423398E-01 -0.11773086764E+00  0.37663541446E-03  0.12898844734E+00  0.33319619200E-01 0.  0.
         14    1    1    2    0    0  0.40477441067E-02 -0.22050701889E-01  0.39760756856E-02  0.22768989086E-01  0.00000000000E+00 0.  1.
     999901    1    3    3    0    0 -0.44878167505E-01  0.13978156953E+00 -0.43527111000E-02  0.89217256357E+00  0.88000000000E+00 0. -1.
        -11    1    4    4    0    0  0.76336407734E-02 -0.21901731887E-01 -0.13158967635E-01  0.26671668139E-01  0.51100000000E-03 0.  1.
         11    1    4    4    0    0  0.33196782625E-01 -0.95829135750E-01  0.13535603049E-01  0.10231677920E+00  0.51100000000E-03 0. -1.
</event>
<event>
 8    1  0.1122465E+005  0.1043930E+01  0.7957747E-01            NaN
         13   -1    0    0    0    0  0.00000000000E+00  0.00000000000E+00  0.74505805969E-08  0.10566000000E+00  0.10566000000E+00 0.  1.
     999900   -1    0    0    0    0 -0.00000000000E+00 -0.00000000000E+00 -0.74505805969E-08  0.93827000000E+00  0.93827000000E+00 0. -1.
     999902    2    1    2    0    0  0.17219417307E-01  0.12220503561E-01 -0.12771528580E-01  0.10192528652E+01  0.10189540923E+01 0.  0.
     999903    2    3    3    0    0  0.10029867824E+00 -0.80133742377E-01 -0.11964576502E-01  0.13052786751E+00  0.20325638540E-01 0.  0.
         14    1    1    2    0    0 -0.17219417307E-01 -0.12220503561E-01  0.12771528580E-01  0.24677134800E-01  0.00000000000E+00 0. -1.
     999901    1    3    3    0    0 -0.83079260937E-01  0.92354245939E-01 -0.80695207832E-03  0.88872499769E+00  0.88000000000E+00 0. -1.
        -11    1    4    4    0    0  0.91230198518E-01 -0.71106653354E-01 -0.46112856415E-02  0.11576109169E+00  0.51100000000E-03 0. -1.
         11    1    4    4    0    0  0.90684797247E-02 -0.90270890230E-02 -0.73532908606E-02  0.14766775824E-01  0.51100000000E-03 0.  1.
</event>
<event>
 8    1  0.1122465E+005  0.1043930E+01  0.7957747E-01            NaN
         13   -1    0    0    0    0  0.00000000000E+00  0.00000000000E+00  0.74505805969E-08  0.10566000000E+00  0.10566000000E+00 0.  1.
     999900   -1    0    0    0    0 -0.00000000000E+00 -0.00000000000E+00 -0.74505805969E-08  0.93827000000E+00  0.93827000000E+00 0. -1.
     999902    2    1    2    0    0  0.19840165924E-01 -0.11847169898E-01 -0.76459518136E-03  0.10208091820E+01  0.10205473109E+01 0.  0.
     999903    2    3    3    0    0 -0.52557847996E-01 -0.79155095489E-01  0.87945399273E-01  0.13084216443E+00  0.18905613251E-01 0.  0.
         14    1    1    2    0    0 -0.19840165924E-01  0.11847169898E-01  0.76459518136E-03  0.23120817985E-01  0.00000000000E+00 0.  1.
     999901    1    3    3    0    0  0.72398013920E-01  0.67307925591E-01 -0.88709994455E-01  0.88996701758E+00  0.88000000000E+00 0. -1.
        -11    1    4    4    0    0 -0.31543379079E-01 -0.32141908339E-01  0.35571519189E-01  0.57390601441E-01  0.51100000000E-03 0. -1.
         11    1    4    4    0    0 -0.21014468917E-01 -0.47013187150E-01  0.52373880084E-01  0.73451562992E-01  0.51100000000E-03 0.  1.
</event>
<event>
 8    1  0.1122465E+005  0.1043930E+01  0.7957747E-01            NaN
         13   -1    0    0    0    0  0.00000000000E+00  0.00000000000E+00  0.74505805969E-08  0.10566000000E+00  0.10566000000E+00 0. -1.
     999900   -1    0    0    0    0 -0.00000000000E+00 -0.00000000000E+00 -0.74505805969E-08  0.93827000000E+00  0.93827000000E+00 0. -1.
     999902    2    1    2    0    0  0.34521955910E-02  0.23041502817E-01  0.43371774635E-02  0.10202310630E+01  0.10199557747E+01 0.  0.
     999903    2    3    3    0    0 -0.79324442489E-01  0.18396532067E-01 -0.99661379999E-01  0.13023710374E+00  0.19962789380E-01 0.  0.
         14    1    1    2    0    0 -0.34521955910E-02 -0.23041502817E-01 -0.43371774635E-02  0.23698936997E-01  0.00000000000E+00 0.  1.
     999901    1    3    3    0    0  0.82776638080E-01  0.46449707499E-02  0.10399855746E+00  0.88999395926E+00  0.88000000000E+00 0. -1.
        -11    1    4    4    0    0 -0.68958097218E-01  0.11218480133E-01 -0.91824759513E-01  0.11538249888E+00  0.51100000000E-03 0. -1.
         11    1    4    4    0    0 -0.10366345271E-01  0.71780519337E-02 -0.78366204861E-02  0.14854604858E-01  0.51100000000E-03 0.  1.
</event>
<event>
 8    1  0.1122465E+005  0.1043930E+01  0.7957747E-01            NaN
         13   -1    0    0    0    0  0.00000000000E+00  0.00000000000E+00  0.74505805969E-08  0.10566000000E+00  0.10566000000E+00 0.  1.
     999900   -1    0    0    0    0 -0.00000000000E+00 -0.00000000000E+00 -0.74505805969E-08  0.93827000000E+00  0.93827000000E+00 0. -1.
     999902    2    1    2    0    0  0.15440076023E-02 -0.32792323184E-01 -0.49422495168E-02  0.10107314119E+01  0.10101860427E+01 0.  0.
     999903    2    3    3    0    0  0.12208835729E-01 -0.85406117320E-01 -0.88382498171E-01  0.12515576582E+00  0.20229661147E-01 0.  0.
         14    1    1    2    0    0 -0.15440076023E-02  0.32792323184E-01  0.49422495168E-02  0.33198588066E-01  0.00000000000E+00 0.  1.
     999901    1    3    3    0    0 -0.10664828126E-01  0.52613794136E-01  0.83440248654E-01  0.88557564611E+00  0.88000000000E+00 0.  1.
        -11    1    4    4    0    0 -0.24012371403E-02 -0.17188561951E-01 -0.27695500546E-01  0.32688139642E-01  0.51100000000E-03 0.  1.
         11    1    4    4    0    0  0.14610072869E-01 -0.68217555368E-01 -0.60686997625E-01  0.92467626180E-01  0.51100000000E-03 0. -1.
</event>
<event>
 8    1  0.1122465E+005  0.1043930E+01  0.7957747E-01            NaN
         13   -1    0    0    0    0  0.00000000000E+00  0.00000000000E+00  0.74505805969E-08  0.10566000000E+00  0.10566000000E+00 0. -1.
     999900   -1    0    0    0    0 -0.00000000000E+00 -0.00000000000E+00 -0.74505805969E-08  0.93827000000E+00  0.93827000000E+00 0. -1.
     999902    2    1    2    0    0  0.29158907020E-02  0.17747309831E-01  0.14991031425E-01  0.10205163192E+01  0.10202476941E+01 0.  0.
     999903    2    3    3    0    0 -0.20467606969E-01 -0.10582255722E+00  0.69692458017E-01  0.12989375826E+00  0.19950267671E-01 0.  0.
         14    1    1    2    0    0 -0.29158907020E-02 -0.17747309831E-01 -0.14991031425E-01  0.23413680787E-01  0.00000000000E+00 0.  1.
     999901    1    3    3    0    0  0.23383497671E-01  0.12356986705E+00 -0.54701426592E-01  0.89062256095E+00  0.88000000000E+00 0. -1.
        -11    1    4    4    0    0 -0.61682286382E-02 -0.27444098328E-01  0.29097752584E-01  0.40474262242E-01  0.51100000000E-03 0. -1.
         11    1    4    4    0    0 -0.14299378331E-01 -0.78378458887E-01  0.40594705433E-01  0.89419496019E-01  0.51100000000E-03 0.  1.
</event>
<event>
 8    1  0.1122465E+005  0.1043930E+01  0.7957747E-01            NaN
         13   -1    0    0    0    0  0.00000000000E+00  0.00000000000E+00  0.74505805969E-08  0.10566000000E+00  0.10566000000E+00 0.  1.
     999900   -1    0    0    0    0 -0.00000000000E+00 -0.00000000000E+00 -0.74505805969E-08  0.93827000000E+00  0.93827000000E+00 0. -1.
     999902    2    1    2    0    0 -0.13509360528E-01  0.19654754540E-01 -0.87138095347E-04  0.10200800568E+01  0.10198012073E+01 0.  0.
     999903    2    3    3    0    0  0.60271938383E-02  0.23893310976E-01 -0.12686024507E+00  0.13077073886E+00  0.20006173733E-01 0.  0.
         14    1    1    2    0    0  0.13509360528E-01 -0.19654754540E-01  0.87138095347E-04  0.23849943206E-01  0.00000000000E+00 0.  1.
     999901    1    3    3    0    0 -0.19536554366E-01 -0.42385564365E-02  0.12677310697E+00  0.88930931794E+00  0.88000000000E+00 0.  1.
        -11    1    4    4    0    0 -0.20975452856E-02  0.21554609804E-01 -0.69769061297E-01  0.73054664021E-01  0.51100000000E-03 0. -1.
         11    1    4    4    0    0  0.81247391239E-02  0.23387011722E-02 -0.57091183772E-01  0.57716074836E-01  0.51100000000E-03 0.  1.
</event>
<event>
 8    1  0.1122465E+005  0.1043930E+01  0.7957747E-01            NaN
         13   -1    0    0    0    0  0.00000000000E+00  0.00000000000E+00  0.74505805969E-08  0.10566000000E+00  0.10566000000E+00 0. -1.
     999900   -1    0    0    0    0 -0.00000000000E+00 -0.00000000000E+00 -0.74505805969E-08  0.93827000000E+00  0.93827000000E+00 0. -1.
     999902    2    1    2    0    0 -0.18228232396E-02 -0.20261139217E-01  0.14792572829E-01  0.10187773330E+01  0.10184667877E+01 0.  0.
     999903    2    3    3    0    0  0.15033226802E-01 -0.52143487582E-01  0.11686457083E+00  0.13214364124E+00  0.29320177362E-01 0.  0.
         14    1    1    2    0    0  0.18228232396E-02  0.20261139217E-01 -0.14792572829E-01  0.25152667012E-01  0.00000000000E+00 0.  1.
     999901    1    3    3    0    0 -0.16856050042E-01  0.31882348365E-01 -0.10207199800E+00  0.88663369174E+00  0.88000000000E+00 0. -1.
        -11    1    4    4    0    0  0.37421546256E-02 -0.50022273241E-01  0.96256631283E-01  0.10854414645E+00  0.51100000000E-03 0.  1.
         11    1    4    4    0    0  0.11291072177E-01 -0.21212143407E-02  0.20607939547E-01  0.23599494794E-01  0.51100000000E-03 0. -1.
</event>
<event>
 8    1  0.1122465E+005  0.1043930E+01  0.7957747E-01            NaN
         13   -1    0    0    0    0  0.00000000000E+00  0.00000000000E+00  0.74505805969E-08  0.10566000000E+00  0.10566000000E+00 0.  1.
     999900   -1    0    0    0    0 -0.00000000000E+00 -0.00000000000E+00 -0.74505805969E-08  0.93827000000E+00  0.93827000000E+00 0.  1.
     999902    2    1    2    0    0 -0.22329924704E-01  0.27104327220E-02 -0.81443115244E-02  0.10200071700E+01  0.10197265933E+01 0.  0.
     999903    2    3    3    0    0  0.94605310758E-01  0.35666214632E-01  0.75701220097E-01  0.12771237233E+00  0.18908506889E-01 0.  0.
         14    1    1    2    0    0  0.22329924704E-01 -0.27104327220E-02  0.81443115244E-02  0.23922829954E-01  0.00000000000E+00 0.  1.
     999901    1    3    3    0    0 -0.11693523546E+00 -0.32955781910E-01 -0.83845531622E-01  0.89229479771E+00  0.88000000000E+00 0.  1.
        -11    1    4    4    0    0  0.10552081446E-01  0.19551167074E-02  0.19526516450E-02  0.10919838535E-01  0.51100000000E-03 0. -1.
         11    1    4    4    0    0  0.84053229311E-01  0.33711097924E-01  0.73748568452E-01  0.11679253380E+00  0.51100000000E-03 0.  1.
</event>
<event>
 8    1  0.1122465E+005  0.1043930E+01  0.7957747E-01            NaN
         13   -1    0    0    0    0  0.00000000000E+00  0.00000000000E+00  0.74505805969E-08  0.10566000000E+00  0.10566000000E+00 0.  1.
     999900   -1    0    0    0    0 -0.00000000000E+00 -0.00000000000E+00 -0.74505805969E-08  0.93827000000E+00  0.93827000000E+00 0. -1.
     999902    2    1    2    0    0  0.15119349845E-01 -0.18590139590E-01 -0.48333972406E-02  0.10194851691E+01  0.10191920625E+01 0.  0.
     999903    2    3    3    0    0 -0.12163403885E+00 -0.16810631495E-01  0.31049407925E-01  0.12819832879E+00  0.19832020443E-01 0.  0.
         14    1    1    2    0    0 -0.15119349845E-01  0.18590139590E-01  0.48333972406E-02  0.24444830918E-01  0.00000000000E+00 0.  1.
     999901    1    3    3    0    0  0.13675338869E+00 -0.17795080951E-02 -0.35882805165E-01  0.89128684029E+00  0.88000000000E+00 0. -1.
        -11    1    4    4    0    0 -0.95065413173E-01 -0.80402060280E-02  0.30661792419E-01  0.10021219651E+00  0.51100000000E-03 0.  1.
         11    1    4    4    0    0 -0.26568625675E-01 -0.87704254667E-02  0.38761550590E-03  0.27986132278E-01  0.51100000000E-03 0. -1.
</event>
<event>
 8    1  0.1122465E+005  0.1043930E+01  0.7957747E-01            NaN
         13   -1    0    0    0    0  0.00000000000E+00  0.00000000000E+00  0.74505805969E-08  0.10566000000E+00  0.10566000000E+00 0. -1.
     999900   -1    0    0    0    0 -0.00000000000E+00 -0.00000000000E+00 -0.74505805969E-08  0.93827000000E+00  0.93827000000E+00 0. -1.
     999902    2    1    2    0    0 -0.17538913539E-01  0.72970050369E-02  0.44030256598E-02  0.10244300922E+01  0.10242444861E+01 0.  0.
     999903    2    3    3    0    0  0.12693599670E-01 -0.66912629342E-01  0.11367969365E+00  0.13405799868E+00  0.20249612927E-01 0.  0.
         14    1    1    2    0    0  0.17538913539E-01 -0.72970050369E-02 -0.44030256598E-02  0.19499907835E-01  0.00000000000E+00 0.  1.
     999901    1    3    3    0    0 -0.30232513209E-01  0.74209634379E-01 -0.10927666799E+00  0.89037209348E+00  0.88000000000E+00 0. -1.
        -11    1    4    4    0    0  0.37190129376E-02 -0.15596663072E-01  0.12810304016E-01  0.20529295317E-01  0.51100000000E-03 0. -1.
         11    1    4    4    0    0  0.89745867322E-02 -0.51315966270E-01  0.10086938963E+00  0.11352870336E+00  0.51100000000E-03 0.  1.
</event>
<event>
 8    1  0.1122465E+005  0.1043930E+01  0.7957747E-01            NaN
         13   -1    0    0    0    0  0.00000000000E+00  0.00000000000E+00  0.74505805969E-08  0.10566000000E+00  0.10566000000E+00 0. -1.
     999900   -1    0    0    0    0 -0.00000000000E+00 -0.00000000000E+00 -0.74505805969E-08  0.93827000000E+00  0.93827000000E+00 0.  1.
     999902    2    1    2    0    0  0.12530047950E-01 -0.15080057169E-01 -0.11252236804E-01  0.10213241809E+01  0.10210739735E+01 0.  0.
     999903    2    3    3    0    0 -0.41527498939E-01  0.12008716206E+00  0.58771847751E-02  0.12919985510E+00  0.22640706638E-01 0.  0.
         14    1    1    2    0    0 -0.12530047950E-01  0.15080057169E-01  0.11252236804E-01  0.22605819139E-01  0.00000000000E+00 0. -1.
     999901    1    3    3    0    0  0.54057546889E-01 -0.13516721923E+00 -0.17129421579E-01  0.89212432576E+00  0.88000000000E+00 0. -1.
        -11    1    4    4    0    0 -0.13263308394E-01  0.24812070430E-01  0.96498294946E-02  0.29747848979E-01  0.51100000000E-03 0. -1.
         11    1    4    4    0    0 -0.28264190545E-01  0.95275091631E-01 -0.37726447195E-02  0.99452006121E-01  0.51100000000E-03 0.  1.
</event>
<event>
 8    1  0.1122465E+005  0.1043930E+01  0.7957747E-01            NaN
         13   -1    0    0    0    0  0.00000000000E+00  0.00000000000E+00  0.74505805969E-08  0.10566000000E+00  0.10566000000E+00 0. -1.
     999900   -1    0    0    0    0 -0.00000000000E+00 -0.00000000000E+00 -0.74505805969E-08  0.93827000000E+00  0.93827000000E+00 0. -1.
     999902    2    1    2    0    0 -0.13482445228E-01  0.20944917358E-02 -0.27588570324E-01  0.10131518838E+01  0.10126842781E+01 0.  0.
     999903    2    3    3    0    0  0.66259396016E-01  0.45156024128E-01 -0.95050823839E-01  0.12592913134E+00  0.19852277749E-01 0.  0.
         14    1    1    2    0    0  0.13482445228E-01 -0.20944917358E-02  0.27588570324E-01  0.30778116211E-01  0.00000000000E+00 0. -1.
     999901    1    3    3    0    0 -0.79741841244E-01 -0.43061532392E-01  0.67462253515E-01  0.88722275245E+00  0.88000000000E+00 0.  1.
        -11    1    4    4    0    0  0.33947541660E-01  0.13316000537E-01 -0.50974478896E-01  0.62677029882E-01  0.51100000000E-03 0.  1.
         11    1    4    4    0    0  0.32311854355E-01  0.31840023591E-01 -0.44076344942E-01  0.63252101456E-01  0.51100000000E-03 0. -1.
</event>
<event>
 8    1  0.1122465E+005  0.1043930E+01  0.7957747E-01            NaN
         13   -1    0    0    0    0  0.00000000000E+00  0.00000000000E+00  0.74505805969E-08  0.10566000000E+00  0.10566000000E+00 0. -1.
     999900   -1    0    0    0    0 -0.00000000000E+00 -0.00000000000E+00 -0.74505805969E-08  0.93827000000E+00  0.93827000000E+00 0.  1.
     999902    2    1    2    0    0 -0.88677064909E-02  0.19298697903E-01 -0.83106985457E-02  0.10211233416E+01  0.10208686179E+01 0.  0.
     999903    2    3    3    0    0 -0.16621907944E-01  0.13587009278E-01 -0.12943830595E+00  0.13277394616E+00  0.20340872274E-01 0.  0.
         14    1    1    2    0    0  0.88677064909E-02 -0.19298697903E-01  0.83106985457E-02  0.22806658446E-01  0.00000000000E+00 0.  1.
     999901    1    3    3    0    0  0.77542014532E-02  0.57116886245E-02  0.12112760741E+00  0.88834939540E+00  0.88000000000E+00 0. -1.
        -11    1    4    4    0    0 -0.15718534045E-01  0.83331351702E-03 -0.88234556466E-01  0.89629039936E-01  0.51100000000E-03 0.  1.
         11    1    4    4    0    0 -0.90337389911E-03  0.12753695761E-01 -0.41203749488E-01  0.43144906221E-01  0.51100000000E-03 0. -1.
</event>
<event>
 7    1  0.1122465E+005  0.1043930E+01  0.7957747E-01            NaN
         13   -1    0    0    0    0  0.00000000000E+00  0.00000000000E+00  0.74505805969E-08  0.10566000000E+00  0.10566000000E+00 0.  1.
     999900   -1    0    0    0    0 -0.00000000000E+00 -0.00000000000E+00 -0.74505805969E-08  0.93827000000E+00  0.93827000000E+00 0. -1.
     999902    2    1    2    0    0 -0.74952206186E-02  0.52423503454E-02  0.21052577355E-01  0.10209763166E+01  0.10207182606E+01 0.  0.
         14    1    1    2    0    0  0.74952206186E-02 -0.52423503454E-02 -0.21052577355E-01  0.22953683421E-01  0.00000000000E+00 0. -1.
     999901    1    3    3    0    0  0.35545893828E-01 -0.88029832181E-01 -0.52139971997E-01  0.88664047877E+00  0.88000000000E+00 0.  1.
        -11    1    3    3    0    0 -0.52808860208E-01  0.79667206887E-01  0.65677557182E-01  0.11597173021E+00  0.51100000000E-03 0.  1.
         11    1    3    3    0    0  0.97677457615E-02  0.13604975640E-01  0.75149921707E-02  0.18364107595E-01  0.51100000000E-03 0. -1.
</event>
<event>
 8    1  0.1122465E+005  0.1043930E+01  0.7957747E-01            NaN
         13   -1    0    0    0    0  0.00000000000E+00  0.00000000000E+00  0.74505805969E-08  0.10566000000E+00  0.10566000000E+00 0.  1.
     999900   -1    0    0    0    0 -0.00000000000E+00 -0.00000000000E+00 -0.74505805969E-08  0.93827000000E+00  0.93827000000E+00 0.  1.
     999902    2    1    2    0    0 -0.31513390374E-02 -0.22678527266E-01 -0.79176095084E-02  0.10197032570E+01  0.10194154194E+01 0.  0.
     999903    2    3    3    0    0 -0.80426191363E-01 -0.22320291314E-01 -0.96042576793E-01  0.13193214854E+00  0.34861835865E-01 0.  0.
         14    1    1    2    0    0  0.31513390374E-02  0.22678527266E-01  0.79176095084E-02  0.24226743012E-01  0.00000000000E+00 0.  1.
     999901    1    3    3    0    0  0.77274852326E-01 -0.35823595175E-03  0.88124967284E-01  0.88777110845E+00  0.88000000000E+00 0. -1.
        -11    1    4    4    0    0 -0.20580071437E-01  0.92486911102E-02 -0.28137378383E-01  0.36070081936E-01  0.51100000000E-03 0.  1.
         11    1    4    4    0    0 -0.59846119927E-01 -0.31568982424E-01 -0.67905198410E-01  0.95862066604E-01  0.51100000000E-03 0. -1.
</event>
<event>
 8    1  0.1122465E+005  0.1043930E+01  0.7957747E-01            NaN
         13   -1    0    0    0    0  0.00000000000E+00  0.00000000000E+00  0.74505805969E-08  0.10566000000E+00  0.10566000000E+00 0.  1.
     999900   -1    0    0    0    0 -0.00000000000E+00 -0.00000000000E+00 -0.74505805969E-08  0.93827000000E+00  0.93827000000E+00 0.  1.
     999902    2    1    2    0    0  0.12494692245E-01  0.18068063969E-01 -0.91635297264E-02  0.10201278457E+01  0.10198501258E+01 0.  0.
     999903    2    3    3    0    0  0.10212986873E+00 -0.71827868412E-01  0.30555135856E-01  0.13013160086E+00  0.20269791498E-01 0.  0.
         14    1    1    2    0    0 -0.12494692245E-01 -0.18068063969E-01  0.91635297264E-02  0.23802154250E-01  0.00000000000E+00 0. -1.
     999901    1    3    3    0    0 -0.89635176486E-01  0.89895932381E-01 -0.39718665583E-01  0.88999624489E+00  0.88000000000E+00 0.  1.
        -11    1    4    4    0    0  0.71166659263E-01 -0.45456562422E-01  0.29474102800E-01  0.89442586695E-01  0.51100000000E-03 0. -1.
         11    1    4    4    0    0  0.30963209469E-01 -0.26371305990E-01  0.10810330567E-02  0.40689014165E-01  0.51100000000E-03 0.  1.
</event>
<event>
 8    1  0.1122465E+005  0.1043930E+01  0.7957747E-01            NaN
         13   -1    0    0    0    0  0.00000000000E+00  0.00000000000E+00  0.74505805969E-08  0.10566000000E+00  0.10566000000E+00 0. -1.
     999900   -1    0    0    0    0 -0.00000000000E+00 -0.00000000000E+00 -0.74505805969E-08  0.93827000000E+00  0.93827000000E+00 0.  1.
     999902    2    1    2    0    0 -0.12361887532E-01 -0.19077901916E-01 -0.79575695310E-02  0.10198446202E+01  0.10195601718E+01 0.  0.
     999903    2    3    3    0    0  0.11086947290E+00 -0.20474070581E-02  0.61616082188E-01  0.12837588891E+00  0.19687442006E-01 0.  0.
         14    1    1    2    0    0  0.12361887532E-01  0.19077901916E-01  0.79575695310E-02  0.24085379750E-01  0.00000000000E+00 0. -1.
     999901    1    3    3    0    0 -0.12323136043E+00 -0.17030494858E-01 -0.69573651719E-01  0.89146873134E+00  0.88000000000E+00 0.  1.
        -11    1    4    4    0    0  0.71528426708E-01 -0.37306207842E-02  0.29126065986E-01  0.77322843970E-01  0.51100000000E-03 0.  1.
         11    1    4    4    0    0  0.39341046187E-01  0.16832137261E-02  0.32490016202E-01  0.51053044937E-01  0.51100000000E-03 0. -1.
</event>
<event>
 8    1  0.1122465E+005  0.1043930E+01  0.7957747E-01            NaN
         13   -1    0    0    0    0  0.00000000000E+00  0.00000000000E+00  0.74505805969E-08  0.10566000000E+00  0.10566000000E+00 0. -1.
     999900   -1    0    0    0    0 -0.00000000000E+00 -0.00000000000E+00 -0.74505805969E-08  0.93827000000E+00  0.93827000000E+00 0.  1.
     999902    2    1    2    0    0  0.45226980969E-02 -0.14508577528E-01  0.18342001887E-01  0.10201102046E+01  0.10198320680E+01 0.  0.
     999903    2    3    3    0    0  0.72521415601E-01  0.73290298848E-01  0.78409289933E-01  0.13109921064E+00  0.20203035837E-01 0.  0.
         14    1    1    2    0    0 -0.45226980969E-02  0.14508577528E-01 -0.18342001887E-01  0.23819795406E-01  0.00000000000E+00 0.  1.
     999901    1    3    3    0    0 -0.67998717504E-01 -0.87798876375E-01 -0.60067288046E-01  0.88901099395E+00  0.88000000000E+00 0.  1.
        -11    1    4    4    0    0  0.39111809564E-01  0.25290078080E-01  0.34278664942E-01  0.57832600563E-01  0.51100000000E-03 0.  1.
         11    1    4    4    0    0  0.33409606036E-01  0.48000220767E-01  0.44130624991E-01  0.73266610078E-01  0.51100000000E-03 0. -1.
</event>
<event>
 8    1  0.1122465E+005  0.1043930E+01  0.7957747E-01            NaN
         13   -1    0    0    0    0  0.00000000000E+00  0.00000000000E+00  0.74505805969E-08  0.10566000000E+00  0.10566000000E+00 0.  1.
     999900   -1    0    0    0    0 -0.00000000000E+00 -0.00000000000E+00 -0.74505805969E-08  0.93827000000E+00  0.93827000000E+00 0. -1.
     999902    2    1    2    0    0 -0.17720833304E-01 -0.10573389871E-01 -0.92412747859E-02  0.10213197000E+01  0.10210693923E+01 0.  0.
     999903    2    3    3    0    0 -0.13132188139E-01  0.12783453962E+00 -0.11430270207E-01  0.13048716674E+00  0.19548036258E-01 0.  0.
         14    1    1    2    0    0  0.17720833304E-01  0.10573389871E-01  0.92412747859E-02  0.22610299998E-01  0.00000000000E+00 0.  1.
     999901    1    3    3    0    0 -0.45886451644E-02 -0.13840792949E+00  0.21889954216E-02  0.89083253326E+00  0.88000000000E+00 0.  1.
        -11    1    4    4    0    0 -0.15411845008E-01  0.55198659561E-01 -0.50018119657E-02  0.57529959394E-01  0.51100000000E-03 0.  1.
         11    1    4    4    0    0  0.22796568687E-02  0.72635880062E-01 -0.64284582418E-02  0.72957207349E-01  0.51100000000E-03 0. -1.
</event>
<event>
 7    1  0.1122465E+005  0.1043930E+01  0.7957747E-01            NaN
         13   -1    0    0    0    0  0.00000000000E+00  0.00000000000E+00  0.74505805969E-08  0.10566000000E+00  0.10566000000E+00 0.  1.
     999900   -1    0    0    0    0 -0.00000000000E+00 -0.00000000000E+00 -0.74505805969E-08  0.93827000000E+00  0.93827000000E+00 0.  1.
     999902    2    1    2    0    0 -0.14407954915E-01  0.68717491833E-02 -0.17138087364E-01  0.10205094078E+01  0.10202406222E+01 0.  0.
         14    1    1    2    0    0  0.14407954915E-01 -0.68717491833E-02  0.17138087364E-01  0.23420592225E-01  0.00000000000E+00 0.  1.
     999901    1    3    3    0    0  0.99796121074E-02  0.41222162444E-01  0.10206090633E+00  0.88691334861E+00  0.88000000000E+00 0. -1.
        -11    1    3    3    0    0 -0.36584643808E-01 -0.28292325111E-01 -0.98431235992E-01  0.10875597070E+00  0.51100000000E-03 0. -1.
         11    1    3    3    0    0  0.12197076785E-01 -0.60580881503E-02 -0.20767757704E-01  0.24840088470E-01  0.51100000000E-03 0.  1.
</event>
<event>
 8    1  0.1122465E+005  0.1043930E+01  0.7957747E-01            NaN
         13   -1    0    0    0    0  0.00000000000E+00  0.00000000000E+00  0.74505805969E-08  0.10566000000E+00  0.10566000000E+00 0. -1.
     999900   -1    0    0    0    0 -0.00000000000E+00 -0.00000000000E+00 -0.74505805969E-08  0.93827000000E+00  0.93827000000E+00 0. -1.
     999902    2    1    2    0    0  0.28427547016E-01 -0.47484291646E-02  0.10721798311E-02  0.10150886655E+01  0.10146788537E+01 0.  0.
     999903    2    3    3    0    0  0.47810378705E-01  0.81978096724E-01 -0.81526781525E-01  0.12676452817E+00  0.20405608111E-01 0.  0.
         14    1    1    2    0    0 -0.28427547016E-01  0.47484291646E-02 -0.10721798311E-02  0.28841334548E-01  0.00000000000E+00 0.  1.
     999901    1    3    3    0    0 -0.19382831689E-01 -0.86726525889E-01  0.82598961357E-01  0.88832413728E+00  0.88000000000E+00 0.  1.
        -11    1    4    4    0    0  0.97500957364E-02  0.14551988575E-01 -0.26518135726E-01  0.31785175503E-01  0.51100000000E-03 0. -1.
         11    1    4    4    0    0  0.38060282969E-01  0.67426108150E-01 -0.55008645799E-01  0.94979352670E-01  0.51100000000E-03 0.  1.
</event>
<event>
 8    1  0.1122465E+005  0.1043930E+01  0.7957747E-01            NaN
         13   -1    0    0    0    0  0.00000000000E+00  0.00000000000E+00  0.74505805969E-08  0.10566000000E+00  0.10566000000E+00 0.  1.
     999900   -1    0    0    0    0 -0.00000000000E+00 -0.00000000000E+00 -0.74505805969E-08  0.93827000000E+00  0.93827000000E+00 0.  1.
     999902    2    1    2    0    0 -0.14065200521E-01 -0.18204605961E-01  0.51306435707E-02  0.10203596575E+01  0.10200873833E+01 0.  0.
     999903    2    3    3    0    0 -0.19085997910E-02 -0.89873663453E-01 -0.94297799014E-01  0.13178200079E+00  0.19836902417E-01 0.  0.
         14    1    1    2    0    0  0.14065200521E-01  0.18204605961E-01 -0.51306435707E-02  0.23570342538E-01  0.00000000000E+00 0. -1.
     999901    1    3    3    0    0 -0.12156600730E-01  0.71669057492E-01  0.99428442585E-01  0.88857765667E+00  0.88000000000E+00 0. -1.
        -11    1    4    4    0    0  0.73450398618E-02 -0.30567077302E-01 -0.25528514377E-01  0.40500148057E-01  0.51100000000E-03 0.  1.
         11    1    4    4    0    0 -0.92536396528E-02 -0.59306586151E-01 -0.68769284637E-01  0.91281852732E-01  0.51100000000E-03 0. -1.
</event>
<event>
 8    1  0.1122465E+005  0.1043930E+01  0.7957747E-01            NaN
         13   -1    0    0    0    0  0.00000000000E+00  0.00000000000E+00  0.74505805969E-08  0.10566000000E+00  0.10566000000E+00 0.  1.
     999900   -1    0    0    0    0 -0.00000000000E+00 -0.00000000000E+00 -0.74505805969E-08  0.93827000000E+00  0.93827000000E+00 0. -1.
     999902    2    1    2    0    0 -0.12895655355E-01  0.18290869043E-01  0.62702341632E-02  0.10206884498E+01  0.10204238051E+01 0.  0.
     999903    2    3    3    0    0 -0.12195579802E+00  0.18399539389E-01 -0.43796308291E-01  0.13254387535E+00  0.20928510504E-01 0.  0.
         14    1    1    2    0    0  0.12895655355E-01 -0.18290869043E-01 -0.62702341632E-02  0.23241550160E-01  0.00000000000E+00 0.  1.
     999901    1    3    3    0    0  0.10906014266E+00 -0.10867034658E-03  0.50066542455E-01  0.88814457449E+00  0.88000000000E+00 0.  1.
        -11    1    4    4    0    0 -0.70094243976E-01  0.18558878542E-01 -0.18472636072E-01  0.74827364084E-01  0.51100000000E-03 0.  1.
         11    1    4    4    0    0 -0.51861554043E-01 -0.15933915286E-03 -0.25323672220E-01  0.57716511263E-01  0.51100000000E-03 0. -1.
</event>
<event>
 8    1  0.1122465E+005  0.1043930E+01  0.7957747E-01            NaN
         13   -1    0    0    0    0  0.00000000000E+00  0.00000000000E+00  0.74505805969E-08  0.10566000000E+00  0.10566000000E+00 0. -1.
     999900   -1    0    0    0    0 -0.00000000000E+00 -0.00000000000E+00 -0.74505805969E-08  0.93827000000E+00  0.93827000000E+00 0. -1.
     999902    2    1    2    0    0  0.60523605744E-02  0.22693569610E-01 -0.42123456470E-02  0.10200684614E+01  0.10197893375E+01 0.  0.
     999903    2    3    3    0    0  0.11000826582E+00 -0.64505632669E-01  0.24164783945E-02  0.12964470134E+00  0.23218829076E-01 0.  0.
         14    1    1    2    0    0 -0.60523605744E-02 -0.22693569610E-01  0.42123456470E-02  0.23861538634E-01  0.00000000000E+00 0. -1.
     999901    1    3    3    0    0 -0.10395590524E+00  0.87199202278E-01 -0.66288240415E-02  0.89042376003E+00  0.88000000000E+00 0.  1.
        -11    1    4    4    0    0  0.56635782938E-01 -0.41700741066E-01 -0.76037865867E-02  0.70743497269E-01  0.51100000000E-03 0. -1.
         11    1    4    4    0    0  0.53372482877E-01 -0.22804891603E-01  0.10020264981E-01  0.58901204069E-01  0.51100000000E-03 0.  1.
</event>
<event>
 8    1  0.1122465E+005  0.1043930E+01  0.7957747E-01            NaN
         13   -1    0    0    0    0  0.00000000000E+00  0.00000000000E+00  0.74505805969E-08  0.10566000000E+00  0.10566000000E+00 0. -1.
     999900   -1    0    0    0    0 -0.00000000000E+00 -0.00000000000E+00 -0.74505805969E-08  0.93827000000E+00  0.93827000000E+00 0. -1.
     999902    2    1    2    0    0  0.11272576294E-01 -0.48525483419E-02 -0.15689718042E-01  0.10240105258E+01  0.10238167665E+01 0.  0.
     999903    2    3    3    0    0 -0.27243237349E-01 -0.41390145412E-01 -0.12477740205E+00  0.13568705613E+00  0.19652964668E-01 0.  0.
         14    1    1    2    0    0 -0.11272576294E-01  0.48525483419E-02  0.15689718042E-01  0.19919474239E-01  0.00000000000E+00 0. -1.
     999901    1    3    3    0    0  0.38515813643E-01  0.36537597070E-01  0.10908768401E+00  0.88832346963E+00  0.88000000000E+00 0.  1.
        -11    1    4    4    0    0 -0.31768498796E-02 -0.13801658002E-03 -0.23416779962E-01  0.23637219137E-01  0.51100000000E-03 0.  1.
         11    1    4    4    0    0 -0.24066387469E-01 -0.41252128832E-01 -0.10136062209E+00  0.11204983699E+00  0.51100000000E-03 0. -1.
</event>
<event>
 8    1  0.1122465E+005  0.1043930E+01  0.7957747E-01            NaN
         13   -1    0    0    0    0  0.00000000000E+00  0.00000000000E+00  0.74505805969E-08  0.10566000000E+00  0.10566000000E+00 0. -1.
     999900   -1    0    0    0    0 -0.00000000000E+00 -0.00000000000E+00 -0.74505805969E-08  0.93827000000E+00  0.93827000000E+00 0. -1.
     999902    2    1    2    0    0 -0.11858498774E-01  0.36377059501E-02 -0.19788923201E-01  0.10205749496E+01  0.10203076837E+01 0.  0.
     999903    2    3    3    0    0  0.34913146163E-01 -0.16524756281E-01 -0.12546802870E+00  0.13278996156E+00  0.19973790839E-01 0.  0.
         14    1    1    2    0    0  0.11858498774E-01 -0.36377059501E-02  0.19788923201E-01  0.23355050400E-01  0.00000000000E+00 0. -1.
     999901    1    3    3    0    0 -0.46771644937E-01  0.20162462231E-01  0.10567910550E+00  0.88778498804E+00  0.88000000000E+00 0.  1.
        -11    1    4    4    0    0  0.13585135124E-01 -0.54807780779E-03 -0.21367851107E-01  0.25331846904E-01  0.51100000000E-03 0.  1.
         11    1    4    4    0    0  0.21328011039E-01 -0.15976678474E-01 -0.10410017759E+00  0.10745811465E+00  0.51100000000E-03 0. -1.
</event>
<event>
 8    1  0.1122465E+005  0.1043930E+01  0.7957747E-01            NaN
         13   -1    0    0    0    0  0.00000000000E+00  0.00000000000E+00  0.74505805969E-08  0.10566000000E+00  0.10566000000E+00 0.  1.
     999900   -1    0    0    0    0 -0.00000000000E+00 -0.00000000000E+00 -0.74505805969E-08  0.93827000000E+00  0.93827000000E+00 0.  1.
     999902    2    1    2    0    0  0.54747901389E-02  0.20935521079E-01 -0.72593057218E-02  0.10211053009E+01  0.10208501695E+01 0.  0.
     999903    2    3    3    0    0  0.16925104692E-02 -0.61689603071E-01  0.11183378174E+00  0.12923962700E+00  0.19687933618E-01 0.  0.
         14    1    1    2    0    0 -0.54747901389E-02 -0.20935521079E-01  0.72593057218E-02  0.22824699110E-01  0.00000000000E+00 0. -1.
     999901    1    3    3    0    0  0.37822796697E-02  0.82625124150E-01 -0.11909308746E+00  0.89186567389E+00  0.88000000000E+00 0.  1.
        -11    1    4    4    0    0 -0.72099866588E-02 -0.10541384463E-01  0.24665835964E-01  0.27780735750E-01  0.51100000000E-03 0. -1.
         11    1    4    4    0    0  0.89024971280E-02 -0.51148218608E-01  0.87167945777E-01  0.10145889125E+00  0.51100000000E-03 0.  1.
</event>
<event>
 8    1  0.1122465E+005  0.1043930E+01  0.7957747E-01            NaN
         13   -1    0    0    0    0  0.00000000000E+00  0.00000000000E+00  0.74505805969E-08  0.10566000000E+00  0.10566000000E+00 0. -1.
     999900   -1    0    0    0    0 -0.00000000000E+00 -0.00000000000E+00 -0.74505805969E-08  0.93827000000E+00  0.93827000000E+00 0. -1.
     999902    2    1    2    0    0  0.25595883273E-02 -0.79152101631E-02  0.22600053048E-01  0.10198475491E+01  0.10195631706E+01 0.  0.
     999903    2    3    3    0    0  0.42368067820E-01 -0.21496954144E-01 -0.11680799998E+00  0.12788130305E+00  0.21268441483E-01 0.  0.
         14    1    1    2    0    0 -0.25595883273E-02  0.79152101631E-02 -0.22600053048E-01  0.24082450915E-01  0.00000000000E+00 0.  1.
     999901    1    3    3    0    0 -0.39808479492E-01  0.13581743981E-01  0.13940805303E+00  0.89196624603E+00  0.88000000000E+00 0.  1.
        -11    1    4    4    0    0  0.15449623258E-01 -0.19611397084E-01 -0.59953869528E-01  0.64946326662E-01  0.51100000000E-03 0. -1.
         11    1    4    4    0    0  0.26918444562E-01 -0.18855570601E-02 -0.56854130452E-01  0.62934976392E-01  0.51100000000E-03 0.  1.
</event>
<event>
 8    1  0.1122465E+005  0.1043930E+01  0.7957747E-01            NaN
         13   -1    0    0    0    0  0.00000000000E+00  0.00000000000E+00  0.74505805969E-08  0.10566000000E+00  0.10566000000E+00 0.  1.
     999900   -1    0    0    0    0 -0.00000000000E+00 -0.00000000000E+00 -0.74505805969E-08  0.93827000000E+00  0.93827000000E+00 0.  1.
     999902    2    1    2    0    0 -0.15189175706E-01  0.10036547376E-01 -0.15365000878E-01  0.10201071833E+01  0.10198289753E+01 0.  0.
     999903    2    3    3    0    0 -0.75691446658E-01  0.10019790152E+00 -0.39115796506E-01  0.13311581085E+00  0.20517285309E-01 0.  0.
         14    1    1    2    0    0  0.15189175706E-01 -0.10036547376E-01  0.15365000878E-01  0.23822816665E-01  0.00000000000E+00 0.  1.
     999901    1    3    3    0    0  0.60502270951E-01 -0.90161354141E-01  0.23750795627E-01  0.88699137249E+00  0.88000000000E+00 0. -1.
        -11    1    4    4    0    0 -0.28559381150E-01  0.48829961181E-01 -0.25635102924E-01  0.62108155531E-01  0.51100000000E-03 0. -1.
         11    1    4    4    0    0 -0.47132065508E-01  0.51367940336E-01 -0.13480693582E-01  0.71007655318E-01  0.51100000000E-03 0.  1.
</event>
<event>
 8    1  0.1122465E+005  0.1043930E+01  0.7957747E-01            NaN
         13   -1    0    0    0    0  0.00000000000E+00  0.00000000000E+00  0.74505805969E-08  0.10566000000E+00  0.10566000000E+00 0.  1.
     999900   -1    0    0    0    0 -0.00000000000E+00 -0.00000000000E+00 -0.74505805969E-08  0.93827000000E+00  0.93827000000E+00 0. -1.
     999902    2    1    2    0    0  0.21011855010E-01 -0.18867294315E-02 -0.49229994920E-02  0.10222668118E+01  0.10220372502E+01 0.  0.
     999903    2    3    3    0    0  0.72747203596E-01 -0.72394870688E-01 -0.85203169639E-01  0.13429561295E+00  0.15574293155E-01 0.  0.
         14    1    1    2    0    0 -0.21011855010E-01  0.18867294315E-02  0.49229994920E-02  0.21663188198E-01  0.00000000000E+00 0.  1.
     999901    1    3    3    0    0 -0.51735348586E-01  0.70508141256E-01  0.80280170147E-01  0.88797119885E+00  0.88000000000E+00 0.  1.
        -11    1    4    4    0    0  0.32210366494E-01 -0.21828655398E-01 -0.34565120546E-01  0.52048117983E-01  0.51100000000E-03 0. -1.
         11    1    4    4    0    0  0.40536837102E-01 -0.50566215289E-01 -0.50638049093E-01  0.82247494965E-01  0.51100000000E-03 0.  1.
</event>
<event>
 8    1  0.1122465E+005  0.1043930E+01  0.7957747E-01            NaN
         13   -1    0    0    0    0  0.00000000000E+00  0.00000000000E+00  0.74505805969E-08  0.10566000000E+00  0.10566000000E+00 0. -1.
     999900   -1    0    0    0    0 -0.00000000000E+00 -0.00000000000E+00 -0.74505805969E-08  0.93827000000E+00  0.93827000000E+00 0.  1.
     999902    2    1    2    0    0 -0.43609943354E-02 -0.23447765110E-01  0.13427685838E-02  0.10200423675E+01  0.10197626255E+01 0.  0.
     999903    2    3    3    0    0  0.97985747783E-01  0.48495689132E-01  0.64934067891E-01  0.12892252729E+00  0.21249617310E-01 0.  0.
         14    1    1    2    0    0  0.43609943354E-02  0.23447765110E-01 -0.13427685838E-02  0.23887632526E-01  0.00000000000E+00 0. -1.
     999901    1    3    3    0    0 -0.10234674212E+00 -0.71943454241E-01 -0.63591299307E-01  0.89111984019E+00  0.88000000000E+00 0. -1.
        -11    1    4    4    0    0  0.81326016561E-02  0.43889086340E-02  0.13545728107E-01  0.16405779458E-01  0.51100000000E-03 0. -1.
         11    1    4    4    0    0  0.89853146127E-01  0.44106780498E-01  0.51388339784E-01  0.11251674783E+00  0.51100000000E-03 0.  1.
</event>
<event>
 8    1  0.1122465E+005  0.1043930E+01  0.7957747E-01            NaN
         13   -1    0    0    0    0  0.00000000000E+00  0.00000000000E+00  0.74505805969E-08  0.10566000000E+00  0.10566000000E+00 0.  1.
     999900   -1    0    0    0    0 -0.00000000000E+00 -0.00000000000E+00 -0.74505805969E-08  0.93827000000E+00  0.93827000000E+00 0.  1.
     999902    2    1    2    0    0 -0.15176295787E-01  0.79249410398E-02  0.14108916717E-01  0.10217447307E+01  0.10215038465E+01 0.  0.
     999903    2    3    3    0    0  0.11970210230E+00 -0.41698275845E-01  0.21839016652E-01  0.13005285543E+00  0.19221421714E-01 0.  0.
         14    1    1    2    0    0  0.15176295787E-01 -0.79249410398E-02 -0.14108916717E-01  0.22185269329E-01  0.00000000000E+00 0. -1.
     999901    1    3    3    0    0 -0.13487839809E+00  0.49623216885E-01 -0.77300999353E-02  0.89169187524E+00  0.88000000000E+00 0. -1.
        -11    1    4    4    0    0  0.60563651838E-01 -0.31029470027E-01  0.96273394620E-02  0.68729402153E-01  0.51100000000E-03 0. -1.
         11    1    4    4    0    0  0.59138450465E-01 -0.10668805818E-01  0.12211677190E-01  0.61323453277E-01  0.51100000000E-03 0.  1.
</event>
<event>
 8    1  0.1122465E+005  0.1043930E+01  0.7957747E-01            NaN
         13   -1    0    0    0    0  0.00000000000E+00  0.00000000000E+00  0.74505805969E-08  0.10566000000E+00  0.10566000000E+00 0.  1.
     999900   -1    0    0    0    0 -0.00000000000E+00 -0.00000000000E+00 -0.74505805969E-08  0.93827000000E+00  0.93827000000E+00 0. -1.
     999902    2    1    2    0    0  0.14048059572E-01 -0.17453856200E-01  0.49881448915E-02  0.10209764237E+01  0.10207183701E+01 0.  0.
     999903    2    3    3    0    0  0.83676515961E-01 -0.58703159644E-01  0.84157484518E-01  0.13372369124E+00  0.18754282814E-01 0.  0.
         14    1    1    2    0    0 -0.14048059572E-01  0.17453856200E-01 -0.49881448915E-02  0.22953576267E-01  0.00000000000E+00 0. -1.
     999901    1    3    3    0    0 -0.69628456389E-01  0.41249303444E-01 -0.79169339626E-01  0.88725273249E+00  0.88000000000E+00 0. -1.
        -11    1    4    4    0    0  0.68108019056E-01 -0.50680484066E-01  0.60340261410E-01  0.10415575833E+00  0.51100000000E-03 0.  1.
         11    1    4    4    0    0  0.15568496905E-01 -0.80226755778E-02  0.23817223108E-01  0.29567932915E-01  0.51100000000E-03 0. -1.
</event>
<event>
 8    1  0.1122465E+005  0.1043930E+01  0.7957747E-01            NaN
         13   -1    0    0    0    0  0.00000000000E+00  0.00000000000E+00  0.74505805969E-08  0.10566000000E+00  0.10566000000E+00 0. -1.
     999900   -1    0    0    0    0 -0.00000000000E+00 -0.00000000000E+00 -0.74505805969E-08  0.93827000000E+00  0.93827000000E+00 0.  1.
     999902    2    1    2    0    0 -0.16828162480E-01  0.14400355227E-01 -0.78809525231E-02  0.10204211358E+01  0.10201502966E+01 0.  0.
     999903    2    3    3    0    0  0.11236091187E+00  0.42679022493E-01 -0.44638268392E-01  0.12978057967E+00  0.20098516811E-01 0.  0.
         14    1    1    2    0    0  0.16828162480E-01 -0.14400355227E-01  0.78809525231E-02  0.23508864195E-01  0.00000000000E+00 0.  1.
     999901    1    3    3    0    0 -0.12918907435E+00 -0.28278667267E-01  0.36757315869E-01  0.89064055613E+00  0.88000000000E+00 0. -1.
        -11    1    4    4    0    0  0.38390302233E-01  0.24621710837E-01 -0.14093719972E-01  0.47738223823E-01  0.51100000000E-03 0. -1.
         11    1    4    4    0    0  0.73970609638E-01  0.18057311656E-01 -0.30544548420E-01  0.82042355852E-01  0.51100000000E-03 0.  1.
</event>
<event>
 8    1  0.1122465E+005  0.1043930E+01  0.7957747E-01            NaN
         13   -1    0    0    0    0  0.00000000000E+00  0.00000000000E+00  0.74505805969E-08  0.10566000000E+00  0.10566000000E+00 0.  1.
     999900   -1    0    0    0    0 -0.00000000000E+00 -0.00000000000E+00 -0.74505805969E-08  0.93827000000E+00  0.93827000000E+00 0.  1.
     999902    2    1    2    0    0 -0.16334541543E-01 -0.16314167712E-01 -0.41351847283E-02  0.10204764487E+01  0.10202068973E+01 0.  0.
     999903    2    3    3    0    0 -0.98391172275E-01 -0.68379365683E-01 -0.55547628075E-01  0.13363524826E+00  0.20402944851E-01 0.  0.
         14    1    1    2    0    0  0.16334541543E-01  0.16314167712E-01  0.41351847283E-02  0.23453551294E-01  0.00000000000E+00 0. -1.
     999901    1    3    3    0    0  0.82056630732E-01  0.52065197971E-01  0.51412443347E-01  0.88684120045E+00  0.88000000000E+00 0.  1.
        -11    1    4    4    0    0 -0.13817427483E-01 -0.18811706344E-01 -0.13491596198E-01  0.26964530161E-01  0.51100000000E-03 0. -1.
         11    1    4    4    0    0 -0.84573744792E-01 -0.49567659339E-01 -0.42056031877E-01  0.10667071809E+00  0.51100000000E-03 0.  1.
</event>
<event>
 8    1  0.1122465E+005  0.1043930E+01  0.7957747E-01            NaN
         13   -1    0    0    0    0  0.00000000000E+00  0.00000000000E+00  0.74505805969E-08  0.10566000000E+00  0.10566000000E+00 0.  1.
     999900   -1    0    0    0    0 -0.00000000000E+00 -0.00000000000E+00 -0.74505805969E-08  0.93827000000E+00  0.93827000000E+00 0.  1.
     999902    2    1    2    0    0 -0.11747187748E-01  0.20171604553E-01 -0.39604684589E-02  0.10202535273E+01  0.10199787667E+01 0.  0.
     999903    2    3    3    0    0 -0.45977912173E-01  0.93847657818E-01 -0.79909929335E-01  0.13325396475E+00  0.21205448088E-01 0.  0.
         14    1    1    2    0    0  0.11747187748E-01 -0.20171604553E-01  0.39604684589E-02  0.23676472724E-01  0.00000000000E+00 0. -1.
     999901    1    3    3    0    0  0.34230724425E-01 -0.73676053265E-01  0.75949460876E-01  0.88699956253E+00  0.88000000000E+00 0. -1.
        -11    1    4    4    0    0 -0.27694180391E-01  0.38817078824E-01 -0.27260102213E-01  0.54928203408E-01  0.51100000000E-03 0.  1.
         11    1    4    4    0    0 -0.18283731782E-01  0.55030578995E-01 -0.52649827122E-01  0.78325761339E-01  0.51100000000E-03 0. -1.
</event>
<event>
 8    1  0.1122465E+005  0.1043930E+01  0.7957747E-01            NaN
         13   -1    0    0    0    0  0.00000000000E+00  0.00000000000E+00  0.74505805969E-08  0.10566000000E+00  0.10566000000E+00 0.  1.
     999900   -1    0    0    0    0 -0.00000000000E+00 -0.00000000000E+00 -0.74505805969E-08  0.93827000000E+00  0.93827000000E+00 0.  1.
     999902    2    1    2    0    0 -0.24053137735E-01  0.13139411920E-01  0.20229279720E-02  0.10164474634E+01  0.10160758614E+01 0.  0.
     999903    2    3    3    0    0  0.21427001203E-01  0.12138875096E+00 -0.28559093523E-01  0.12812228505E+00  0.20133376891E-01 0.  0.
         14    1    1    2    0    0  0.24053137735E-01 -0.13139411920E-01 -0.20229279720E-02  0.27482536602E-01  0.00000000000E+00 0.  1.
     999901    1    3    3    0    0 -0.45480138938E-01 -0.10824933904E+00  0.30582021495E-01  0.88832517834E+00  0.88000000000E+00 0.  1.
        -11    1    4    4    0    0  0.23438531086E-01  0.77702122933E-01 -0.18803369302E-01  0.83311538612E-01  0.51100000000E-03 0.  1.
         11    1    4    4    0    0 -0.20115298831E-02  0.43686628025E-01 -0.97557242208E-02  0.44810746443E-01  0.51100000000E-03 0. -1.
</event>
<event>
 8    1  0.1122465E+005  0.1043930E+01  0.7957747E-01            NaN
         13   -1    0    0    0    0  0.00000000000E+00  0.00000000000E+00  0.74505805969E-08  0.10566000000E+00  0.10566000000E+00 0. -1.
     999900   -1    0    0    0    0 -0.00000000000E+00 -0.00000000000E+00 -0.74505805969E-08  0.93827000000E+00  0.93827000000E+00 0.  1.
     999902    2    1    2    0    0 -0.22684584281E-01 -0.39805399031E-02  0.93158921773E-02  0.10190860690E+01  0.10187831934E+01 0.  0.
     999903    2    3    3    0    0 -0.12291474329E+00  0.28619408586E-01  0.34977304351E-01  0.13242528294E+00  0.19645332116E-01 0.  0.
         14    1    1    2    0    0  0.22684584281E-01  0.39805399031E-02 -0.93158921773E-02  0.24843931029E-01  0.00000000000E+00 0. -1.
     999901    1    3    3    0    0  0.10023015901E+00 -0.32599948489E-01 -0.25661412173E-01  0.88666078603E+00  0.88000000000E+00 0. -1.
        -11    1    4    4    0    0 -0.19248808948E-01  0.58738245747E-02 -0.15279294753E-02  0.20189456420E-01  0.51100000000E-03 0.  1.
         11    1    4    4    0    0 -0.10366593435E+00  0.22745584012E-01  0.36505233826E-01  0.11223582652E+00  0.51100000000E-03 0. -1.
</event>
<event>
 8    1  0.1122465E+005  0.1043930E+01  0.7957747E-01            NaN
         13   -1    0    0    0    0  0.00000000000E+00  0.00000000000E+00  0.74505805969E-08  0.10566000000E+00  0.10566000000E+00 0. -1.
     999900   -1    0    0    0    0 -0.00000000000E+00 -0.00000000000E+00 -0.74505805969E-08  0.93827000000E+00  0.93827000000E+00 0. -1.
     999902    2    1    2    0    0 -0.60163207051E-02  0.19000793955E-01 -0.12480446886E-01  0.10204143065E+01  0.10201433081E+01 0.  0.
     999903    2    3    3    0    0  0.19581183139E-01 -0.70978927079E-01 -0.10638143904E+00  0.13048791701E+00  0.16989852582E-01 0.  0.
         14    1    1    2    0    0  0.60163207051E-02 -0.19000793955E-01  0.12480446886E-01  0.23515693488E-01  0.00000000000E+00 0. -1.
     999901    1    3    3    0    0 -0.25597503844E-01  0.89979721034E-01  0.93900992157E-01  0.88992638950E+00  0.88000000000E+00 0.  1.
        -11    1    4    4    0    0  0.22700357818E-01 -0.62894508509E-01 -0.93254426268E-01  0.11475048839E+00  0.51100000000E-03 0. -1.
         11    1    4    4    0    0 -0.31191746792E-02 -0.80844185702E-02 -0.13127012775E-01  0.15737428624E-01  0.51100000000E-03 0.  1.
</event>
<event>
 8    1  0.1122465E+005  0.1043930E+01  0.7957747E-01            NaN
         13   -1    0    0    0    0  0.00000000000E+00  0.00000000000E+00  0.74505805969E-08  0.10566000000E+00  0.10566000000E+00 0.  1.
     999900   -1    0    0    0    0 -0.00000000000E+00 -0.00000000000E+00 -0.74505805969E-08  0.93827000000E+00  0.93827000000E+00 0. -1.
     999902    2    1    2    0    0 -0.89841445305E-02 -0.14947080063E-01  0.16073857670E-01  0.10202129396E+01  0.10199372251E+01 0.  0.
     999903    2    3    3    0    0 -0.11110098375E+00 -0.18451703758E-01  0.67671940054E-01  0.13279956726E+00  0.19296104030E-01 0.  0.
         14    1    1    2    0    0  0.89841445305E-02  0.14947080063E-01 -0.16073857670E-01  0.23717060437E-01  0.00000000000E+00 0. -1.
     999901    1    3    3    0    0  0.10211683922E+00  0.35046236944E-02 -0.51598082384E-01  0.88741337231E+00  0.88000000000E+00 0. -1.
        -11    1    4    4    0    0 -0.99631522834E-01 -0.20873668064E-01  0.55708274502E-01  0.11604233421E+00  0.51100000000E-03 0.  1.
         11    1    4    4    0    0 -0.11469460920E-01  0.24219643060E-02  0.11963665553E-01  0.16757233045E-01  0.51100000000E-03 0. -1.
</event>
<event>
 8    1  0.1122465E+005  0.1043930E+01  0.7957747E-01            NaN
         13   -1    0    0    0    0  0.00000000000E+00  0.00000000000E+00  0.74505805969E-08  0.10566000000E+00  0.10566000000E+00 0. -1.
     999900   -1    0    0    0    0 -0.00000000000E+00 -0.00000000000E+00 -0.74505805969E-08  0.93827000000E+00  0.93827000000E+00 0. -1.
     999902    2    1    2    0    0 -0.21025885900E-01  0.43435565050E-02 -0.67106342672E-02  0.10214358458E+01  0.10211881316E+01 0.  0.
     999903    2    3    3    0    0 -0.32935567300E-01 -0.11418039122E+00  0.52567548396E-01  0.13143378421E+00  0.19737759599E-01 0.  0.
         14    1    1    2    0    0  0.21025885900E-01 -0.43435565050E-02  0.67106342672E-02  0.22494154202E-01  0.00000000000E+00 0. -1.
     999901    1    3    3    0    0  0.11909681400E-01  0.11852394773E+00 -0.59278182663E-01  0.89000206159E+00  0.88000000000E+00 0.  1.
        -11    1    4    4    0    0 -0.12967739410E-01 -0.65457162227E-01  0.20631947898E-01  0.69847983130E-01  0.51100000000E-03 0.  1.
         11    1    4    4    0    0 -0.19967827890E-01 -0.48723228994E-01  0.31935600498E-01  0.61585801078E-01  0.51100000000E-03 0. -1.
</event>
<event>
 8    1  0.1122465E+005  0.1043930E+01  0.7957747E-01            NaN
         13   -1    0    0    0    0  0.00000000000E+00  0.00000000000E+00  0.74505805969E-08  0.10566000000E+00  0.10566000000E+00 0. -1.
     999900   -1    0    0    0    0 -0.00000000000E+00 -0.00000000000E+00 -0.74505805969E-08  0.93827000000E+00  0.93827000000E+00 0. -1.
     999902    2    1    2    0    0  0.64029395687E-02  0.19055002746E-01 -0.11611454392E-01  0.10207154219E+01  0.10204513981E+01 0.  0.
     999903    2    3    3    0    0  0.12683275247E+00 -0.20175027564E-01  0.17068082999E-01  0.13118473045E+00  0.20604252185E-01 0.  0.
         14    1    1    2    0    0 -0.64029395687E-02 -0.19055002746E-01  0.11611454392E-01  0.23214578132E-01  0.00000000000E+00 0. -1.
     999901    1    3    3    0    0 -0.12042981290E+00  0.39230030310E-01 -0.28679537391E-01  0.88953069142E+00  0.88000000000E+00 0.  1.
        -11    1    4    4    0    0  0.27735430461E-01 -0.96568509299E-02 -0.30106454229E-02  0.29526834907E-01  0.51100000000E-03 0. -1.
         11    1    4    4    0    0  0.99097322012E-01 -0.10518176634E-01  0.20078728422E-01  0.10165789554E+00  0.51100000000E-03 0.  1.
</event>
<event>
 8    1  0.1122465E+005  0.1043930E+01  0.7957747E-01            NaN
         13   -1    0    0    0    0  0.00000000000E+00  0.00000000000E+00  0.74505805969E-08  0.10566000000E+00  0.10566000000E+00 0.  1.
     999900   -1    0    0    0    0 -0.00000000000E+00 -0.00000000000E+00 -0.74505805969E-08  0.93827000000E+00  0.93827000000E+00 0.  1.
     999902    2    1    2    0    0 -0.17651889898E-01  0.89538187463E-02  0.12204708308E-01  0.10206767208E+01  0.10204118058E+01 0.  0.
     999903    2    3    3    0    0  0.75464612388E-01 -0.80634113654E-02  0.10463256070E+00  0.13078730241E+00  0.19935380291E-01 0.  0.
         14    1    1    2    0    0  0.17651889898E-01 -0.89538187463E-02 -0.12204708308E-01  0.23253279167E-01  0.00000000000E+00 0. -1.
     999901    1    3    3    0    0 -0.93116502286E-01  0.17017230112E-01 -0.92427852395E-01  0.88988941842E+00  0.88000000000E+00 0.  1.
        -11    1    4    4    0    0  0.20044348731E-01 -0.10652947973E-01  0.35560647329E-01  0.42191017717E-01  0.51100000000E-03 0.  1.
         11    1    4    4    0    0  0.55420263657E-01  0.25895366072E-02  0.69071913374E-01  0.88596284695E-01  0.51100000000E-03 0. -1.
</event>
<event>
 8    1  0.1122465E+005  0.1043930E+01  0.7957747E-01            NaN
         13   -1    0    0    0    0  0.00000000000E+00  0.00000000000E+00  0.74505805969E-08  0.10566000000E+00  0.10566000000E+00 0.  1.
     999900   -1    0    0    0    0 -0.00000000000E+00 -0.00000000000E+00 -0.74505805969E-08  0.93827000000E+00  0.93827000000E+00 0.  1.
     999902    2    1    2    0    0 -0.19543422803E-01  0.31234113017E-02  0.23787758929E-01  0.10129855571E+01  0.10125128050E+01 0.  0.
     999903    2    3    3    0    0 -0.58542345612E-01  0.86341439274E-01  0.69577026561E-01  0.12701557271E+00  0.20247042280E-01 0.  0.
         14    1    1    2    0    0  0.19543422803E-01 -0.31234113017E-02 -0.23787758929E-01  0.30944442924E-01  0.00000000000E+00 0. -1.
     999901    1    3    3    0    0  0.38998922809E-01 -0.83218027972E-01 -0.45789267632E-01  0.88596998436E+00  0.88000000000E+00 0. -1.
        -11    1    4    4    0    0 -0.50727122670E-01  0.67339122543E-01  0.63610012929E-01  0.10561388765E+00  0.51100000000E-03 0.  1.
         11    1    4    4    0    0 -0.78152229421E-02  0.19002316731E-01  0.59670136319E-02  0.21401685061E-01  0.51100000000E-03 0. -1.
</event>
<event>
 8    1  0.1122465E+005  0.1043930E+01  0.7957747E-01            NaN
         13   -1    0    0    0    0  0.00000000000E+00  0.00000000000E+00  0.74505805969E-08  0.10566000000E+00  0.10566000000E+00 0. -1.
     999900   -1    0    0    0    0 -0.00000000000E+00 -0.00000000000E+00 -0.74505805969E-08  0.93827000000E+00  0.93827000000E+00 0. -1.
     999902    2    1    2    0    0  0.34484686506E-01 -0.14346684044E-01  0.45412897480E-02  0.10063049517E+01  0.10056013184E+01 0.  0.
     999903    2    3    3    0    0  0.44869996974E-01  0.72260662189E-01 -0.79982288750E-01  0.11796215615E+00  0.16822123576E-01 0.  0.
         14    1    1    2    0    0 -0.34484686506E-01  0.14346684044E-01 -0.45412897480E-02  0.37625048293E-01  0.00000000000E+00 0.  1.
     999901    1    3    3    0    0 -0.10385310468E-01 -0.86607346233E-01  0.84523578498E-01  0.88834279556E+00  0.88000000000E+00 0.  1.
        -11    1    4    4    0    0  0.84504583318E-02  0.24065983539E-01 -0.31285881537E-01  0.40368915198E-01  0.51100000000E-03 0. -1.
         11    1    4    4    0    0  0.36419538642E-01  0.48194678650E-01 -0.48696407213E-01  0.77593240952E-01  0.51100000000E-03 0.  1.
</event>
<event>
 8    1  0.1280262E+005  0.1043930E+01  0.7957747E-01            NaN
         13   -1    0    0    0    0  0.00000000000E+00  0.00000000000E+00  0.74505805969E-08  0.10566000000E+00  0.10566000000E+00 0.  1.
     999900   -1    0    0    0    0 -0.00000000000E+00 -0.00000000000E+00 -0.74505805969E-08  0.93827000000E+00  0.93827000000E+00 0.  1.
     999902    2    1    2    0    0 -0.89038268536E-02  0.20857035158E-01  0.79302744239E-02  0.10199053606E+01  0.10196223620E+01 0.  0.
     999903    2    3    3    0    0 -0.77745375520E-01  0.83532179093E-01 -0.63510016591E-01  0.13211538107E+00  0.19974567540E-01 0.  0.
         14    1    1    2    0    0  0.89038268536E-02 -0.20857035158E-01 -0.79302744239E-02  0.24024639450E-01  0.00000000000E+00 0. -1.
     999901    1    3    3    0    0  0.68841548666E-01 -0.62675143935E-01  0.71440291015E-01  0.88778997948E+00  0.88000000000E+00 0. -1.
        -11    1    4    4    0    0 -0.37142772691E-01  0.33610874111E-01 -0.17722646298E-01  0.53137837126E-01  0.51100000000E-03 0. -1.
         11    1    4    4    0    0 -0.40602602829E-01  0.49921304982E-01 -0.45787370293E-01  0.78977543941E-01  0.51100000000E-03 0.  1.
</event>
<event>
 8    1  0.1122465E+005  0.1043930E+01  0.7957747E-01            NaN
         13   -1    0    0    0    0  0.00000000000E+00  0.00000000000E+00  0.74505805969E-08  0.10566000000E+00  0.10566000000E+00 0. -1.
     999900   -1    0    0    0    0 -0.00000000000E+00 -0.00000000000E+00 -0.74505805969E-08  0.93827000000E+00  0.93827000000E+00 0. -1.
     999902    2    1    2    0    0 -0.11440920178E-02  0.12158443368E-01  0.20346236342E-01  0.10202001449E+01  0.10199241293E+01 0.  0.
     999903    2    3    3    0    0 -0.94083876094E-01  0.49321400559E-01  0.76975397893E-01  0.13271732768E+00  0.20107234814E-01 0.  0.
         14    1    1    2    0    0  0.11440920178E-02 -0.12158443368E-01 -0.20346236342E-01  0.23729855140E-01  0.00000000000E+00 0.  1.
     999901    1    3    3    0    0  0.92939784077E-01 -0.37162957191E-01 -0.56629161551E-01  0.88748281718E+00  0.88000000000E+00 0. -1.
        -11    1    4    4    0    0 -0.24052009352E-01  0.20089869983E-01  0.30466736598E-01  0.43710241245E-01  0.51100000000E-03 0.  1.
         11    1    4    4    0    0 -0.70031866742E-01  0.29231530576E-01  0.46508661295E-01  0.89007086435E-01  0.51100000000E-03 0. -1.
</event>
<event>
 8    1  0.1122465E+005  0.1043930E+01  0.7957747E-01            NaN
         13   -1    0    0    0    0  0.00000000000E+00  0.00000000000E+00  0.74505805969E-08  0.10566000000E+00  0.10566000000E+00 0. -1.
     999900   -1    0    0    0    0 -0.00000000000E+00 -0.00000000000E+00 -0.74505805969E-08  0.93827000000E+00  0.93827000000E+00 0. -1.
     999902    2    1    2    0    0 -0.16688342879E-01  0.17924532739E-01  0.59117462292E-02  0.10187359847E+01  0.10184244047E+01 0.  0.
     999903    2    3    3    0    0 -0.10139487396E+00 -0.32974227103E-01  0.73064014067E-01  0.13066205355E+00  0.19131177942E-01 0.  0.
         14    1    1    2    0    0  0.16688342879E-01 -0.17924532739E-01 -0.59117462292E-02  0.25194015270E-01  0.00000000000E+00 0.  1.
     999901    1    3    3    0    0  0.84706531076E-01  0.50898759842E-01 -0.67152267838E-01  0.88807393118E+00  0.88000000000E+00 0.  1.
        -11    1    4    4    0    0 -0.79370917133E-01 -0.22990139665E-01  0.46839383317E-01  0.94986725172E-01  0.51100000000E-03 0.  1.
         11    1    4    4    0    0 -0.22023956823E-01 -0.99840874379E-02  0.26224630750E-01  0.35675328381E-01  0.51100000000E-03 0. -1.
</event>
<event>
 8    1  0.1122465E+005  0.1043930E+01  0.7957747E-01            NaN
         13   -1    0    0    0    0  0.00000000000E+00  0.00000000000E+00  0.74505805969E-08  0.10566000000E+00  0.10566000000E+00 0. -1.
     999900   -1    0    0    0    0 -0.00000000000E+00 -0.00000000000E+00 -0.74505805969E-08  0.93827000000E+00  0.93827000000E+00 0. -1.
     999902    2    1    2    0    0  0.19067377819E-01 -0.10281551803E-01 -0.10946157629E-01  0.10196587501E+01  0.10193698412E+01 0.  0.
     999903    2    3    3    0    0  0.12219616416E+00 -0.23116710196E-01 -0.42304170017E-01  0.13298879302E+00  0.20738646143E-01 0.  0.
         14    1    1    2    0    0 -0.19067377819E-01  0.10281551803E-01  0.10946157629E-01  0.24271249890E-01  0.00000000000E+00 0. -1.
     999901    1    3    3    0    0 -0.10312878634E+00  0.12835158393E-01  0.31358012388E-01  0.88666995709E+00  0.88000000000E+00 0.  1.
        -11    1    4    4    0    0  0.90349829998E-01 -0.23169072864E-01 -0.24242468186E-01  0.96373523868E-01  0.51100000000E-03 0. -1.
         11    1    4    4    0    0  0.31846334158E-01  0.52362668296E-04 -0.18061701831E-01  0.36615269154E-01  0.51100000000E-03 0.  1.
</event>
<event>
 8    1  0.1122465E+005  0.1043930E+01  0.7957747E-01            NaN
         13   -1    0    0    0    0  0.00000000000E+00  0.00000000000E+00  0.74505805969E-08  0.10566000000E+00  0.10566000000E+00 0. -1.
     999900   -1    0    0    0    0 -0.00000000000E+00 -0.00000000000E+00 -0.74505805969E-08  0.93827000000E+00  0.93827000000E+00 0.  1.
     999902    2    1    2    0    0  0.74525553612E-02  0.62833906132E-02 -0.22182973014E-01  0.10196997323E+01  0.10194118100E+01 0.  0.
     999903    2    3    3    0    0 -0.47505873859E-01 -0.34055932828E-01  0.11092996355E+00  0.12708181641E+00  0.20681311320E-01 0.  0.
         14    1    1    2    0    0 -0.74525553612E-02 -0.62833906132E-02  0.22182973014E-01  0.24230267658E-01  0.00000000000E+00 0. -1.
     999901    1    3    3    0    0  0.54958429220E-01  0.40339323442E-01 -0.13311293656E+00  0.89261791593E+00  0.88000000000E+00 0.  1.
        -11    1    4    4    0    0 -0.19273793598E-01 -0.16071269421E-01  0.69018952298E-01  0.73441416910E-01  0.51100000000E-03 0. -1.
         11    1    4    4    0    0 -0.28232080261E-01 -0.17984663408E-01  0.41911011251E-01  0.53640399503E-01  0.51100000000E-03 0.  1.
</event>
<event>
 8    1  0.1122465E+005  0.1043930E+01  0.7957747E-01            NaN
         13   -1    0    0    0    0  0.00000000000E+00  0.00000000000E+00  0.74505805969E-08  0.10566000000E+00  0.10566000000E+00 0. -1.
     999900   -1    0    0    0    0 -0.00000000000E+00 -0.00000000000E+00 -0.74505805969E-08  0.93827000000E+00  0.93827000000E+00 0.  1.
     999902    2    1    2    0    0  0.13173695392E-01 -0.13986086888E-02 -0.19809229480E-01  0.10200991811E+01  0.10198207839E+01 0.  0.
     999903    2    3    3    0    0 -0.77148781389E-02  0.98185393571E-01  0.80344932043E-01  0.12859250021E+00  0.19514921222E-01 0.  0.
         14    1    1    2    0    0 -0.13173695392E-01  0.13986086888E-02  0.19809229480E-01  0.23830818893E-01  0.00000000000E+00 0. -1.
     999901    1    3    3    0    0  0.20888573530E-01 -0.99584002259E-01 -0.10015416152E+00  0.89150668090E+00  0.88000000000E+00 0.  1.
        -11    1    4    4    0    0 -0.43277902384E-02  0.69635842824E-01  0.67570339893E-01  0.97128226219E-01  0.51100000000E-03 0.  1.
         11    1    4    4    0    0 -0.33870879004E-02  0.28549550747E-01  0.12774592150E-01  0.31464273993E-01  0.51100000000E-03 0. -1.
</event>
<event>
 8    1  0.1122465E+005  0.1043930E+01  0.7957747E-01            NaN
         13   -1    0    0    0    0  0.00000000000E+00  0.00000000000E+00  0.74505805969E-08  0.10566000000E+00  0.10566000000E+00 0. -1.
     999900   -1    0    0    0    0 -0.00000000000E+00 -0.00000000000E+00 -0.74505805969E-08  0.93827000000E+00  0.93827000000E+00 0.  1.
     999902    2    1    2    0    0  0.11046320768E-01 -0.11133668158E-01 -0.18418906630E-01  0.10197383508E+01  0.10194513565E+01 0.  0.
     999903    2    3    3    0    0 -0.10782754713E+00  0.38549115715E-01 -0.57116831576E-01  0.12951539847E+00  0.19977280793E-01 0.  0.
         14    1    1    2    0    0 -0.11046320768E-01  0.11133668158E-01  0.18418906630E-01  0.24191649192E-01  0.00000000000E+00 0. -1.
     999901    1    3    3    0    0  0.11887386790E+00 -0.49682783874E-01  0.38697924946E-01  0.89022295234E+00  0.88000000000E+00 0. -1.
        -11    1    4    4    0    0 -0.53081563019E-01  0.20412311932E-01 -0.17352469952E-01  0.59461619095E-01  0.51100000000E-03 0.  1.
         11    1    4    4    0    0 -0.54745984111E-01  0.18136803783E-01 -0.39764361624E-01  0.70053779371E-01  0.51100000000E-03 0. -1.
</event>
<event>
 8    1  0.1122465E+005  0.1043930E+01  0.7957747E-01            NaN
         13   -1    0    0    0    0  0.00000000000E+00  0.00000000000E+00  0.74505805969E-08  0.10566000000E+00  0.10566000000E+00 0.  1.
     999900   -1    0    0    0    0 -0.00000000000E+00 -0.00000000000E+00 -0.74505805969E-08  0.93827000000E+00  0.93827000000E+00 0. -1.
     999902    2    1    2    0    0 -0.21001780396E-01  0.18262436888E-02  0.70184222907E-02  0.10217113547E+01  0.10214697373E+01 0.  0.
     999903    2    3    3    0    0  0.57126629726E-01  0.11509636665E+00 -0.13225169172E-01  0.13078825356E+00  0.20494797585E-01 0.  0.
         14    1    1    2    0    0  0.21001780396E-01 -0.18262436888E-02 -0.70184222907E-02  0.22218645262E-01  0.00000000000E+00 0.  1.
     999901    1    3    3    0    0 -0.78128410122E-01 -0.11327012296E+00  0.20243591463E-01  0.89092310118E+00  0.88000000000E+00 0.  1.
        -11    1    4    4    0    0  0.46684415827E-01  0.10044627906E+00 -0.46807004912E-02  0.11086505191E+00  0.51100000000E-03 0. -1.
         11    1    4    4    0    0  0.10442213899E-01  0.14650087596E-01 -0.85444686810E-02  0.19923201644E-01  0.51100000000E-03 0.  1.
</event>
<event>
 8    1  0.1122465E+005  0.1043930E+01  0.7957747E-01            NaN
         13   -1    0    0    0    0  0.00000000000E+00  0.00000000000E+00  0.74505805969E-08  0.10566000000E+00  0.10566000000E+00 0. -1.
     999900   -1    0    0    0    0 -0.00000000000E+00 -0.00000000000E+00 -0.74505805969E-08  0.93827000000E+00  0.93827000000E+00 0.  1.
     999902    2    1    2    0    0 -0.61647212130E-02  0.17136723959E-01  0.15367765586E-01  0.10201006208E+01  0.10198222576E+01 0.  0.
     999903    2    3    3    0    0  0.14202420894E-01 -0.17030891856E-01  0.12963084367E+00  0.13182234372E+00  0.90119164975E-02 0.  0.
         14    1    1    2    0    0  0.61647212130E-02 -0.17136723959E-01 -0.15367765586E-01  0.23829379236E-01  0.00000000000E+00 0.  1.
     999901    1    3    3    0    0 -0.20367142107E-01  0.34167615815E-01 -0.11426307808E+00  0.88827827704E+00  0.88000000000E+00 0.  1.
        -11    1    4    4    0    0  0.10418450097E-02 -0.50792251323E-02  0.16528135380E-01  0.17329868699E-01  0.51100000000E-03 0.  1.
         11    1    4    4    0    0  0.13160575884E-01 -0.11951666723E-01  0.11310270829E+00  0.11449247503E+00  0.51100000000E-03 0. -1.
</event>
<event>
 8    1  0.1122465E+005  0.1043930E+01  0.7957747E-01            NaN
         13   -1    0    0    0    0  0.00000000000E+00  0.00000000000E+00  0.74505805969E-08  0.10566000000E+00  0.10566000000E+00 0.  1.
     999900   -1    0    0    0    0 -0.00000000000E+00 -0.00000000000E+00 -0.74505805969E-08  0.93827000000E+00  0.93827000000E+00 0.  1.
     999902    2    1    2    0    0  0.84893440070E-02  0.16056180423E-01 -0.15801957827E-01  0.10198557033E+01  0.10195715197E+01 0.  0.
     999903    2    3    3    0    0 -0.34083307830E-01  0.11243540173E+00 -0.57920335766E-01  0.13257032487E+00  0.20414071246E-01 0.  0.
         14    1    1    2    0    0 -0.84893440070E-02 -0.16056180423E-01  0.15801957827E-01  0.24074296721E-01  0.00000000000E+00 0.  1.
     999901    1    3    3    0    0  0.42572651837E-01 -0.96379221308E-01  0.42118377939E-01  0.88728537841E+00  0.88000000000E+00 0.  1.
        -11    1    4    4    0    0 -0.25242042886E-01  0.48596182187E-01 -0.25021870348E-01  0.60208842946E-01  0.51100000000E-03 0. -1.
         11    1    4    4    0    0 -0.88412649439E-02  0.63839219545E-01 -0.32898465418E-01  0.72361481921E-01  0.51100000000E-03 0.  1.
</event>
<event>
 8    1  0.1122465E+005  0.1043930E+01  0.7957747E-01            NaN
         13   -1    0    0    0    0  0.00000000000E+00  0.00000000000E+00  0.74505805969E-08  0.10566000000E+00  0.10566000000E+00 0.  1.
     999900   -1    0    0    0    0 -0.00000000000E+00 -0.00000000000E+00 -0.74505805969E-08  0.93827000000E+00  0.93827000000E+00 0. -1.
     999902    2    1    2    0    0 -0.15597454788E-01  0.87101981647E-02  0.16615485439E-01  0.10195328177E+01  0.10192408665E+01 0.  0.
     999903    2    3    3    0    0  0.97575072783E-01 -0.23246127191E-01 -0.76092198395E-01  0.12688286258E+00  0.15746774343E-01 0.  0.
         14    1    1    2    0    0  0.15597454788E-01 -0.87101981647E-02 -0.16615485439E-01  0.24397182302E-01  0.00000000000E+00 0. -1.
     999901    1    3    3    0    0 -0.11317252757E+00  0.31956325356E-01  0.92707683834E-01  0.89264995512E+00  0.88000000000E+00 0.  1.
        -11    1    4    4    0    0  0.87958296774E-01 -0.16624411482E-01 -0.70398162657E-01  0.11388237552E+00  0.51100000000E-03 0. -1.
         11    1    4    4    0    0  0.96167760093E-02 -0.66217157089E-02 -0.56940357382E-02  0.13000487057E-01  0.51100000000E-03 0.  1.
</event>
<event>
 8    1  0.1122465E+005  0.1043930E+01  0.7957747E-01            NaN
         13   -1    0    0    0    0  0.00000000000E+00  0.00000000000E+00  0.74505805969E-08  0.10566000000E+00  0.10566000000E+00 0. -1.
     999900   -1    0    0    0    0 -0.00000000000E+00 -0.00000000000E+00 -0.74505805969E-08  0.93827000000E+00  0.93827000000E+00 0. -1.
     999902    2    1    2    0    0  0.36732205946E-02  0.20158851862E-01  0.11524643635E-01  0.10204206557E+01  0.10201498053E+01 0.  0.
     999903    2    3    3    0    0 -0.53524371791E-01  0.84471192623E-01  0.85494973917E-01  0.13313307465E+00  0.20366252508E-01 0.  0.
         14    1    1    2    0    0 -0.36732205946E-02 -0.20158851862E-01 -0.11524643635E-01  0.23509344288E-01  0.00000000000E+00 0.  1.
     999901    1    3    3    0    0  0.57197592385E-01 -0.64312340761E-01 -0.73970330282E-01  0.88728758106E+00  0.88000000000E+00 0. -1.
        -11    1    4    4    0    0 -0.10559874242E-01  0.64665911630E-02  0.15604166558E-01  0.19926838190E-01  0.51100000000E-03 0. -1.
         11    1    4    4    0    0 -0.42964497549E-01  0.78004601460E-01  0.69890807360E-01  0.11320623646E+00  0.51100000000E-03 0.  1.
</event>
<event>
 8    1  0.1122465E+005  0.1043930E+01  0.7957747E-01            NaN
         13   -1    0    0    0    0  0.00000000000E+00  0.00000000000E+00  0.74505805969E-08  0.10566000000E+00  0.10566000000E+00 0. -1.
     999900   -1    0    0    0    0 -0.00000000000E+00 -0.00000000000E+00 -0.74505805969E-08  0.93827000000E+00  0.93827000000E+00 0.  1.
     999902    2    1    2    0    0  0.98725505390E-02 -0.15275063440E-01  0.14439276094E-01  0.10207074353E+01  0.10204432277E+01 0.  0.
     999903    2    3    3    0    0 -0.26386417492E-01  0.26061741278E-01 -0.12238143274E+00  0.12843878150E+00  0.11993670297E-01 0.  0.
         14    1    1    2    0    0 -0.98725505390E-02  0.15275063440E-01 -0.14439276094E-01  0.23222564702E-01  0.00000000000E+00 0.  1.
     999901    1    3    3    0    0  0.36258968031E-01 -0.41336804718E-01  0.13682070883E+00  0.89226865380E+00  0.88000000000E+00 0. -1.
        -11    1    4    4    0    0 -0.22991904606E-01  0.16113844362E-01 -0.96409881172E-01  0.10041618379E+00  0.51100000000E-03 0.  1.
         11    1    4    4    0    0 -0.33945128860E-02  0.99478969163E-02 -0.25971551566E-01  0.28022597713E-01  0.51100000000E-03 0. -1.
</event>
<event>
 8    1  0.1122465E+005  0.1043930E+01  0.7957747E-01            NaN
         13   -1    0    0    0    0  0.00000000000E+00  0.00000000000E+00  0.74505805969E-08  0.10566000000E+00  0.10566000000E+00 0. -1.
     999900   -1    0    0    0    0 -0.00000000000E+00 -0.00000000000E+00 -0.74505805969E-08  0.93827000000E+00  0.93827000000E+00 0. -1.
     999902    2    1    2    0    0  0.50684616832E-02 -0.59801716631E-02  0.23046608457E-01  0.10195866658E+01  0.10192960175E+01 0.  0.
     999903    2    3    3    0    0  0.10941484322E+00 -0.27010852247E-01 -0.60134848080E-01  0.12927794883E+00  0.19884517701E-01 0.  0.
         14    1    1    2    0    0 -0.50684616832E-02  0.59801716631E-02 -0.23046608457E-01  0.24343334166E-01  0.00000000000E+00 0.  1.
     999901    1    3    3    0    0 -0.10434638153E+00  0.21030680584E-01  0.83181456537E-01  0.89030871701E+00  0.88000000000E+00 0.  1.
        -11    1    4    4    0    0  0.93271776384E-01 -0.23066304231E-01 -0.42566180953E-01  0.10508957866E+00  0.51100000000E-03 0.  1.
         11    1    4    4    0    0  0.16143066833E-01 -0.39445480165E-02 -0.17568667127E-01  0.24188370169E-01  0.51100000000E-03 0. -1.
</event>
<event>
 8    1  0.1122465E+005  0.1043930E+01  0.7957747E-01            NaN
         13   -1    0    0    0    0  0.00000000000E+00  0.00000000000E+00  0.74505805969E-08  0.10566000000E+00  0.10566000000E+00 0. -1.
     999900   -1    0    0    0    0 -0.00000000000E+00 -0.00000000000E+00 -0.74505805969E-08  0.93827000000E+00  0.93827000000E+00 0. -1.
     999902    2    1    2    0    0 -0.17064379481E-01 -0.73530626665E-03 -0.15950488155E-01  0.10205601092E+01  0.10202924996E+01 0.  0.
     999903    2    3    3    0    0 -0.10663807230E+00  0.74226845559E-01  0.15008883294E-01  0.13230268408E+00  0.19935660767E-01 0.  0.
         14    1    1    2    0    0  0.17064379481E-01  0.73530626665E-03  0.15950488155E-01  0.23369890773E-01  0.00000000000E+00 0. -1.
     999901    1    3    3    0    0  0.89573692823E-01 -0.74962151825E-01 -0.30959371449E-01  0.88825742515E+00  0.88000000000E+00 0.  1.
        -11    1    4    4    0    0 -0.44080172525E-01  0.23853372202E-01 -0.21566697931E-02  0.50169286629E-01  0.51100000000E-03 0. -1.
         11    1    4    4    0    0 -0.62557899778E-01  0.50373473357E-01  0.17165553087E-01  0.82133397449E-01  0.51100000000E-03 0.  1.
</event>
<event>
 8    1  0.1122465E+005  0.1043930E+01  0.7957747E-01            NaN
         13   -1    0    0    0    0  0.00000000000E+00  0.00000000000E+00  0.74505805969E-08  0.10566000000E+00  0.10566000000E+00 0. -1.
     999900   -1    0    0    0    0 -0.00000000000E+00 -0.00000000000E+00 -0.74505805969E-08  0.93827000000E+00  0.93827000000E+00 0. -1.
     999902    2    1    2    0    0  0.22790591951E-01 -0.44739769856E-02 -0.69330237774E-02  0.10196917168E+01  0.10194036016E+01 0.  0.
     999903    2    3    3    0    0 -0.42561626482E-01  0.75196412216E-01  0.92424892998E-01  0.12812552245E+00  0.20193964390E-01 0.  0.
         14    1    1    2    0    0 -0.22790591951E-01  0.44739769856E-02  0.69330237774E-02  0.24238283154E-01  0.00000000000E+00 0. -1.
     999901    1    3    3    0    0  0.65352218433E-01 -0.79670389201E-01 -0.99357916775E-01  0.89156619440E+00  0.88000000000E+00 0. -1.
        -11    1    4    4    0    0 -0.68270973240E-02  0.25841423587E-01  0.37748965997E-01  0.46256177812E-01  0.51100000000E-03 0. -1.
         11    1    4    4    0    0 -0.35734529158E-01  0.49354988628E-01  0.54675927001E-01  0.81869344635E-01  0.51100000000E-03 0.  1.
</event>
<event>
 8    1  0.1122465E+005  0.1043930E+01  0.7957747E-01            NaN
         13   -1    0    0    0    0  0.00000000000E+00  0.00000000000E+00  0.74505805969E-08  0.10566000000E+00  0.10566000000E+00 0. -1.
     999900   -1    0    0    0    0 -0.00000000000E+00 -0.00000000000E+00 -0.74505805969E-08  0.93827000000E+00  0.93827000000E+00 0. -1.
     999902    2    1    2    0    0  0.22500431446E-01 -0.46758877538E-02  0.32706173480E-02  0.10207172819E+01  0.10204533009E+01 0.  0.
     999903    2    3    3    0    0 -0.81834512994E-01 -0.98426940225E-01 -0.22009128447E-02  0.12959160163E+00  0.20109428579E-01 0.  0.
         14    1    1    2    0    0 -0.22500431446E-01  0.46758877538E-02 -0.32706173480E-02  0.23212718053E-01  0.00000000000E+00 0.  1.
     999901    1    3    3    0    0  0.10433494444E+00  0.93751052471E-01  0.54715301927E-02  0.89112568031E+00  0.88000000000E+00 0. -1.
        -11    1    4    4    0    0 -0.43892154956E-01 -0.43085283781E-01 -0.89372743932E-02  0.62153028404E-01  0.51100000000E-03 0. -1.
         11    1    4    4    0    0 -0.37942358038E-01 -0.55341656444E-01  0.67363615485E-02  0.67438573230E-01  0.51100000000E-03 0.  1.
</event>
<event>
 8    1  0.1122465E+005  0.1043930E+01  0.7957747E-01            NaN
         13   -1    0    0    0    0  0.00000000000E+00  0.00000000000E+00  0.74505805969E-08  0.10566000000E+00  0.10566000000E+00 0. -1.
     999900   -1    0    0    0    0 -0.00000000000E+00 -0.00000000000E+00 -0.74505805969E-08  0.93827000000E+00  0.93827000000E+00 0. -1.
     999902    2    1    2    0    0  0.26399175746E-01 -0.12495539150E-02  0.45830968693E-02  0.10171068264E+01  0.10167530741E+01 0.  0.
     999903    2    3    3    0    0 -0.67612245753E-02  0.11672934382E+00  0.47029691608E-01  0.12760115140E+00  0.19970179727E-01 0.  0.
         14    1    1    2    0    0 -0.26399175746E-01  0.12495539150E-02 -0.45830968693E-02  0.26823173600E-01  0.00000000000E+00 0.  1.
     999901    1    3    3    0    0  0.33160400322E-01 -0.11797889773E+00 -0.42446594739E-01  0.88950567500E+00  0.88000000000E+00 0. -1.
        -11    1    4    4    0    0 -0.13743928533E-01  0.86581692433E-01  0.34979798800E-01  0.94388200963E-01  0.51100000000E-03 0.  1.
         11    1    4    4    0    0  0.69827039575E-02  0.30147651387E-01  0.12049892808E-01  0.33212950432E-01  0.51100000000E-03 0. -1.
</event>
<event>
 8    1  0.1122465E+005  0.1043930E+01  0.7957747E-01            NaN
         13   -1    0    0    0    0  0.00000000000E+00  0.00000000000E+00  0.74505805969E-08  0.10566000000E+00  0.10566000000E+00 0. -1.
     999900   -1    0    0    0    0 -0.00000000000E+00 -0.00000000000E+00 -0.74505805969E-08  0.93827000000E+00  0.93827000000E+00 0. -1.
     999902    2    1    2    0    0  0.15120833024E-01  0.71324207192E-02  0.19285769933E-01  0.10184064435E+01  0.10180865543E+01 0.  0.
     999903    2    3    3    0    0  0.96787801638E-01  0.79652853834E-01  0.34903350664E-01  0.13151715171E+00  0.19132737329E-01 0.  0.
         14    1    1    2    0    0 -0.15120833024E-01 -0.71324207192E-02 -0.19285769933E-01  0.25523556542E-01  0.00000000000E+00 0.  1.
     999901    1    3    3    0    0 -0.81666968613E-01 -0.72520433115E-01 -0.15617580731E-01  0.88688929174E+00  0.88000000000E+00 0.  1.
        -11    1    4    4    0    0  0.24357144495E-01  0.23660663833E-01  0.17938209553E-01  0.38407525095E-01  0.51100000000E-03 0.  1.
         11    1    4    4    0    0  0.72430657143E-01  0.55992190001E-01  0.16965141111E-01  0.93109626619E-01  0.51100000000E-03 0. -1.
</event>
<event>
 8    1  0.1122465E+005  0.1043930E+01  0.7957747E-01            NaN
         13   -1    0    0    0    0  0.00000000000E+00  0.00000000000E+00  0.74505805969E-08  0.10566000000E+00  0.10566000000E+00 0.  1.
     999900   -1    0    0    0    0 -0.00000000000E+00 -0.00000000000E+00 -0.74505805969E-08  0.93827000000E+00  0.93827000000E+00 0.  1.
     999902    2    1    2    0    0  0.22333158788E-01 -0.39759784535E-03  0.54428146586E-02  0.10209397347E+01  0.10206808461E+01 0.  0.
     999903    2    3    3    0    0  0.11341415422E+00 -0.58667754250E-01  0.34888981366E-01  0.13383306945E+00  0.19732554128E-01 0.  0.
         14    1    1    2    0    0 -0.22333158788E-01  0.39759784535E-03 -0.54428146586E-02  0.22990265264E-01  0.00000000000E+00 0.  1.
     999901    1    3    3    0    0 -0.91080995431E-01  0.58270156405E-01 -0.29446166707E-01  0.88710666528E+00  0.88000000000E+00 0. -1.
        -11    1    4    4    0    0  0.43688148560E-01 -0.24541687276E-01  0.23580596058E-01  0.55382798506E-01  0.51100000000E-03 0.  1.
         11    1    4    4    0    0  0.69726005659E-01 -0.34126066974E-01  0.11308385309E-01  0.78450270947E-01  0.51100000000E-03 0. -1.
</event>
<event>
 8    1  0.1122465E+005  0.1043930E+01  0.7957747E-01            NaN
         13   -1    0    0    0    0  0.00000000000E+00  0.00000000000E+00  0.74505805969E-08  0.10566000000E+00  0.10566000000E+00 0. -1.
     999900   -1    0    0    0    0 -0.00000000000E+00 -0.00000000000E+00 -0.74505805969E-08  0.93827000000E+00  0.93827000000E+00 0. -1.
     999902    2    1    2    0    0  0.21475200632E-01  0.42141075881E-02 -0.84797141684E-02  0.10204598381E+01  0.10201899004E+01 0.  0.
     999903    2    3    3    0    0 -0.57863246923E-01 -0.61941123014E-01  0.94297889330E-01  0.12847646410E+00  0.20718393543E-01 0.  0.
         14    1    1    2    0    0 -0.21475200632E-01 -0.42141075881E-02  0.84797141684E-02  0.23470161852E-01  0.00000000000E+00 0.  1.
     999901    1    3    3    0    0  0.79338447555E-01  0.66155230602E-01 -0.10277760350E+00  0.89198337405E+00  0.88000000000E+00 0. -1.
        -11    1    4    4    0    0 -0.31273528082E-01 -0.23241254604E-01  0.31752683408E-01  0.50266126754E-01  0.51100000000E-03 0.  1.
         11    1    4    4    0    0 -0.26589718840E-01 -0.38699868410E-01  0.62545205922E-01  0.78210337346E-01  0.51100000000E-03 0. -1.
</event>
<event>
 8    1  0.1122465E+005  0.1043930E+01  0.7957747E-01            NaN
         13   -1    0    0    0    0  0.00000000000E+00  0.00000000000E+00  0.74505805969E-08  0.10566000000E+00  0.10566000000E+00 0.  1.
     999900   -1    0    0    0    0 -0.00000000000E+00 -0.00000000000E+00 -0.74505805969E-08  0.93827000000E+00  0.93827000000E+00 0. -1.
     999902    2    1    2    0    0 -0.14778423503E-01 -0.87366035241E-02 -0.14036049604E-01  0.10217547721E+01  0.10215141084E+01 0.  0.
     999903    2    3    3    0    0  0.45212374332E-01 -0.11750978269E+00  0.32751759766E-01  0.13179994214E+00  0.21114903695E-01 0.  0.
         14    1    1    2    0    0  0.14778423503E-01  0.87366035241E-02  0.14036049604E-01  0.22175227865E-01  0.00000000000E+00 0. -1.
     999901    1    3    3    0    0 -0.59990797835E-01  0.10877317917E+00 -0.46787809370E-01  0.88995483000E+00  0.88000000000E+00 0. -1.
        -11    1    4    4    0    0 -0.92102478533E-03 -0.10360464708E-01  0.63254030079E-02  0.12184390006E-01  0.51100000000E-03 0.  1.
         11    1    4    4    0    0  0.46133399117E-01 -0.10714931799E+00  0.26426356758E-01  0.11961555213E+00  0.51100000000E-03 0. -1.
</event>
<event>
 8    1  0.1122465E+005  0.1043930E+01  0.7957747E-01            NaN
         13   -1    0    0    0    0  0.00000000000E+00  0.00000000000E+00  0.74505805969E-08  0.10566000000E+00  0.10566000000E+00 0.  1.
     999900   -1    0    0    0    0 -0.00000000000E+00 -0.00000000000E+00 -0.74505805969E-08  0.93827000000E+00  0.93827000000E+00 0.  1.
     999902    2    1    2    0    0  0.19553513940E-01 -0.11190617187E-01 -0.65965254659E-02  0.10204548223E+01  0.10201847678E+01 0.  0.
     999903    2    3    3    0    0 -0.82470938856E-01 -0.32701289058E-01 -0.93530060277E-01  0.13004528873E+00  0.17119430008E-01 0.  0.
         14    1    1    2    0    0 -0.19553513940E-01  0.11190617187E-01  0.65965254659E-02  0.23475177713E-01  0.00000000000E+00 0.  1.
     999901    1    3    3    0    0  0.10202445280E+00  0.21510671871E-01  0.86933534812E-01  0.89040953356E+00  0.88000000000E+00 0. -1.
        -11    1    4    4    0    0 -0.34717715646E-01 -0.69596703349E-02 -0.29242309959E-01  0.45925271949E-01  0.51100000000E-03 0.  1.
         11    1    4    4    0    0 -0.47753223210E-01 -0.25741618723E-01 -0.64287750318E-01  0.84120016782E-01  0.51100000000E-03 0. -1.
</event>
<event>
 8    1  0.1122465E+005  0.1043930E+01  0.7957747E-01            NaN
         13   -1    0    0    0    0  0.00000000000E+00  0.00000000000E+00  0.74505805969E-08  0.10566000000E+00  0.10566000000E+00 0. -1.
     999900   -1    0    0    0    0 -0.00000000000E+00 -0.00000000000E+00 -0.74505805969E-08  0.93827000000E+00  0.93827000000E+00 0. -1.
     999902    2    1    2    0    0  0.13238275998E-01 -0.16000997850E-01 -0.16876131645E-01  0.10171701849E+01  0.10168181240E+01 0.  0.
     999903    2    3    3    0    0  0.64081683225E-01 -0.11116945405E+00  0.94705359905E-02  0.13018865523E+00  0.19856617561E-01 0.  0.
         14    1    1    2    0    0 -0.13238275998E-01  0.16000997850E-01  0.16876131645E-01  0.26759815076E-01  0.00000000000E+00 0. -1.
     999901    1    3    3    0    0 -0.50843407227E-01  0.95168456201E-01 -0.26346667636E-01  0.88698152969E+00  0.88000000000E+00 0.  1.
        -11    1    4    4    0    0  0.22264205411E-01 -0.28042607326E-01 -0.45013667162E-02  0.36091634648E-01  0.51100000000E-03 0.  1.
         11    1    4    4    0    0  0.41817477814E-01 -0.83126846725E-01  0.13971902707E-01  0.94097020587E-01  0.51100000000E-03 0. -1.
</event>
<event>
 8    1  0.1122465E+005  0.1043930E+01  0.7957747E-01            NaN
         13   -1    0    0    0    0  0.00000000000E+00  0.00000000000E+00  0.74505805969E-08  0.10566000000E+00  0.10566000000E+00 0. -1.
     999900   -1    0    0    0    0 -0.00000000000E+00 -0.00000000000E+00 -0.74505805969E-08  0.93827000000E+00  0.93827000000E+00 0.  1.
     999902    2    1    2    0    0 -0.21104923413E-01  0.14288459736E-01 -0.28103467227E-02  0.10182887067E+01  0.10179658217E+01 0.  0.
     999903    2    3    3    0    0 -0.11730189115E+00  0.56767792000E-01 -0.21659974961E-02  0.13202759085E+00  0.21077887090E-01 0.  0.
         14    1    1    2    0    0  0.21104923413E-01 -0.14288459736E-01  0.28103467227E-02  0.25641293310E-01  0.00000000000E+00 0. -1.
     999901    1    3    3    0    0  0.96196967734E-01 -0.42479332264E-01 -0.64434922655E-03  0.88626111584E+00  0.88000000000E+00 0. -1.
        -11    1    4    4    0    0 -0.90821541163E-01  0.46525303138E-01  0.67357849826E-02  0.10226821643E+00  0.51100000000E-03 0. -1.
         11    1    4    4    0    0 -0.26480349985E-01  0.10242488862E-01 -0.89017824787E-02  0.29759374417E-01  0.51100000000E-03 0.  1.
</event>
<event>
 8    1  0.1122465E+005  0.1043930E+01  0.7957747E-01            NaN
         13   -1    0    0    0    0  0.00000000000E+00  0.00000000000E+00  0.74505805969E-08  0.10566000000E+00  0.10566000000E+00 0. -1.
     999900   -1    0    0    0    0 -0.00000000000E+00 -0.00000000000E+00 -0.74505805969E-08  0.93827000000E+00  0.93827000000E+00 0. -1.
     999902    2    1    2    0    0  0.33744425497E-02  0.22246830743E-01 -0.73393830453E-02  0.10202619861E+01  0.10199874241E+01 0.  0.
     999903    2    3    3    0    0 -0.11837680203E+00  0.12159365442E-01 -0.50661348086E-01  0.13076667119E+00  0.19298514884E-01 0.  0.
         14    1    1    2    0    0 -0.33744425497E-02 -0.22246830743E-01  0.73393830453E-02  0.23668013946E-01  0.00000000000E+00 0. -1.
     999901    1    3    3    0    0  0.12175124458E+00  0.10087465302E-01  0.43321965040E-01  0.88949531487E+00  0.88000000000E+00 0. -1.
        -11    1    4    4    0    0 -0.13896014112E-01 -0.75570617440E-03  0.18643321187E-04  0.13925938697E-01  0.51100000000E-03 0.  1.
         11    1    4    4    0    0 -0.10448078792E+00  0.12915071616E-01 -0.50679991407E-01  0.11684073249E+00  0.51100000000E-03 0. -1.
</event>
<event>
 8    1  0.1122465E+005  0.1043930E+01  0.7957747E-01            NaN
         13   -1    0    0    0    0  0.00000000000E+00  0.00000000000E+00  0.74505805969E-08  0.10566000000E+00  0.10566000000E+00 0. -1.
     999900   -1    0    0    0    0 -0.00000000000E+00 -0.00000000000E+00 -0.74505805969E-08  0.93827000000E+00  0.93827000000E+00 0.  1.
     999902    2    1    2    0    0  0.74499180994E-02  0.19803597896E-01 -0.97058274805E-02  0.10206515366E+01  0.10203860409E+01 0.  0.
     999903    2    3    3    0    0  0.12796007391E+00 -0.48870470216E-02 -0.25449364196E-01  0.13195575936E+00  0.19156945162E-01 0.  0.
         14    1    1    2    0    0 -0.74499180994E-02 -0.19803597896E-01  0.97058274805E-02  0.23278463360E-01  0.00000000000E+00 0.  1.
     999901    1    3    3    0    0 -0.12051015581E+00  0.24690644918E-01  0.15743536716E-01  0.88869577728E+00  0.88000000000E+00 0. -1.
        -11    1    4    4    0    0  0.83163033526E-01  0.56159422179E-02 -0.13790888966E-01  0.84487151045E-01  0.51100000000E-03 0.  1.
         11    1    4    4    0    0  0.44797040383E-01 -0.10502989240E-01 -0.11658475230E-01  0.47468608319E-01  0.51100000000E-03 0. -1.
</event>
<event>
 8    1  0.1122465E+005  0.1043930E+01  0.7957747E-01            NaN
         13   -1    0    0    0    0  0.00000000000E+00  0.00000000000E+00  0.74505805969E-08  0.10566000000E+00  0.10566000000E+00 0.  1.
     999900   -1    0    0    0    0 -0.00000000000E+00 -0.00000000000E+00 -0.74505805969E-08  0.93827000000E+00  0.93827000000E+00 0.  1.
     999902    2    1    2    0    0 -0.23536100579E-02 -0.22250085535E-01  0.91884155198E-02  0.10197425494E+01  0.10194556559E+01 0.  0.
     999903    2    3    3    0    0  0.16630849513E-01  0.12347883916E+00  0.16491040496E-01  0.12752583944E+00  0.21616577720E-01 0.  0.
         14    1    1    2    0    0  0.23536100579E-02  0.22250085535E-01 -0.91884155198E-02  0.24187450597E-01  0.00000000000E+00 0. -1.
     999901    1    3    3    0    0 -0.18984459571E-01 -0.14572892470E+00 -0.73026249757E-02  0.89221670996E+00  0.88000000000E+00 0.  1.
        -11    1    4    4    0    0  0.47399984794E-02  0.97844012262E-02  0.67242006910E-02  0.12793673783E-01  0.51100000000E-03 0.  1.
         11    1    4    4    0    0  0.11890851034E-01  0.11369443794E+00  0.97668398045E-02  0.11473216566E+00  0.51100000000E-03 0. -1.
</event>
<event>
 8    1  0.1122465E+005  0.1043930E+01  0.7957747E-01            NaN
         13   -1    0    0    0    0  0.00000000000E+00  0.00000000000E+00  0.74505805969E-08  0.10566000000E+00  0.10566000000E+00 0.  1.
     999900   -1    0    0    0    0 -0.00000000000E+00 -0.00000000000E+00 -0.74505805969E-08  0.93827000000E+00  0.93827000000E+00 0. -1.
     999902    2    1    2    0    0  0.25460968996E-02 -0.13600852034E-01 -0.19161002256E-01  0.10202950726E+01  0.10200212867E+01 0.  0.
     999903    2    3    3    0    0 -0.47471793987E-01 -0.11359565377E+00  0.39697712962E-01  0.13127027085E+00  0.22325586557E-01 0.  0.
         14    1    1    2    0    0 -0.25460968996E-02  0.13600852034E-01  0.19161002256E-01  0.23634927394E-01  0.00000000000E+00 0. -1.
     999901    1    3    3    0    0  0.50017890886E-01  0.99994801733E-01 -0.58858715218E-01  0.88902480176E+00  0.88000000000E+00 0. -1.
        -11    1    4    4    0    0 -0.34131657655E-01 -0.60557197322E-01  0.30052830333E-01  0.75733598447E-01  0.51100000000E-03 0.  1.
         11    1    4    4    0    0 -0.13340136332E-01 -0.53038456446E-01  0.96448826286E-02  0.55536672402E-01  0.51100000000E-03 0. -1.
</event>
<event>
 8    1  0.1122465E+005  0.1043930E+01  0.7957747E-01            NaN
         13   -1    0    0    0    0  0.00000000000E+00  0.00000000000E+00  0.74505805969E-08  0.10566000000E+00  0.10566000000E+00 0. -1.
     999900   -1    0    0    0    0 -0.00000000000E+00 -0.00000000000E+00 -0.74505805969E-08  0.93827000000E+00  0.93827000000E+00 0. -1.
     999902    2    1    2    0    0  0.17409490381E-03  0.20236877538E-02  0.23559380987E-01  0.10202832232E+01  0.10200091595E+01 0.  0.
     999903    2    3    3    0    0  0.62298557430E-01 -0.60629555538E-01 -0.91687929986E-01  0.12839375670E+00  0.22830396234E-01 0.  0.
         14    1    1    2    0    0 -0.17409490381E-03 -0.20236877538E-02 -0.23559380987E-01  0.23646776813E-01  0.00000000000E+00 0.  1.
     999901    1    3    3    0    0 -0.62124462527E-01  0.62653243292E-01  0.11524731097E+00  0.89188946648E+00  0.88000000000E+00 0.  1.
        -11    1    4    4    0    0  0.50494820625E-01 -0.34657025369E-01 -0.59697756305E-01  0.85527302928E-01  0.51100000000E-03 0.  1.
         11    1    4    4    0    0  0.11803736806E-01 -0.25972530169E-01 -0.31990173681E-01  0.42866453774E-01  0.51100000000E-03 0. -1.
</event>
<event>
 8    1  0.1122465E+005  0.1043930E+01  0.7957747E-01            NaN
         13   -1    0    0    0    0  0.00000000000E+00  0.00000000000E+00  0.74505805969E-08  0.10566000000E+00  0.10566000000E+00 0. -1.
     999900   -1    0    0    0    0 -0.00000000000E+00 -0.00000000000E+00 -0.74505805969E-08  0.93827000000E+00  0.93827000000E+00 0.  1.
     999902    2    1    2    0    0 -0.30745792703E-01 -0.16243036407E-02 -0.44694345381E-02  0.10128186198E+01  0.10123406732E+01 0.  0.
     999903    2    3    3    0    0 -0.14554679397E-01  0.60760457729E-01 -0.10596374111E+00  0.12464346544E+00  0.20099928663E-01 0.  0.
         14    1    1    2    0    0  0.30745792703E-01  0.16243036407E-02  0.44694345381E-02  0.31111380174E-01  0.00000000000E+00 0. -1.
     999901    1    3    3    0    0 -0.16191113305E-01 -0.62384761369E-01  0.10149430657E+00  0.88817515439E+00  0.88000000000E+00 0.  1.
        -11    1    4    4    0    0 -0.16637158884E-01  0.39553618025E-01 -0.82154344693E-01  0.92687006789E-01  0.51100000000E-03 0.  1.
         11    1    4    4    0    0  0.20824794863E-02  0.21206839704E-01 -0.23809396413E-01  0.31956458652E-01  0.51100000000E-03 0. -1.
</event>
<event>
 8    1  0.1122465E+005  0.1043930E+01  0.7957747E-01            NaN
         13   -1    0    0    0    0  0.00000000000E+00  0.00000000000E+00  0.74505805969E-08  0.10566000000E+00  0.10566000000E+00 0.  1.
     999900   -1    0    0    0    0 -0.00000000000E+00 -0.00000000000E+00 -0.74505805969E-08  0.93827000000E+00  0.93827000000E+00 0.  1.
     999902    2    1    2    0    0 -0.53552161595E-02 -0.20794744476E-01  0.82360709229E-02  0.10209314652E+01  0.10206723882E+01 0.  0.
     999903    2    3    3    0    0 -0.56606105092E-01  0.10629726676E+00  0.43706016019E-01  0.12961942674E+00  0.19688064835E-01 0.  0.
         14    1    1    2    0    0  0.53552161595E-02  0.20794744476E-01 -0.82360709229E-02  0.22998534783E-01  0.00000000000E+00 0.  1.
     999901    1    3    3    0    0  0.51250888932E-01 -0.12709201123E+00 -0.35469945096E-01  0.89131203848E+00  0.88000000000E+00 0. -1.
        -11    1    4    4    0    0 -0.34231426733E-01  0.75600428175E-01  0.21962490791E-01  0.85847699091E-01  0.51100000000E-03 0. -1.
         11    1    4    4    0    0 -0.22374678359E-01  0.30696838584E-01  0.21743525227E-01  0.43771727645E-01  0.51100000000E-03 0.  1.
</event>
<event>
 8    1  0.1122465E+005  0.1043930E+01  0.7957747E-01            NaN
         13   -1    0    0    0    0  0.00000000000E+00  0.00000000000E+00  0.74505805969E-08  0.10566000000E+00  0.10566000000E+00 0. -1.
     999900   -1    0    0    0    0 -0.00000000000E+00 -0.00000000000E+00 -0.74505805969E-08  0.93827000000E+00  0.93827000000E+00 0. -1.
     999902    2    1    2    0    0  0.13620453492E-01  0.18427089916E-01  0.16052786774E-02  0.10209593379E+01  0.10207008957E+01 0.  0.
     999903    2    3    3    0    0 -0.31429305891E-01  0.10410446467E+00  0.73445234164E-01  0.13274141841E+00  0.20013518109E-01 0.  0.
         14    1    1    2    0    0 -0.13620453492E-01 -0.18427089916E-01 -0.16052786774E-02  0.22970662065E-01  0.00000000000E+00 0. -1.
     999901    1    3    3    0    0  0.45049759383E-01 -0.85677374752E-01 -0.71839955486E-01  0.88821791953E+00  0.88000000000E+00 0. -1.
        -11    1    4    4    0    0 -0.16290264174E-01  0.41665957994E-01  0.19325273781E-01  0.48735532111E-01  0.51100000000E-03 0. -1.
         11    1    4    4    0    0 -0.15139041717E-01  0.62438506673E-01  0.54119960383E-01  0.84005886297E-01  0.51100000000E-03 0.  1.
</event>
<event>
 8    1  0.1122465E+005  0.1043930E+01  0.7957747E-01            NaN
         13   -1    0    0    0    0  0.00000000000E+00  0.00000000000E+00  0.74505805969E-08  0.10566000000E+00  0.10566000000E+00 0. -1.
     999900   -1    0    0    0    0 -0.00000000000E+00 -0.00000000000E+00 -0.74505805969E-08  0.93827000000E+00  0.93827000000E+00 0. -1.
     999902    2    1    2    0    0 -0.23567076621E-01  0.26981224693E-02  0.45358816900E-02  0.10197791990E+01  0.10194931847E+01 0.  0.
     999903    2    3    3    0    0  0.36394084530E-01 -0.11592491168E+00 -0.37583712758E-01  0.12880174402E+00  0.20352868600E-01 0.  0.
         14    1    1    2    0    0  0.23567076621E-01 -0.26981224693E-02 -0.45358816900E-02  0.24150800981E-01  0.00000000000E+00 0.  1.
     999901    1    3    3    0    0 -0.59961161151E-01  0.11862303415E+00  0.42119594448E-01  0.89097745500E+00  0.88000000000E+00 0.  1.
        -11    1    4    4    0    0  0.32513032374E-01 -0.79814136342E-01 -0.32580033767E-01  0.92136384536E-01  0.51100000000E-03 0. -1.
         11    1    4    4    0    0  0.38810521560E-02 -0.36110775343E-01 -0.50036789915E-02  0.36665359484E-01  0.51100000000E-03 0.  1.
</event>
<event>
 8    1  0.1122465E+005  0.1043930E+01  0.7957747E-01            NaN
         13   -1    0    0    0    0  0.00000000000E+00  0.00000000000E+00  0.74505805969E-08  0.10566000000E+00  0.10566000000E+00 0. -1.
     999900   -1    0    0    0    0 -0.00000000000E+00 -0.00000000000E+00 -0.74505805969E-08  0.93827000000E+00  0.93827000000E+00 0.  1.
     999902    2    1    2    0    0  0.12252552340E-01 -0.39132318396E-02 -0.19597200529E-01  0.10204888249E+01  0.10202195612E+01 0.  0.
     999903    2    3    3    0    0  0.92690535820E-01 -0.68486000662E-01  0.59648627363E-01  0.13092724023E+00  0.17381477772E-01 0.  0.
         14    1    1    2    0    0 -0.12252552340E-01  0.39132318396E-02  0.19597200529E-01  0.23441175117E-01  0.00000000000E+00 0. -1.
     999901    1    3    3    0    0 -0.80437983480E-01  0.64572768823E-01 -0.79245827892E-01  0.88956158466E+00  0.88000000000E+00 0. -1.
        -11    1    4    4    0    0  0.69698375271E-01 -0.45534115050E-01  0.35817568165E-01  0.90633208368E-01  0.51100000000E-03 0. -1.
         11    1    4    4    0    0  0.22992160549E-01 -0.22951885613E-01  0.23831059198E-01  0.40294031858E-01  0.51100000000E-03 0.  1.
</event>
<event>
 8    1  0.1122465E+005  0.1043930E+01  0.7957747E-01            NaN
         13   -1    0    0    0    0  0.00000000000E+00  0.00000000000E+00  0.74505805969E-08  0.10566000000E+00  0.10566000000E+00 0.  1.
     999900   -1    0    0    0    0 -0.00000000000E+00 -0.00000000000E+00 -0.74505805969E-08  0.93827000000E+00  0.93827000000E+00 0.  1.
     999902    2    1    2    0    0 -0.70615389880E-02 -0.14455863463E-02 -0.22442286727E-01  0.10203585918E+01  0.10200862927E+01 0.  0.
     999903    2    3    3    0    0 -0.29549465335E-01 -0.75428351494E-01  0.98182592486E-01  0.12877039206E+00  0.19477815387E-01 0.  0.
         14    1    1    2    0    0  0.70615389880E-02  0.14455863463E-02  0.22442286727E-01  0.23571408237E-01  0.00000000000E+00 0.  1.
     999901    1    3    3    0    0  0.22487926347E-01  0.73982765148E-01 -0.12062487921E+00  0.89158819971E+00  0.88000000000E+00 0.  1.
        -11    1    4    4    0    0 -0.21543406078E-01 -0.30328825507E-01  0.49525584781E-01  0.61943528080E-01  0.51100000000E-03 0.  1.
         11    1    4    4    0    0 -0.80060592573E-02 -0.45099525987E-01  0.48657007705E-01  0.66826863977E-01  0.51100000000E-03 0. -1.
</event>
<event>
 8    1  0.1122465E+005  0.1043930E+01  0.7957747E-01            NaN
         13   -1    0    0    0    0  0.00000000000E+00  0.00000000000E+00  0.74505805969E-08  0.10566000000E+00  0.10566000000E+00 0.  1.
     999900   -1    0    0    0    0 -0.00000000000E+00 -0.00000000000E+00 -0.74505805969E-08  0.93827000000E+00  0.93827000000E+00 0. -1.
     999902    2    1    2    0    0  0.24969441537E-02 -0.19470833065E-01  0.12875526026E-01  0.10204539006E+01  0.10201838247E+01 0.  0.
     999903    2    3    3    0    0 -0.30219672846E-01 -0.19656856479E-01  0.12569449139E+00  0.13264844303E+00  0.22290886901E-01 0.  0.
         14    1    1    2    0    0 -0.24969441537E-02  0.19470833065E-01 -0.12875526026E-01  0.23476099353E-01  0.00000000000E+00 0. -1.
     999901    1    3    3    0    0  0.32716617000E-01  0.18602341333E-03 -0.11281896536E+00  0.88780545762E+00  0.88000000000E+00 0. -1.
        -11    1    4    4    0    0 -0.29477879864E-01 -0.78051506759E-02  0.90914091642E-01  0.95893164295E-01  0.51100000000E-03 0.  1.
         11    1    4    4    0    0 -0.74179298247E-03 -0.11851705803E-01  0.34780399746E-01  0.36755278733E-01  0.51100000000E-03 0. -1.
</event>
<event>
 8    1  0.1122465E+005  0.1043930E+01  0.7957747E-01            NaN
         13   -1    0    0    0    0  0.00000000000E+00  0.00000000000E+00  0.74505805969E-08  0.10566000000E+00  0.10566000000E+00 0.  1.
     999900   -1    0    0    0    0 -0.00000000000E+00 -0.00000000000E+00 -0.74505805969E-08  0.93827000000E+00  0.93827000000E+00 0.  1.
     999902    2    1    2    0    0  0.12022605867E-02  0.18766766948E-02 -0.23001410424E-01  0.10208208627E+01  0.10205592592E+01 0.  0.
     999903    2    3    3    0    0 -0.81048704621E-01 -0.40176532731E-01  0.89605169988E-01  0.12884892610E+00  0.19746213963E-01 0.  0.
         14    1    1    2    0    0 -0.12022605867E-02 -0.18766766948E-02  0.23001410424E-01  0.23109137315E-01  0.00000000000E+00 0.  1.
     999901    1    3    3    0    0  0.82250965208E-01  0.42053209426E-01 -0.11260658041E+00  0.89197193658E+00  0.88000000000E+00 0. -1.
        -11    1    4    4    0    0 -0.48173230432E-01 -0.20486975208E-01  0.64334373335E-01  0.82943046706E-01  0.51100000000E-03 0. -1.
         11    1    4    4    0    0 -0.32875474189E-01 -0.19689557523E-01  0.25270796653E-01  0.45905879396E-01  0.51100000000E-03 0.  1.
</event>
<event>
 8    1  0.1122465E+005  0.1043930E+01  0.7957747E-01            NaN
         13   -1    0    0    0    0  0.00000000000E+00  0.00000000000E+00  0.74505805969E-08  0.10566000000E+00  0.10566000000E+00 0. -1.
     999900   -1    0    0    0    0 -0.00000000000E+00 -0.00000000000E+00 -0.74505805969E-08  0.93827000000E+00  0.93827000000E+00 0.  1.
     999902    2    1    2    0    0 -0.14876393035E-01 -0.12082880717E-01  0.13578307300E-01  0.10204422690E+01  0.10201719223E+01 0.  0.
     999903    2    3    3    0    0  0.70568999995E-01  0.49001815565E-01  0.95987613464E-01  0.13037286217E+00  0.20057406716E-01 0.  0.
         14    1    1    2    0    0  0.14876393035E-01  0.12082880717E-01 -0.13578307300E-01  0.23487730952E-01  0.00000000000E+00 0.  1.
     999901    1    3    3    0    0 -0.85445393030E-01 -0.61084696281E-01 -0.82409306163E-01  0.89006940687E+00  0.88000000000E+00 0.  1.
        -11    1    4    4    0    0  0.46948353168E-01  0.43392512523E-01  0.68735601625E-01  0.93871731954E-01  0.51100000000E-03 0. -1.
         11    1    4    4    0    0  0.23620646826E-01  0.56093030418E-02  0.27252011839E-01  0.36501130220E-01  0.51100000000E-03 0.  1.
</event>
<event>
 8    1  0.1122465E+005  0.1043930E+01  0.7957747E-01            NaN
         13   -1    0    0    0    0  0.00000000000E+00  0.00000000000E+00  0.74505805969E-08  0.10566000000E+00  0.10566000000E+00 0.  1.
     999900   -1    0    0    0    0 -0.00000000000E+00 -0.00000000000E+00 -0.74505805969E-08  0.93827000000E+00  0.93827000000E+00 0.  1.
     999902    2    1    2    0    0  0.18817958635E-01 -0.58061445216E-02 -0.11634276748E-01  0.10210568000E+01  0.10208005709E+01 0.  0.
     999903    2    3    3    0    0 -0.35787845814E-01 -0.12169260947E+00 -0.28743488972E-01  0.13161641879E+00  0.20170087483E-01 0.  0.
         14    1    1    2    0    0 -0.18817958635E-01  0.58061445216E-02  0.11634276748E-01  0.22873199969E-01  0.00000000000E+00 0.  1.
     999901    1    3    3    0    0  0.54605804449E-01  0.11588646495E+00  0.17109212224E-01  0.88944038124E+00  0.88000000000E+00 0.  1.
        -11    1    4    4    0    0 -0.23002231551E-01 -0.82836795254E-01 -0.97828365071E-02  0.86527465671E-01  0.51100000000E-03 0. -1.
         11    1    4    4    0    0 -0.12785614263E-01 -0.38855814217E-01 -0.18960652464E-01  0.45088953119E-01  0.51100000000E-03 0.  1.
</event>
<event>
 8    1  0.1122465E+005  0.1043930E+01  0.7957747E-01            NaN
         13   -1    0    0    0    0  0.00000000000E+00  0.00000000000E+00  0.74505805969E-08  0.10566000000E+00  0.10566000000E+00 0.  1.
     999900   -1    0    0    0    0 -0.00000000000E+00 -0.00000000000E+00 -0.74505805969E-08  0.93827000000E+00  0.93827000000E+00 0. -1.
     999902    2    1    2    0    0  0.97633180240E-03 -0.10856843533E-01  0.23151801410E-01  0.10183403501E+01  0.10180187810E+01 0.  0.
     999903    2    3    3    0    0  0.68758089750E-01 -0.85930882552E-01  0.68867291646E-01  0.13136775517E+00  0.20074654610E-01 0.  0.
         14    1    1    2    0    0 -0.97633180240E-03  0.10856843533E-01 -0.23151801410E-01  0.25589649935E-01  0.00000000000E+00 0. -1.
     999901    1    3    3    0    0 -0.67781757948E-01  0.75074039019E-01 -0.45715490237E-01  0.88697259489E+00  0.88000000000E+00 0. -1.
        -11    1    4    4    0    0  0.13435978667E-01 -0.12127477406E-01  0.20022354738E-01  0.26995500389E-01  0.51100000000E-03 0. -1.
         11    1    4    4    0    0  0.55322111083E-01 -0.73803405145E-01  0.48844936909E-01  0.10437225478E+00  0.51100000000E-03 0.  1.
</event>
<event>
 8    1  0.1122465E+005  0.1043930E+01  0.7957747E-01            NaN
         13   -1    0    0    0    0  0.00000000000E+00  0.00000000000E+00  0.74505805969E-08  0.10566000000E+00  0.10566000000E+00 0. -1.
     999900   -1    0    0    0    0 -0.00000000000E+00 -0.00000000000E+00 -0.74505805969E-08  0.93827000000E+00  0.93827000000E+00 0. -1.
     999902    2    1    2    0    0  0.28026935143E-02 -0.24897080566E-01 -0.20990709405E-02  0.10187878877E+01  0.10184776062E+01 0.  0.
     999903    2    3    3    0    0  0.42994119998E-01  0.49734577775E-01 -0.10825371907E+00  0.12836436797E+00  0.20893077594E-01 0.  0.
         14    1    1    2    0    0 -0.28026935143E-02  0.24897080566E-01  0.20990709405E-02  0.25142112291E-01  0.00000000000E+00 0.  1.
     999901    1    3    3    0    0 -0.40191426484E-01 -0.74631658341E-01  0.10615464813E+00  0.89042351974E+00  0.88000000000E+00 0. -1.
        -11    1    4    4    0    0  0.35679330246E-01  0.47688351102E-01 -0.84211555842E-01  0.10314572553E+00  0.51100000000E-03 0. -1.
         11    1    4    4    0    0  0.73147897522E-02  0.20462266729E-02 -0.24042163224E-01  0.25218642434E-01  0.51100000000E-03 0.  1.
</event>
<event>
 8    1  0.1122465E+005  0.1043930E+01  0.7957747E-01            NaN
         13   -1    0    0    0    0  0.00000000000E+00  0.00000000000E+00  0.74505805969E-08  0.10566000000E+00  0.10566000000E+00 0.  1.
     999900   -1    0    0    0    0 -0.00000000000E+00 -0.00000000000E+00 -0.74505805969E-08  0.93827000000E+00  0.93827000000E+00 0.  1.
     999902    2    1    2    0    0  0.72057521259E-02 -0.13541563291E-02  0.23086641544E-01  0.10197070848E+01  0.10194193392E+01 0.  0.
     999903    2    3    3    0    0 -0.99460109990E-01  0.53700683163E-01 -0.57025814872E-01  0.12795227143E+00  0.18540856264E-01 0.  0.
         14    1    1    2    0    0 -0.72057521259E-02  0.13541563291E-02 -0.23086641544E-01  0.24222915201E-01  0.00000000000E+00 0. -1.
     999901    1    3    3    0    0  0.10666586212E+00 -0.55054839492E-01  0.80112456417E-01  0.89175481337E+00  0.88000000000E+00 0. -1.
        -11    1    4    4    0    0 -0.54137027098E-01  0.38619306066E-01 -0.28829054626E-01  0.72482025466E-01  0.51100000000E-03 0.  1.
         11    1    4    4    0    0 -0.45323082892E-01  0.15081377097E-01 -0.28196760247E-01  0.55470245965E-01  0.51100000000E-03 0. -1.
</event>
<event>
 8    1  0.1122465E+005  0.1043930E+01  0.7957747E-01            NaN
         13   -1    0    0    0    0  0.00000000000E+00  0.00000000000E+00  0.74505805969E-08  0.10566000000E+00  0.10566000000E+00 0. -1.
     999900   -1    0    0    0    0 -0.00000000000E+00 -0.00000000000E+00 -0.74505805969E-08  0.93827000000E+00  0.93827000000E+00 0. -1.
     999902    2    1    2    0    0  0.20794545720E-01  0.12950811501E-01  0.32853050057E-03  0.10194301106E+01  0.10191356660E+01 0.  0.
     999903    2    3    3    0    0  0.42994585519E-01  0.12309793603E+00  0.89393039812E-02  0.13224389774E+00  0.20171789580E-01 0.  0.
         14    1    1    2    0    0 -0.20794545720E-01 -0.12950811501E-01 -0.32853050057E-03  0.24499889439E-01  0.00000000000E+00 0. -1.
     999901    1    3    3    0    0 -0.22200039799E-01 -0.11014712452E+00 -0.86107734806E-02  0.88718621283E+00  0.88000000000E+00 0. -1.
        -11    1    4    4    0    0  0.15116792379E-02  0.28844156083E-01  0.13867126460E-03  0.28888594029E-01  0.51100000000E-03 0. -1.
         11    1    4    4    0    0  0.41482906281E-01  0.94253779942E-01  0.88006327166E-02  0.10335530371E+00  0.51100000000E-03 0.  1.
</event>
<event>
 8    1  0.1122465E+005  0.1043930E+01  0.7957747E-01            NaN
         13   -1    0    0    0    0  0.00000000000E+00  0.00000000000E+00  0.74505805969E-08  0.10566000000E+00  0.10566000000E+00 0. -1.
     999900   -1    0    0    0    0 -0.00000000000E+00 -0.00000000000E+00 -0.74505805969E-08  0.93827000000E+00  0.93827000000E+00 0.  1.
     999902    2    1    2    0    0  0.10186093476E-01  0.21923841489E-01 -0.27611003743E-02  0.10195982306E+01  0.10193078617E+01 0.  0.
     999903    2    3    3    0    0  0.47181469010E-01  0.11070904477E+00 -0.52905336401E-01  0.13293825377E+00  0.19774253110E-01 0.  0.
         14    1    1    2    0    0 -0.10186093476E-01 -0.21923841489E-01  0.27611003743E-02  0.24331769381E-01  0.00000000000E+00 0.  1.
     999901    1    3    3    0    0 -0.36995375533E-01 -0.88785203276E-01  0.50144236027E-01  0.88665997684E+00  0.88000000000E+00 0.  1.
        -11    1    4    4    0    0  0.14958728019E-02  0.10143171532E-01 -0.10318219678E-01  0.14555010907E-01  0.51100000000E-03 0.  1.
         11    1    4    4    0    0  0.45685596208E-01  0.10056587323E+00 -0.42587116723E-01  0.11838324287E+00  0.51100000000E-03 0. -1.
</event>
<event>
 8    1  0.1122465E+005  0.1043930E+01  0.7957747E-01            NaN
         13   -1    0    0    0    0  0.00000000000E+00  0.00000000000E+00  0.74505805969E-08  0.10566000000E+00  0.10566000000E+00 0.  1.
     999900   -1    0    0    0    0 -0.00000000000E+00 -0.00000000000E+00 -0.74505805969E-08  0.93827000000E+00  0.93827000000E+00 0.  1.
     999902    2    1    2    0    0  0.16147841696E-01  0.16172744850E-01 -0.61481680095E-02  0.10202633476E+01  0.10199888176E+01 0.  0.
     999903    2    3    3    0    0  0.10118913125E+00  0.74292709036E-01  0.39209578748E-01  0.13309522576E+00  0.20452411935E-01 0.  0.
         14    1    1    2    0    0 -0.16147841696E-01 -0.16172744850E-01  0.61481680095E-02  0.23666652431E-01  0.00000000000E+00 0. -1.
     999901    1    3    3    0    0 -0.85041289558E-01 -0.58119964186E-01 -0.45357746757E-01  0.88716812181E+00  0.88000000000E+00 0.  1.
        -11    1    4    4    0    0  0.61635955276E-01  0.32656956864E-01  0.21016156811E-01  0.72851957987E-01  0.51100000000E-03 0. -1.
         11    1    4    4    0    0  0.39553175978E-01  0.41635752173E-01  0.18193421937E-01  0.60243267771E-01  0.51100000000E-03 0.  1.
</event>
<event>
 8    1  0.1122465E+005  0.1043930E+01  0.7957747E-01            NaN
         13   -1    0    0    0    0  0.00000000000E+00  0.00000000000E+00  0.74505805969E-08  0.10566000000E+00  0.10566000000E+00 0.  1.
     999900   -1    0    0    0    0 -0.00000000000E+00 -0.00000000000E+00 -0.74505805969E-08  0.93827000000E+00  0.93827000000E+00 0. -1.
     999902    2    1    2    0    0  0.11381076032E-01  0.19239034573E-02  0.20553339815E-01  0.10203573448E+01  0.10200850166E+01 0.  0.
     999903    2    3    3    0    0 -0.11199947711E+00 -0.44844362009E-01 -0.38664256549E-01  0.12855200994E+00  0.21812722150E-01 0.  0.
         14    1    1    2    0    0 -0.11381076032E-01 -0.19239034573E-02 -0.20553339815E-01  0.23572655211E-01  0.00000000000E+00 0. -1.
     999901    1    3    3    0    0  0.12338055314E+00  0.46768265466E-01  0.59217596363E-01  0.89180533485E+00  0.88000000000E+00 0.  1.
        -11    1    4    4    0    0 -0.55183264534E-01 -0.31392197443E-01 -0.13177387295E-01  0.64842635679E-01  0.51100000000E-03 0.  1.
         11    1    4    4    0    0 -0.56816212577E-01 -0.13452164566E-01 -0.25486869254E-01  0.63709374259E-01  0.51100000000E-03 0. -1.
</event>
<event>
 8    1  0.1122465E+005  0.1043930E+01  0.7957747E-01            NaN
         13   -1    0    0    0    0  0.00000000000E+00  0.00000000000E+00  0.74505805969E-08  0.10566000000E+00  0.10566000000E+00 0. -1.
     999900   -1    0    0    0    0 -0.00000000000E+00 -0.00000000000E+00 -0.74505805969E-08  0.93827000000E+00  0.93827000000E+00 0. -1.
     999902    2    1    2    0    0  0.46636762265E-02  0.21870159491E-01 -0.99893185417E-02  0.10194383639E+01  0.10191441201E+01 0.  0.
     999903    2    3    3    0    0 -0.13723680633E-01 -0.10910462774E+00  0.60024137990E-01  0.12680497117E+00  0.19607252940E-01 0.  0.
         14    1    1    2    0    0 -0.46636762265E-02 -0.21870159491E-01  0.99893185417E-02  0.24491636063E-01  0.00000000000E+00 0. -1.
     999901    1    3    3    0    0  0.18387356860E-01  0.13097478723E+00 -0.70013456531E-01  0.89263339276E+00  0.88000000000E+00 0.  1.
        -11    1    4    4    0    0 -0.14486236834E-01 -0.50814399592E-01  0.34885834815E-01  0.63318534848E-01  0.51100000000E-03 0.  1.
         11    1    4    4    0    0  0.76255620088E-03 -0.58290228150E-01  0.25138303174E-01  0.63486436325E-01  0.51100000000E-03 0. -1.
</event>
<event>
 8    1  0.1122465E+005  0.1043930E+01  0.7957747E-01            NaN
         13   -1    0    0    0    0  0.00000000000E+00  0.00000000000E+00  0.74505805969E-08  0.10566000000E+00  0.10566000000E+00 0. -1.
     999900   -1    0    0    0    0 -0.00000000000E+00 -0.00000000000E+00 -0.74505805969E-08  0.93827000000E+00  0.93827000000E+00 0. -1.
     999902    2    1    2    0    0 -0.17081295243E-01 -0.15121852743E-01 -0.70658036490E-02  0.10200476496E+01  0.10197680329E+01 0.  0.
     999903    2    3    3    0    0  0.94924840111E-01  0.78751653964E-01  0.24821931790E-01  0.12742542423E+00  0.20212920889E-01 0.  0.
         14    1    1    2    0    0  0.17081295243E-01  0.15121852743E-01  0.70658036490E-02  0.23882350361E-01  0.00000000000E+00 0.  1.
     999901    1    3    3    0    0 -0.11200613535E+00 -0.93873506708E-01 -0.31887735439E-01  0.89262222541E+00  0.88000000000E+00 0. -1.
        -11    1    4    4    0    0  0.68331000333E-01  0.53250052100E-01  0.82541220401E-02  0.87023475608E-01  0.51100000000E-03 0.  1.
         11    1    4    4    0    0  0.26593839777E-01  0.25501601864E-01  0.16567809750E-01  0.40401948625E-01  0.51100000000E-03 0. -1.
</event>
<event>
 7    1  0.1122465E+005  0.1043930E+01  0.7957747E-01            NaN
         13   -1    0    0    0    0  0.00000000000E+00  0.00000000000E+00  0.74505805969E-08  0.10566000000E+00  0.10566000000E+00 0.  1.
     999900   -1    0    0    0    0 -0.00000000000E+00 -0.00000000000E+00 -0.74505805969E-08  0.93827000000E+00  0.93827000000E+00 0. -1.
     999903    2    1    2    0    0 -0.82652856349E-02 -0.87329634920E-01 -0.70888512584E-01  0.11453525741E+00  0.19959055380E-01 0.  0.
         14    1    1    2    0    0  0.13362663463E-01  0.30156708378E-01 -0.26298934743E-01  0.42185563925E-01  0.00000000000E+00 0. -1.
     999901    1    1    2    0    0 -0.50973778280E-02  0.57172926541E-01  0.97187447327E-01  0.88720917867E+00  0.88000000000E+00 0.  1.
        -11    1    3    3    0    0  0.27568700321E-03 -0.58242918976E-01 -0.36719798078E-01  0.68854326705E-01  0.51100000000E-03 0. -1.
         11    1    3    3    0    0 -0.85409726381E-02 -0.29086715944E-01 -0.34168714507E-01  0.45680930705E-01  0.51100000000E-03 0.  1.
</event>
<event>
 8    1  0.1122465E+005  0.1043930E+01  0.7957747E-01            NaN
         13   -1    0    0    0    0  0.00000000000E+00  0.00000000000E+00  0.74505805969E-08  0.10566000000E+00  0.10566000000E+00 0. -1.
     999900   -1    0    0    0    0 -0.00000000000E+00 -0.00000000000E+00 -0.74505805969E-08  0.93827000000E+00  0.93827000000E+00 0. -1.
     999902    2    1    2    0    0 -0.19159989324E-01  0.26832807578E-02  0.31501628421E-02  0.10243282472E+01  0.10241406785E+01 0.  0.
     999903    2    3    3    0    0  0.85582232774E-01 -0.29334235921E-01 -0.93860615867E-01  0.13224801223E+00  0.22246473049E-01 0.  0.
         14    1    1    2    0    0  0.19159989324E-01 -0.26832807578E-02 -0.31501628421E-02  0.19601752790E-01  0.00000000000E+00 0.  1.
     999901    1    3    3    0    0 -0.10474222210E+00  0.32017516679E-01  0.97010778709E-01  0.89208023498E+00  0.88000000000E+00 0.  1.
        -11    1    4    4    0    0  0.32610861564E-01 -0.22789722683E-01 -0.39932192277E-01  0.56370922052E-01  0.51100000000E-03 0.  1.
         11    1    4    4    0    0  0.52971371210E-01 -0.65445132378E-02 -0.53928423590E-01  0.75877090174E-01  0.51100000000E-03 0. -1.
</event>
<event>
 8    1  0.1122465E+005  0.1043930E+01  0.7957747E-01            NaN
         13   -1    0    0    0    0  0.00000000000E+00  0.00000000000E+00  0.74505805969E-08  0.10566000000E+00  0.10566000000E+00 0.  1.
     999900   -1    0    0    0    0 -0.00000000000E+00 -0.00000000000E+00 -0.74505805969E-08  0.93827000000E+00  0.93827000000E+00 0.  1.
     999902    2    1    2    0    0  0.15360758312E-01  0.79927525465E-02 -0.15875512110E-01  0.10204381105E+01  0.10201676668E+01 0.  0.
     999903    2    3    3    0    0 -0.45552579291E-01 -0.38111072548E-01  0.11166768026E+00  0.12796779538E+00  0.19457505218E-01 0.  0.
         14    1    1    2    0    0 -0.15360758312E-01 -0.79927525465E-02  0.15875512110E-01  0.23491889535E-01  0.00000000000E+00 0.  1.
     999901    1    3    3    0    0  0.60913337603E-01  0.46103825095E-01 -0.12754319237E+00  0.89247031508E+00  0.88000000000E+00 0.  1.
        -11    1    4    4    0    0 -0.40725014493E-01 -0.31632025779E-01  0.79225513244E-01  0.94530708927E-01  0.51100000000E-03 0. -1.
         11    1    4    4    0    0 -0.48275647976E-02 -0.64790467690E-02  0.32442167015E-01  0.33437086454E-01  0.51100000000E-03 0.  1.
</event>
<event>
 8    1  0.1122465E+005  0.1043930E+01  0.7957747E-01            NaN
         13   -1    0    0    0    0  0.00000000000E+00  0.00000000000E+00  0.74505805969E-08  0.10566000000E+00  0.10566000000E+00 0. -1.
     999900   -1    0    0    0    0 -0.00000000000E+00 -0.00000000000E+00 -0.74505805969E-08  0.93827000000E+00  0.93827000000E+00 0.  1.
     999902    2    1    2    0    0  0.14440891065E-01  0.97117493101E-02 -0.15198504573E-01  0.10208247636E+01  0.10205632494E+01 0.  0.
     999903    2    3    3    0    0 -0.75961560689E-01 -0.95262504974E-01 -0.40242693692E-01  0.12963487990E+00  0.18456005365E-01 0.  0.
         14    1    1    2    0    0 -0.14440891065E-01 -0.97117493101E-02  0.15198504573E-01  0.23105236434E-01  0.00000000000E+00 0. -1.
     999901    1    3    3    0    0  0.90402451754E-01  0.10497425428E+00  0.25044189119E-01  0.89118988367E+00  0.88000000000E+00 0. -1.
        -11    1    4    4    0    0 -0.28438807818E-01 -0.33378965318E-01 -0.54129433503E-02  0.44186900690E-01  0.51100000000E-03 0. -1.
         11    1    4    4    0    0 -0.47522752871E-01 -0.61883539656E-01 -0.34829750341E-01  0.85447979207E-01  0.51100000000E-03 0.  1.
</event>
<event>
 8    1  0.1122465E+005  0.1043930E+01  0.7957747E-01            NaN
         13   -1    0    0    0    0  0.00000000000E+00  0.00000000000E+00  0.74505805969E-08  0.10566000000E+00  0.10566000000E+00 0. -1.
     999900   -1    0    0    0    0 -0.00000000000E+00 -0.00000000000E+00 -0.74505805969E-08  0.93827000000E+00  0.93827000000E+00 0. -1.
     999902    2    1    2    0    0 -0.19851232962E-02  0.98682857480E-03 -0.22033370662E-01  0.10217853851E+01  0.10215453927E+01 0.  0.
     999903    2    3    3    0    0 -0.26037791855E-01 -0.12123531902E+00  0.36779977651E-01  0.13106893520E+00  0.21220976314E-01 0.  0.
         14    1    1    2    0    0  0.19851232962E-02 -0.98682857480E-03  0.22033370662E-01  0.22144614873E-01  0.00000000000E+00 0. -1.
     999901    1    3    3    0    0  0.24052668559E-01  0.12222214760E+00 -0.58813348312E-01  0.89071644993E+00  0.88000000000E+00 0. -1.
        -11    1    4    4    0    0 -0.19382559620E-01 -0.51422731337E-01  0.23110262819E-01  0.59618170755E-01  0.51100000000E-03 0. -1.
         11    1    4    4    0    0 -0.66552322348E-02 -0.69812587685E-01  0.13669714832E-01  0.71450764447E-01  0.51100000000E-03 0.  1.
</event>
<event>
 8    1  0.1122465E+005  0.1043930E+01  0.7957747E-01            NaN
         13   -1    0    0    0    0  0.00000000000E+00  0.00000000000E+00  0.74505805969E-08  0.10566000000E+00  0.10566000000E+00 0. -1.
     999900   -1    0    0    0    0 -0.00000000000E+00 -0.00000000000E+00 -0.74505805969E-08  0.93827000000E+00  0.93827000000E+00 0.  1.
     999902    2    1    2    0    0 -0.26380823088E-01 -0.29225141756E-02  0.53875171884E-02  0.10168465317E+01  0.10164857868E+01 0.  0.
     999903    2    3    3    0    0 -0.29032205781E-01 -0.12160118883E+00  0.23058291670E-01  0.12870019579E+00  0.20058351984E-01 0.  0.
         14    1    1    2    0    0  0.26380823088E-01  0.29225141756E-02 -0.53875171884E-02  0.27083468341E-01  0.00000000000E+00 0.  1.
     999901    1    3    3    0    0  0.26513826933E-02  0.11867867465E+00 -0.17670774481E-01  0.88814633587E+00  0.88000000000E+00 0. -1.
        -11    1    4    4    0    0 -0.61784820753E-02 -0.67054839802E-01  0.15231010383E-01  0.69041798788E-01  0.51100000000E-03 0. -1.
         11    1    4    4    0    0 -0.22853723706E-01 -0.54546349028E-01  0.78272812869E-02  0.59658397002E-01  0.51100000000E-03 0.  1.
</event>
<event>
 8    1  0.1122465E+005  0.1043930E+01  0.7957747E-01            NaN
         13   -1    0    0    0    0  0.00000000000E+00  0.00000000000E+00  0.74505805969E-08  0.10566000000E+00  0.10566000000E+00 0. -1.
     999900   -1    0    0    0    0 -0.00000000000E+00 -0.00000000000E+00 -0.74505805969E-08  0.93827000000E+00  0.93827000000E+00 0. -1.
     999902    2    1    2    0    0  0.49220031527E-02  0.13451760898E-01  0.19778061249E-01  0.10195097688E+01  0.10192172589E+01 0.  0.
     999903    2    3    3    0    0 -0.20168049961E-01 -0.11800564959E+00  0.44270878722E-01  0.12905457078E+00  0.19054867124E-01 0.  0.
         14    1    1    2    0    0 -0.49220031527E-02 -0.13451760898E-01 -0.19778061249E-01  0.24420231225E-01  0.00000000000E+00 0.  1.
     999901    1    3    3    0    0  0.25090053113E-01  0.13145741049E+00 -0.24492817472E-01  0.89045519800E+00  0.88000000000E+00 0.  1.
        -11    1    4    4    0    0 -0.25248910822E-02 -0.42701616616E-01  0.24191963178E-01  0.49145857811E-01  0.51100000000E-03 0. -1.
         11    1    4    4    0    0 -0.17643158879E-01 -0.75304032972E-01  0.20078915544E-01  0.79908712964E-01  0.51100000000E-03 0.  1.
</event>
<event>
 8    1  0.1122465E+005  0.1043930E+01  0.7957747E-01            NaN
         13   -1    0    0    0    0  0.00000000000E+00  0.00000000000E+00  0.74505805969E-08  0.10566000000E+00  0.10566000000E+00 0. -1.
     999900   -1    0    0    0    0 -0.00000000000E+00 -0.00000000000E+00 -0.74505805969E-08  0.93827000000E+00  0.93827000000E+00 0.  1.
     999902    2    1    2    0    0 -0.62493862490E-02  0.13708721753E-01  0.18812300226E-01  0.10198284125E+01  0.10195435765E+01 0.  0.
     999903    2    3    3    0    0  0.17024304326E-01 -0.12457965193E+00  0.18841712282E-01  0.12872497302E+00  0.20129380120E-01 0.  0.
         14    1    1    2    0    0  0.62493862490E-02 -0.13708721753E-01 -0.18812300226E-01  0.24101587508E-01  0.00000000000E+00 0.  1.
     999901    1    3    3    0    0 -0.23273690575E-01  0.13828837369E+00 -0.29412055983E-04  0.89110343947E+00  0.88000000000E+00 0.  1.
        -11    1    4    4    0    0  0.16114173621E-01 -0.72719743147E-01  0.32274628786E-02  0.74555383927E-01  0.51100000000E-03 0. -1.
         11    1    4    4    0    0  0.91013070519E-03 -0.51859908787E-01  0.15614249403E-01  0.54169589096E-01  0.51100000000E-03 0.  1.
</event>
<event>
 8    1  0.1122465E+005  0.1043930E+01  0.7957747E-01            NaN
         13   -1    0    0    0    0  0.00000000000E+00  0.00000000000E+00  0.74505805969E-08  0.10566000000E+00  0.10566000000E+00 0. -1.
     999900   -1    0    0    0    0 -0.00000000000E+00 -0.00000000000E+00 -0.74505805969E-08  0.93827000000E+00  0.93827000000E+00 0.  1.
     999902    2    1    2    0    0 -0.23114490709E-01 -0.51326866973E-02  0.15402876128E-02  0.10202024498E+01  0.10199264885E+01 0.  0.
     999903    2    3    3    0    0  0.81278300986E-01 -0.94661827947E-01 -0.26460770769E-01  0.12908103192E+00  0.19867474213E-01 0.  0.
         14    1    1    2    0    0  0.23114490709E-01  0.51326866973E-02 -0.15402876128E-02  0.23727550219E-01  0.00000000000E+00 0.  1.
     999901    1    3    3    0    0 -0.10439279170E+00  0.89529141250E-01  0.28001058382E-01  0.89112141786E+00  0.88000000000E+00 0. -1.
        -11    1    4    4    0    0  0.17348961639E-01 -0.27380677904E-01  0.53631626536E-03  0.32422781321E-01  0.51100000000E-03 0.  1.
         11    1    4    4    0    0  0.63929339347E-01 -0.67281150043E-01 -0.26997087035E-01  0.96658250604E-01  0.51100000000E-03 0. -1.
</event>
<event>
 8    1  0.1122465E+005  0.1043930E+01  0.7957747E-01            NaN
         13   -1    0    0    0    0  0.00000000000E+00  0.00000000000E+00  0.74505805969E-08  0.10566000000E+00  0.10566000000E+00 0. -1.
     999900   -1    0    0    0    0 -0.00000000000E+00 -0.00000000000E+00 -0.74505805969E-08  0.93827000000E+00  0.93827000000E+00 0. -1.
     999902    2    1    2    0    0  0.50982697350E-02 -0.19353471621E-01 -0.12483329310E-01  0.10203422335E+01  0.10200695519E+01 0.  0.
     999903    2    3    3    0    0 -0.16585883064E-01 -0.19836484495E-01  0.12523902385E+00  0.12936643004E+00  0.19552045736E-01 0.  0.
         14    1    1    2    0    0 -0.50982697350E-02  0.19353471621E-01  0.12483329310E-01  0.23587766506E-01  0.00000000000E+00 0. -1.
     999901    1    3    3    0    0  0.21684152799E-01  0.48301287451E-03 -0.13772235316E+00  0.89097580346E+00  0.88000000000E+00 0. -1.
        -11    1    4    4    0    0  0.18240734380E-02 -0.35649900533E-03  0.39209476775E-01  0.39256827756E-01  0.51100000000E-03 0.  1.
         11    1    4    4    0    0 -0.18409956502E-01 -0.19479985490E-01  0.86029547072E-01  0.90109602283E-01  0.51100000000E-03 0. -1.
</event>
<event>
 8    1  0.1122465E+005  0.1043930E+01  0.7957747E-01            NaN
         13   -1    0    0    0    0  0.00000000000E+00  0.00000000000E+00  0.74505805969E-08  0.10566000000E+00  0.10566000000E+00 0. -1.
     999900   -1    0    0    0    0 -0.00000000000E+00 -0.00000000000E+00 -0.74505805969E-08  0.93827000000E+00  0.93827000000E+00 0. -1.
     999902    2    1    2    0    0 -0.10810647924E-02 -0.23264957055E-01 -0.16038899875E-02  0.10205847780E+01  0.10203177396E+01 0.  0.
     999903    2    3    3    0    0  0.62386177550E-01 -0.53186211394E-01 -0.10162142612E+00  0.13214407662E+00  0.20355208366E-01 0.  0.
         14    1    1    2    0    0  0.10810647924E-02  0.23264957055E-01  0.16038899875E-02  0.23345222015E-01  0.00000000000E+00 0. -1.
     999901    1    3    3    0    0 -0.63467242342E-01  0.29921254340E-01  0.10001753613E+00  0.88844070137E+00  0.88000000000E+00 0.  1.
        -11    1    4    4    0    0  0.15630131410E-01 -0.14389721796E-01 -0.13746902496E-01  0.25310147184E-01  0.51100000000E-03 0.  1.
         11    1    4    4    0    0  0.46756046140E-01 -0.38796489598E-01 -0.87874523620E-01  0.10683392943E+00  0.51100000000E-03 0. -1.
</event>
<event>
 8    1  0.1122465E+005  0.1043930E+01  0.7957747E-01            NaN
         13   -1    0    0    0    0  0.00000000000E+00  0.00000000000E+00  0.74505805969E-08  0.10566000000E+00  0.10566000000E+00 0. -1.
     999900   -1    0    0    0    0 -0.00000000000E+00 -0.00000000000E+00 -0.74505805969E-08  0.93827000000E+00  0.93827000000E+00 0.  1.
     999902    2    1    2    0    0  0.21177599976E-01 -0.94236997138E-02 -0.46352843308E-02  0.10202914146E+01  0.10200175430E+01 0.  0.
     999903    2    3    3    0    0 -0.40381166711E-01 -0.61466483237E-01  0.10538063407E+00  0.12978513427E+00  0.18175143843E-01 0.  0.
         14    1    1    2    0    0 -0.21177599976E-01  0.94236997138E-02  0.46352843308E-02  0.23638585361E-01  0.00000000000E+00 0.  1.
     999901    1    3    3    0    0  0.61558766687E-01  0.52042783523E-01 -0.11001591840E+00  0.89050628037E+00  0.88000000000E+00 0.  1.
        -11    1    4    4    0    0 -0.15040611504E-01 -0.10483542054E-01  0.32295850280E-01  0.37140378495E-01  0.51100000000E-03 0.  1.
         11    1    4    4    0    0 -0.25340555207E-01 -0.50982941183E-01  0.73084783792E-01  0.92644755776E-01  0.51100000000E-03 0. -1.
</event>
<event>
 8    1  0.1122465E+005  0.1043930E+01  0.7957747E-01            NaN
         13   -1    0    0    0    0  0.00000000000E+00  0.00000000000E+00  0.74505805969E-08  0.10566000000E+00  0.10566000000E+00 0.  1.
     999900   -1    0    0    0    0 -0.00000000000E+00 -0.00000000000E+00 -0.74505805969E-08  0.93827000000E+00  0.93827000000E+00 0. -1.
     999902    2    1    2    0    0  0.13952172974E-01 -0.15312996683E-01  0.12056173518E-01  0.10199612220E+01  0.10196795536E+01 0.  0.
     999903    2    3    3    0    0 -0.90669921626E-03 -0.11472721042E+00  0.63522292633E-01  0.13274493869E+00  0.20566530391E-01 0.  0.
         14    1    1    2    0    0 -0.13952172974E-01  0.15312996683E-01 -0.12056173518E-01  0.23968777983E-01  0.00000000000E+00 0. -1.
     999901    1    3    3    0    0  0.14858872190E-01  0.99414213742E-01 -0.51466119115E-01  0.88721628332E+00  0.88000000000E+00 0. -1.
        -11    1    4    4    0    0  0.64000970808E-02 -0.70985502630E-01  0.47195955044E-01  0.85484630898E-01  0.51100000000E-03 0. -1.
         11    1    4    4    0    0 -0.73067962971E-02 -0.43741707795E-01  0.16326337589E-01  0.47260307796E-01  0.51100000000E-03 0.  1.
</event>
<event>
 8    1  0.1122465E+005  0.1043930E+01  0.7957747E-01            NaN
         13   -1    0    0    0    0  0.00000000000E+00  0.00000000000E+00  0.74505805969E-08  0.10566000000E+00  0.10566000000E+00 0. -1.
     999900   -1    0    0    0    0 -0.00000000000E+00 -0.00000000000E+00 -0.74505805969E-08  0.93827000000E+00  0.93827000000E+00 0.  1.
     999902    2    1    2    0    0  0.13359978928E-02  0.17241859907E-01 -0.16063088084E-01  0.10203272582E+01  0.10200542262E+01 0.  0.
     999903    2    3    3    0    0 -0.55985238842E-01 -0.62826274638E-01 -0.98415531196E-01  0.13101372783E+00  0.19937210081E-01 0.  0.
         14    1    1    2    0    0 -0.13359978928E-02 -0.17241859907E-01  0.16063088084E-01  0.23602741837E-01  0.00000000000E+00 0. -1.
     999901    1    3    3    0    0  0.57321236735E-01  0.80068134545E-01  0.82352443112E-01  0.88931353033E+00  0.88000000000E+00 0.  1.
        -11    1    4    4    0    0 -0.11354831445E-01 -0.10685836421E-01 -0.81002428733E-02  0.17578235201E-01  0.51100000000E-03 0. -1.
         11    1    4    4    0    0 -0.44630407397E-01 -0.52140438217E-01 -0.90315288322E-01  0.11343549263E+00  0.51100000000E-03 0.  1.
</event>
<event>
 8    1  0.1122465E+005  0.1043930E+01  0.7957747E-01            NaN
         13   -1    0    0    0    0  0.00000000000E+00  0.00000000000E+00  0.74505805969E-08  0.10566000000E+00  0.10566000000E+00 0. -1.
     999900   -1    0    0    0    0 -0.00000000000E+00 -0.00000000000E+00 -0.74505805969E-08  0.93827000000E+00  0.93827000000E+00 0.  1.
     999902    2    1    2    0    0  0.12265298059E-01 -0.16557581840E-01 -0.97501809014E-02  0.10211340117E+01  0.10208795291E+01 0.  0.
     999903    2    3    3    0    0 -0.84433186418E-01  0.13576842535E-01  0.94917035665E-01  0.12916209142E+00  0.18981795963E-01 0.  0.
         14    1    1    2    0    0 -0.12265298059E-01  0.16557581840E-01  0.97501809014E-02  0.22795988254E-01  0.00000000000E+00 0. -1.
     999901    1    3    3    0    0  0.96698484476E-01 -0.30134424375E-01 -0.10466721657E+00  0.89197192033E+00  0.88000000000E+00 0.  1.
        -11    1    4    4    0    0 -0.10268714439E-01 -0.17928021741E-02  0.49316016912E-02  0.11543069440E-01  0.51100000000E-03 0.  1.
         11    1    4    4    0    0 -0.74164471979E-01  0.15369644709E-01  0.89985433973E-01  0.11761902198E+00  0.51100000000E-03 0. -1.
</event>
<event>
 8    1  0.1122465E+005  0.1043930E+01  0.7957747E-01            NaN
         13   -1    0    0    0    0  0.00000000000E+00  0.00000000000E+00  0.74505805969E-08  0.10566000000E+00  0.10566000000E+00 0.  1.
     999900   -1    0    0    0    0 -0.00000000000E+00 -0.00000000000E+00 -0.74505805969E-08  0.93827000000E+00  0.93827000000E+00 0.  1.
     999902    2    1    2    0    0  0.10886756043E-01 -0.23026246778E-02 -0.21138891693E-01  0.10200411683E+01  0.10197613980E+01 0.  0.
     999903    2    3    3    0    0  0.93495078529E-01  0.66995530677E-01 -0.62638659134E-01  0.13248914168E+00  0.20001005090E-01 0.  0.
         14    1    1    2    0    0 -0.10886756043E-01  0.23026246778E-02  0.21138891693E-01  0.23888831691E-01  0.00000000000E+00 0.  1.
     999901    1    3    3    0    0 -0.82608322486E-01 -0.69298155355E-01  0.41499767441E-01  0.88755202663E+00  0.88000000000E+00 0. -1.
        -11    1    4    4    0    0  0.47052708272E-02  0.61814777863E-02 -0.10033101330E-01  0.12699389138E-01  0.51100000000E-03 0.  1.
         11    1    4    4    0    0  0.88789807702E-01  0.60814052891E-01 -0.52605557804E-01  0.11978975254E+00  0.51100000000E-03 0. -1.
</event>
<event>
 8    1  0.1122465E+005  0.1043930E+01  0.7957747E-01            NaN
         13   -1    0    0    0    0  0.00000000000E+00  0.00000000000E+00  0.74505805969E-08  0.10566000000E+00  0.10566000000E+00 0.  1.
     999900   -1    0    0    0    0 -0.00000000000E+00 -0.00000000000E+00 -0.74505805969E-08  0.93827000000E+00  0.93827000000E+00 0.  1.
     999902    2    1    2    0    0  0.55386532239E-02  0.72448181468E-02  0.22214238208E-01  0.10199167443E+01  0.10196340171E+01 0.  0.
     999903    2    3    3    0    0 -0.30810641056E-01  0.63711962690E-01  0.11068007235E+00  0.13293533897E+00  0.20327718519E-01 0.  0.
         14    1    1    2    0    0 -0.55386532239E-02 -0.72448181468E-02 -0.22214238208E-01  0.24013255687E-01  0.00000000000E+00 0. -1.
     999901    1    3    3    0    0  0.36349294279E-01 -0.56467144543E-01 -0.88465834143E-01  0.88698140534E+00  0.88000000000E+00 0.  1.
        -11    1    4    4    0    0 -0.24573509365E-01  0.27690845313E-01  0.58038291885E-01  0.68842898854E-01  0.51100000000E-03 0. -1.
         11    1    4    4    0    0 -0.62371316902E-02  0.36021117376E-01  0.52641780467E-01  0.64092440119E-01  0.51100000000E-03 0.  1.
</event>
<event>
 8    1  0.1122465E+005  0.1043930E+01  0.7957747E-01            NaN
         13   -1    0    0    0    0  0.00000000000E+00  0.00000000000E+00  0.74505805969E-08  0.10566000000E+00  0.10566000000E+00 0.  1.
     999900   -1    0    0    0    0 -0.00000000000E+00 -0.00000000000E+00 -0.74505805969E-08  0.93827000000E+00  0.93827000000E+00 0.  1.
     999902    2    1    2    0    0  0.23144021705E-01  0.18332065771E-02 -0.19990621689E-02  0.10206275830E+01  0.10203615343E+01 0.  0.
     999903    2    3    3    0    0  0.57048305758E-01 -0.24421177421E-01 -0.11522131097E+00  0.13233817592E+00  0.19660600422E-01 0.  0.
         14    1    1    2    0    0 -0.23144021705E-01 -0.18332065771E-02  0.19990621689E-02  0.23302416969E-01  0.00000000000E+00 0. -1.
     999901    1    3    3    0    0 -0.33904284053E-01  0.26254383998E-01  0.11322224880E+00  0.88828940711E+00  0.88000000000E+00 0. -1.
        -11    1    4    4    0    0  0.14936582625E-01 -0.30714597784E-02 -0.46656515324E-01  0.49087950750E-01  0.51100000000E-03 0. -1.
         11    1    4    4    0    0  0.42111723132E-01 -0.21349717643E-01 -0.68564795646E-01  0.83250225174E-01  0.51100000000E-03 0.  1.
</event>
<event>
 8    1  0.1122465E+005  0.1043930E+01  0.7957747E-01            NaN
         13   -1    0    0    0    0  0.00000000000E+00  0.00000000000E+00  0.74505805969E-08  0.10566000000E+00  0.10566000000E+00 0.  1.
     999900   -1    0    0    0    0 -0.00000000000E+00 -0.00000000000E+00 -0.74505805969E-08  0.93827000000E+00  0.93827000000E+00 0. -1.
     999902    2    1    2    0    0 -0.10841748957E-01  0.19822663399E-01 -0.44381636872E-02  0.10209043881E+01  0.10206446938E+01 0.  0.
     999903    2    3    3    0    0  0.99189700987E-01 -0.37112553988E-01 -0.71919442344E-01  0.12966802110E+00  0.20626465145E-01 0.  0.
         14    1    1    2    0    0  0.10841748957E-01 -0.19822663399E-01  0.44381636872E-02  0.23025611862E-01  0.00000000000E+00 0.  1.
     999901    1    3    3    0    0 -0.11003144994E+00  0.56935217388E-01  0.67481278657E-01  0.89123636703E+00  0.88000000000E+00 0.  1.
        -11    1    4    4    0    0  0.37406411784E-01 -0.55674893140E-02 -0.32568647478E-01  0.49912067673E-01  0.51100000000E-03 0. -1.
         11    1    4    4    0    0  0.61783289203E-01 -0.31545064674E-01 -0.39350794866E-01  0.79755953431E-01  0.51100000000E-03 0.  1.
</event>
<event>
 8    1  0.1122465E+005  0.1043930E+01  0.7957747E-01            NaN
         13   -1    0    0    0    0  0.00000000000E+00  0.00000000000E+00  0.74505805969E-08  0.10566000000E+00  0.10566000000E+00 0. -1.
     999900   -1    0    0    0    0 -0.00000000000E+00 -0.00000000000E+00 -0.74505805969E-08  0.93827000000E+00  0.93827000000E+00 0.  1.
     999902    2    1    2    0    0  0.12624483814E-01  0.18142243908E-01  0.84250211897E-03  0.10218114916E+01  0.10215720708E+01 0.  0.
     999903    2    3    3    0    0 -0.48203682337E-01  0.80808198056E-01 -0.91358149284E-01  0.13269504940E+00  0.20201604668E-01 0.  0.
         14    1    1    2    0    0 -0.12624483814E-01 -0.18142243908E-01 -0.84250211897E-03  0.22118508435E-01  0.00000000000E+00 0.  1.
     999901    1    3    3    0    0  0.60828166150E-01 -0.62665954148E-01  0.92200651403E-01  0.88911644216E+00  0.88000000000E+00 0. -1.
        -11    1    4    4    0    0 -0.27919758968E-02  0.20531390471E-01 -0.18122814870E-01  0.27532356672E-01  0.51100000000E-03 0.  1.
         11    1    4    4    0    0 -0.45411706440E-01  0.60276807585E-01 -0.73235334414E-01  0.10516269273E+00  0.51100000000E-03 0. -1.
</event>
<event>
 8    1  0.1122465E+005  0.1043930E+01  0.7957747E-01            NaN
         13   -1    0    0    0    0  0.00000000000E+00  0.00000000000E+00  0.74505805969E-08  0.10566000000E+00  0.10566000000E+00 0.  1.
     999900   -1    0    0    0    0 -0.00000000000E+00 -0.00000000000E+00 -0.74505805969E-08  0.93827000000E+00  0.93827000000E+00 0. -1.
     999902    2    1    2    0    0 -0.95159991396E-04 -0.22070502900E-01  0.97665676476E-02  0.10197949219E+01  0.10195092842E+01 0.  0.
     999903    2    3    3    0    0  0.11364089276E+00 -0.42259524708E-01 -0.42324280238E-01  0.13071846691E+00  0.24410099520E-01 0.  0.
         14    1    1    2    0    0  0.95159991396E-04  0.22070502900E-01 -0.97665676476E-02  0.24135078149E-01  0.00000000000E+00 0. -1.
     999901    1    3    3    0    0 -0.11373605275E+00  0.20189021809E-01  0.52090847885E-01  0.88907645494E+00  0.88000000000E+00 0. -1.
        -11    1    4    4    0    0  0.86700438920E-01 -0.22094757911E-01 -0.25182080114E-01  0.92949140480E-01  0.51100000000E-03 0.  1.
         11    1    4    4    0    0  0.26940453836E-01 -0.20164766797E-01 -0.17142200123E-01  0.37769326430E-01  0.51100000000E-03 0. -1.
</event>
<event>
 8    1  0.1122465E+005  0.1043930E+01  0.7957747E-01            NaN
         13   -1    0    0    0    0  0.00000000000E+00  0.00000000000E+00  0.74505805969E-08  0.10566000000E+00  0.10566000000E+00 0.  1.
     999900   -1    0    0    0    0 -0.00000000000E+00 -0.00000000000E+00 -0.74505805969E-08  0.93827000000E+00  0.93827000000E+00 0. -1.
     999902    2    1    2    0    0  0.16729337263E-01 -0.17286359430E-01 -0.33832647497E-02  0.10196372968E+01  0.10193478708E+01 0.  0.
     999903    2    3    3    0    0  0.12786276448E+00  0.23858068211E-01  0.10125672837E-03  0.13168704795E+00  0.20576063414E-01 0.  0.
         14    1    1    2    0    0 -0.16729337263E-01  0.17286359430E-01  0.33832647497E-02  0.24292703184E-01  0.00000000000E+00 0.  1.
     999901    1    3    3    0    0 -0.11113342722E+00 -0.41144427641E-01 -0.34845214781E-02  0.88795024887E+00  0.88000000000E+00 0. -1.
        -11    1    4    4    0    0  0.85990046596E-01  0.16867736583E-01  0.96838867399E-02  0.88163753518E-01  0.51100000000E-03 0.  1.
         11    1    4    4    0    0  0.41872717885E-01  0.69903316274E-02 -0.95826300115E-02  0.43523294433E-01  0.51100000000E-03 0. -1.
</event>
<event>
 8    1  0.1122465E+005  0.1043930E+01  0.7957747E-01            NaN
         13   -1    0    0    0    0  0.00000000000E+00  0.00000000000E+00  0.74505805969E-08  0.10566000000E+00  0.10566000000E+00 0. -1.
     999900   -1    0    0    0    0 -0.00000000000E+00 -0.00000000000E+00 -0.74505805969E-08  0.93827000000E+00  0.93827000000E+00 0. -1.
     999902    2    1    2    0    0 -0.16471640481E-01 -0.48668041707E-03  0.17411928108E-01  0.10199565347E+01  0.10196747548E+01 0.  0.
     999903    2    3    3    0    0 -0.63642289819E-01  0.10826358858E+00  0.34598461966E-01  0.13184220191E+00  0.20346178240E-01 0.  0.
         14    1    1    2    0    0  0.16471640481E-01  0.48668041707E-03 -0.17411928108E-01  0.23973465298E-01  0.00000000000E+00 0. -1.
     999901    1    3    3    0    0  0.47170649338E-01 -0.10875026899E+00 -0.17186533858E-01  0.88811433279E+00  0.88000000000E+00 0. -1.
        -11    1    4    4    0    0 -0.26967639355E-01  0.38575797024E-01  0.35915478581E-02  0.47207054827E-01  0.51100000000E-03 0.  1.
         11    1    4    4    0    0 -0.36674650464E-01  0.69687791552E-01  0.31006914108E-01  0.84635147082E-01  0.51100000000E-03 0. -1.
</event>
<event>
 8    1  0.1122465E+005  0.1043930E+01  0.7957747E-01            NaN
         13   -1    0    0    0    0  0.00000000000E+00  0.00000000000E+00  0.74505805969E-08  0.10566000000E+00  0.10566000000E+00 0. -1.
     999900   -1    0    0    0    0 -0.00000000000E+00 -0.00000000000E+00 -0.74505805969E-08  0.93827000000E+00  0.93827000000E+00 0.  1.
     999902    2    1    2    0    0 -0.14877434264E-01 -0.15411476694E-01 -0.12248567139E-01  0.10192545251E+01  0.10189557929E+01 0.  0.
     999903    2    3    3    0    0  0.33793695136E-01  0.42357668415E-02  0.12142201352E+00  0.12761406105E+00  0.19547062658E-01 0.  0.
         14    1    1    2    0    0  0.14877434264E-01  0.15411476694E-01  0.12248567139E-01  0.24675474892E-01  0.00000000000E+00 0.  1.
     999901    1    3    3    0    0 -0.48671129401E-01 -0.19647243536E-01 -0.13367058066E+00  0.89164046406E+00  0.88000000000E+00 0.  1.
        -11    1    4    4    0    0  0.78178736852E-02  0.83210341283E-02  0.54996508446E-01  0.56171485828E-01  0.51100000000E-03 0. -1.
         11    1    4    4    0    0  0.25975821451E-01 -0.40852672868E-02  0.66425505073E-01  0.71442575220E-01  0.51100000000E-03 0.  1.
</event>
<event>
 7    1  0.1122465E+005  0.1043930E+01  0.7957747E-01            NaN
         13   -1    0    0    0    0  0.00000000000E+00  0.00000000000E+00  0.74505805969E-08  0.10566000000E+00  0.10566000000E+00 0. -1.
     999900   -1    0    0    0    0 -0.00000000000E+00 -0.00000000000E+00 -0.74505805969E-08  0.93827000000E+00  0.93827000000E+00 0.  1.
     999903    2    1    2    0    0 -0.85562834604E-02  0.36464176022E-01  0.10178130757E+00  0.11122413150E+00  0.24668334704E-01 0.  0.
         14    1    1    2    0    0  0.34918327184E-01 -0.25556419316E-01  0.12044142541E-01  0.44916383549E-01  0.00000000000E+00 0. -1.
     999901    1    1    2    0    0 -0.26362043723E-01 -0.10907756706E-01 -0.11382545011E+00  0.88778948496E+00  0.88000000000E+00 0.  1.
        -11    1    3    3    0    0 -0.14301655115E-01  0.19104851801E-01  0.38033363148E-01  0.44903569287E-01  0.51100000000E-03 0. -1.
         11    1    3    3    0    0  0.57453716550E-02  0.17359324221E-01  0.63747944420E-01  0.66320562208E-01  0.51100000000E-03 0.  1.
</event>
<event>
 8    1  0.1122465E+005  0.1043930E+01  0.7957747E-01            NaN
         13   -1    0    0    0    0  0.00000000000E+00  0.00000000000E+00  0.74505805969E-08  0.10566000000E+00  0.10566000000E+00 0. -1.
     999900   -1    0    0    0    0 -0.00000000000E+00 -0.00000000000E+00 -0.74505805969E-08  0.93827000000E+00  0.93827000000E+00 0. -1.
     999902    2    1    2    0    0 -0.31838449623E-02  0.18038803447E-01 -0.14045746076E-01  0.10208471431E+01  0.10205861411E+01 0.  0.
     999903    2    3    3    0    0  0.90791475164E-01  0.47346424972E-01 -0.82032001673E-01  0.13275231237E+00  0.20227486755E-01 0.  0.
         14    1    1    2    0    0  0.31838449623E-02 -0.18038803447E-01  0.14045746076E-01  0.23082856872E-01  0.00000000000E+00 0. -1.
     999901    1    3    3    0    0 -0.93975320126E-01 -0.29307621525E-01  0.67986255597E-01  0.88809483076E+00  0.88000000000E+00 0.  1.
        -11    1    4    4    0    0  0.11711396782E-01 -0.83731937821E-03 -0.10007843496E-01  0.15436190293E-01  0.51100000000E-03 0.  1.
         11    1    4    4    0    0  0.79080078382E-01  0.48183744350E-01 -0.72024158177E-01  0.11731612207E+00  0.51100000000E-03 0. -1.
</event>
<event>
 8    1  0.1122465E+005  0.1043930E+01  0.7957747E-01            NaN
         13   -1    0    0    0    0  0.00000000000E+00  0.00000000000E+00  0.74505805969E-08  0.10566000000E+00  0.10566000000E+00 0. -1.
     999900   -1    0    0    0    0 -0.00000000000E+00 -0.00000000000E+00 -0.74505805969E-08  0.93827000000E+00  0.93827000000E+00 0.  1.
     999902    2    1    2    0    0 -0.18783009449E-02  0.22617364620E-01  0.64284620144E-02  0.10203419030E+01  0.10200692137E+01 0.  0.
     999903    2    3    3    0    0 -0.90984511478E-01 -0.46712944780E-02 -0.90735317140E-01  0.13010295324E+00  0.19846368531E-01 0.  0.
         14    1    1    2    0    0  0.18783009449E-02 -0.22617364620E-01 -0.64284620144E-02  0.23588097013E-01  0.00000000000E+00 0.  1.
     999901    1    3    3    0    0  0.89106210533E-01  0.27288659098E-01  0.97163779154E-01  0.89023894975E+00  0.88000000000E+00 0. -1.
        -11    1    4    4    0    0 -0.10297888344E-01 -0.27301001855E-04 -0.20836188556E-01  0.23247690729E-01  0.51100000000E-03 0. -1.
         11    1    4    4    0    0 -0.80686623134E-01 -0.46439934761E-02 -0.69899128584E-01  0.10685526251E+00  0.51100000000E-03 0.  1.
</event>
<event>
 8    1  0.1122465E+005  0.1043930E+01  0.7957747E-01            NaN
         13   -1    0    0    0    0  0.00000000000E+00  0.00000000000E+00  0.74505805969E-08  0.10566000000E+00  0.10566000000E+00 0.  1.
     999900   -1    0    0    0    0 -0.00000000000E+00 -0.00000000000E+00 -0.74505805969E-08  0.93827000000E+00  0.93827000000E+00 0.  1.
     999902    2    1    2    0    0 -0.80447238063E-02 -0.21171331289E-01 -0.27284703462E-02  0.10211179988E+01  0.10208631544E+01 0.  0.
     999903    2    3    3    0    0  0.44898519379E-01 -0.12207024435E+00  0.21965700573E-01  0.13342808684E+00  0.20088323931E-01 0.  0.
         14    1    1    2    0    0  0.80447238063E-02  0.21171331289E-01  0.27284703462E-02  0.22812001230E-01  0.00000000000E+00 0. -1.
     999901    1    3    3    0    0 -0.52943243185E-01  0.10089891306E+00 -0.24694170919E-01  0.88768991193E+00  0.88000000000E+00 0. -1.
        -11    1    4    4    0    0  0.46899428728E-01 -0.11517013119E+00  0.21600474728E-01  0.12621631100E+00  0.51100000000E-03 0. -1.
         11    1    4    4    0    0 -0.20009093492E-02 -0.69001131611E-02  0.36522584466E-03  0.72117758407E-02  0.51100000000E-03 0.  1.
</event>
<event>
 8    1  0.1122465E+005  0.1043930E+01  0.7957747E-01            NaN
         13   -1    0    0    0    0  0.00000000000E+00  0.00000000000E+00  0.74505805969E-08  0.10566000000E+00  0.10566000000E+00 0.  1.
     999900   -1    0    0    0    0 -0.00000000000E+00 -0.00000000000E+00 -0.74505805969E-08  0.93827000000E+00  0.93827000000E+00 0.  1.
     999902    2    1    2    0    0  0.55616728256E-03 -0.18324164660E-02  0.25703671171E-01  0.10181550939E+01  0.10178287918E+01 0.  0.
     999903    2    3    3    0    0  0.60446519059E-01 -0.10445270397E+00  0.41244154469E-01  0.13003388357E+00  0.25368909437E-01 0.  0.
         14    1    1    2    0    0 -0.55616728256E-03  0.18324164660E-02 -0.25703671171E-01  0.25774906087E-01  0.00000000000E+00 0. -1.
     999901    1    3    3    0    0 -0.59890351777E-01  0.10262028750E+00 -0.15540483298E-01  0.88812121034E+00  0.88000000000E+00 0.  1.
        -11    1    4    4    0    0  0.84011246290E-02 -0.34122318303E-01  0.18088605231E-01  0.39526829643E-01  0.51100000000E-03 0. -1.
         11    1    4    4    0    0  0.52045394430E-01 -0.70330385662E-01  0.23155549238E-01  0.90507053926E-01  0.51100000000E-03 0.  1.
</event>
<event>
 8    1  0.1122465E+005  0.1043930E+01  0.7957747E-01            NaN
         13   -1    0    0    0    0  0.00000000000E+00  0.00000000000E+00  0.74505805969E-08  0.10566000000E+00  0.10566000000E+00 0. -1.
     999900   -1    0    0    0    0 -0.00000000000E+00 -0.00000000000E+00 -0.74505805969E-08  0.93827000000E+00  0.93827000000E+00 0.  1.
     999902    2    1    2    0    0 -0.69573425619E-02  0.20045931014E-01 -0.41882386031E-02  0.10223016550E+01  0.10220728391E+01 0.  0.
     999903    2    3    3    0    0 -0.10367491151E+00  0.28014492004E-01 -0.77416539161E-01  0.13394352331E+00  0.20353079860E-01 0.  0.
         14    1    1    2    0    0  0.69573425619E-02 -0.20045931014E-01  0.41882386031E-02  0.21628345021E-01  0.00000000000E+00 0. -1.
     999901    1    3    3    0    0  0.96717568953E-01 -0.79685609902E-02  0.73228300558E-01  0.88835813167E+00  0.88000000000E+00 0.  1.
        -11    1    4    4    0    0 -0.42336102531E-01  0.21858151619E-01 -0.32989508131E-01  0.57954233128E-01  0.51100000000E-03 0. -1.
         11    1    4    4    0    0 -0.61338808983E-01  0.61563403858E-02 -0.44427031030E-01  0.75989290177E-01  0.51100000000E-03 0.  1.
</event>
<event>
 8    1  0.1122465E+005  0.1043930E+01  0.7957747E-01            NaN
         13   -1    0    0    0    0  0.00000000000E+00  0.00000000000E+00  0.74505805969E-08  0.10566000000E+00  0.10566000000E+00 0.  1.
     999900   -1    0    0    0    0 -0.00000000000E+00 -0.00000000000E+00 -0.74505805969E-08  0.93827000000E+00  0.93827000000E+00 0.  1.
     999902    2    1    2    0    0 -0.75221722666E-02  0.18340378013E-01 -0.12736004598E-01  0.10203682014E+01  0.10200961269E+01 0.  0.
     999903    2    3    3    0    0 -0.40152608800E-01 -0.71808107834E-01 -0.99574254491E-01  0.13091197618E+00  0.21313775046E-01 0.  0.
         14    1    1    2    0    0  0.75221722666E-02 -0.18340378013E-01  0.12736004598E-01  0.23561798624E-01  0.00000000000E+00 0.  1.
     999901    1    3    3    0    0  0.32630436534E-01  0.90148485847E-01  0.86838249894E-01  0.88945622519E+00  0.88000000000E+00 0. -1.
        -11    1    4    4    0    0 -0.10867851169E-01 -0.38902145236E-01 -0.55017282272E-01  0.68254300689E-01  0.51100000000E-03 0. -1.
         11    1    4    4    0    0 -0.29284757632E-01 -0.32905962598E-01 -0.44556972219E-01  0.62657675495E-01  0.51100000000E-03 0.  1.
</event>
<event>
 8    1  0.1122465E+005  0.1043930E+01  0.7957747E-01            NaN
         13   -1    0    0    0    0  0.00000000000E+00  0.00000000000E+00  0.74505805969E-08  0.10566000000E+00  0.10566000000E+00 0.  1.
     999900   -1    0    0    0    0 -0.00000000000E+00 -0.00000000000E+00 -0.74505805969E-08  0.93827000000E+00  0.93827000000E+00 0.  1.
     999902    2    1    2    0    0  0.18797400923E-02 -0.83836185558E-02 -0.16790814569E-01  0.10250686656E+01  0.10248951259E+01 0.  0.
     999903    2    3    3    0    0  0.35901535398E-01  0.10307225814E+00 -0.77411694984E-01  0.13531882086E+00  0.20144530682E-01 0.  0.
         14    1    1    2    0    0 -0.18797400923E-02  0.83836185558E-02  0.16790814569E-01  0.18861334439E-01  0.00000000000E+00 0.  1.
     999901    1    3    3    0    0 -0.34021795305E-01 -0.11145587670E+00  0.60620880415E-01  0.88974984470E+00  0.88000000000E+00 0. -1.
        -11    1    4    4    0    0  0.19478964906E-01  0.39186407536E-01 -0.41014532590E-01  0.59978809707E-01  0.51100000000E-03 0. -1.
         11    1    4    4    0    0  0.16422570492E-01  0.63885850604E-01 -0.36397162394E-01  0.75340011151E-01  0.51100000000E-03 0.  1.
</event>
<event>
 7    1  0.1122465E+005  0.1043930E+01  0.7957747E-01            NaN
         13   -1    0    0    0    0  0.00000000000E+00  0.00000000000E+00  0.74505805969E-08  0.10566000000E+00  0.10566000000E+00 0.  1.
     999900   -1    0    0    0    0 -0.00000000000E+00 -0.00000000000E+00 -0.74505805969E-08  0.93827000000E+00  0.93827000000E+00 0. -1.
     999903    2    1    2    0    0 -0.60199370909E-01  0.27964316641E-01  0.83368164379E-01  0.10864678976E+00  0.21163809452E-01 0.  0.
         14    1    1    2    0    0 -0.24587897268E-01  0.88671150663E-02  0.33789107303E-01  0.42718780343E-01  0.00000000000E+00 0.  1.
     999901    1    1    2    0    0  0.84787268176E-01 -0.36831431707E-01 -0.11715727168E+00  0.89256442990E+00  0.88000000000E+00 0. -1.
        -11    1    3    3    0    0 -0.39680036081E-01  0.22921637109E-01  0.41863467667E-01  0.62070264678E-01  0.51100000000E-03 0. -1.
         11    1    3    3    0    0 -0.20519334827E-01  0.50426795322E-02  0.41504696712E-01  0.46576525083E-01  0.51100000000E-03 0.  1.
</event>
<event>
 8    1  0.1122465E+005  0.1043930E+01  0.7957747E-01            NaN
         13   -1    0    0    0    0  0.00000000000E+00  0.00000000000E+00  0.74505805969E-08  0.10566000000E+00  0.10566000000E+00 0.  1.
     999900   -1    0    0    0    0 -0.00000000000E+00 -0.00000000000E+00 -0.74505805969E-08  0.93827000000E+00  0.93827000000E+00 0. -1.
     999902    2    1    2    0    0 -0.15920085935E-01 -0.11596884774E-01  0.11110140658E-01  0.10213164621E+01  0.10210660819E+01 0.  0.
     999903    2    3    3    0    0  0.30545339375E-01  0.10919268852E+00  0.61289545846E-01  0.13043648728E+00  0.20030172218E-01 0.  0.
         14    1    1    2    0    0  0.15920085935E-01  0.11596884774E-01 -0.11110140658E-01  0.22613537938E-01  0.00000000000E+00 0. -1.
     999901    1    3    3    0    0 -0.46465425310E-01 -0.12078957330E+00 -0.50179405188E-01  0.89087997478E+00  0.88000000000E+00 0. -1.
        -11    1    4    4    0    0  0.17395764260E-01  0.57019996950E-01  0.20962100343E-01  0.63194647227E-01  0.51100000000E-03 0. -1.
         11    1    4    4    0    0  0.13149575115E-01  0.52172691572E-01  0.40327445503E-01  0.67241840051E-01  0.51100000000E-03 0.  1.
</event>
<event>
 8    1  0.1122465E+005  0.1043930E+01  0.7957747E-01            NaN
         13   -1    0    0    0    0  0.00000000000E+00  0.00000000000E+00  0.74505805969E-08  0.10566000000E+00  0.10566000000E+00 0. -1.
     999900   -1    0    0    0    0 -0.00000000000E+00 -0.00000000000E+00 -0.74505805969E-08  0.93827000000E+00  0.93827000000E+00 0.  1.
     999902    2    1    2    0    0  0.22994190828E-01  0.52432253553E-02  0.14082533795E-02  0.10203035868E+01  0.10200300004E+01 0.  0.
     999903    2    3    3    0    0  0.27258208172E-01  0.12727666335E+00 -0.37565198401E-02  0.13185718057E+00  0.20732720018E-01 0.  0.
         14    1    1    2    0    0 -0.22994190828E-01 -0.52432253553E-02 -0.14082533795E-02  0.23626413218E-01  0.00000000000E+00 0. -1.
     999901    1    3    3    0    0 -0.42640173434E-02 -0.12203343800E+00  0.51647732196E-02  0.88844640621E+00  0.88000000000E+00 0. -1.
        -11    1    4    4    0    0  0.18068285125E-01  0.50324875222E-01  0.57288619098E-02  0.53778592146E-01  0.51100000000E-03 0. -1.
         11    1    4    4    0    0  0.91899230468E-02  0.76951788129E-01 -0.94853817499E-02  0.78078588421E-01  0.51100000000E-03 0.  1.
</event>
<event>
 8    1  0.1122465E+005  0.1043930E+01  0.7957747E-01            NaN
         13   -1    0    0    0    0  0.00000000000E+00  0.00000000000E+00  0.74505805969E-08  0.10566000000E+00  0.10566000000E+00 0.  1.
     999900   -1    0    0    0    0 -0.00000000000E+00 -0.00000000000E+00 -0.74505805969E-08  0.93827000000E+00  0.93827000000E+00 0.  1.
     999902    2    1    2    0    0 -0.74942244014E-02 -0.24570203875E-01 -0.26059634510E-02  0.10181104461E+01  0.10177829980E+01 0.  0.
     999903    2    3    3    0    0  0.29514129260E-01  0.85157690143E-01 -0.87100887345E-01  0.12651119693E+00  0.17193090349E-01 0.  0.
         14    1    1    2    0    0  0.74942244014E-02  0.24570203875E-01  0.26059634510E-02  0.25819553896E-01  0.00000000000E+00 0.  1.
     999901    1    3    3    0    0 -0.37008353661E-01 -0.10972789402E+00  0.84494923894E-01  0.89159924918E+00  0.88000000000E+00 0. -1.
        -11    1    4    4    0    0  0.57830324328E-02  0.42839960391E-01 -0.41281231814E-01  0.59775470650E-01  0.51100000000E-03 0. -1.
         11    1    4    4    0    0  0.23731096827E-01  0.42317729752E-01 -0.45819655531E-01  0.66735726279E-01  0.51100000000E-03 0.  1.
</event>
<event>
 7    1  0.1122465E+005  0.1043930E+01  0.7957747E-01            NaN
         13   -1    0    0    0    0  0.00000000000E+00  0.00000000000E+00  0.74505805969E-08  0.10566000000E+00  0.10566000000E+00 0.  1.
     999900   -1    0    0    0    0 -0.00000000000E+00 -0.00000000000E+00 -0.74505805969E-08  0.93827000000E+00  0.93827000000E+00 0. -1.
     999903    2    1    2    0    0 -0.10237327263E-01 -0.69994183661E-01  0.28172155873E-01  0.79147717246E-01  0.21603290556E-01 0.  0.
         14    1    1    2    0    0  0.52282356119E-01  0.64091040207E-01  0.73958753201E-02  0.83040984868E-01  0.00000000000E+00 0. -1.
     999901    1    1    2    0    0 -0.42045028856E-01  0.59031434541E-02 -0.35568031193E-01  0.88174129789E+00  0.88000000000E+00 0. -1.
        -11    1    3    3    0    0  0.20616209704E-02 -0.30841100388E-01  0.31385107782E-02  0.31073061083E-01  0.51100000000E-03 0. -1.
         11    1    3    3    0    0 -0.12298948233E-01 -0.39153083273E-01  0.25033645095E-01  0.48074656163E-01  0.51100000000E-03 0.  1.
</event>
<event>
 8    1  0.1122465E+005  0.1043930E+01  0.7957747E-01            NaN
         13   -1    0    0    0    0  0.00000000000E+00  0.00000000000E+00  0.74505805969E-08  0.10566000000E+00  0.10566000000E+00 0. -1.
     999900   -1    0    0    0    0 -0.00000000000E+00 -0.00000000000E+00 -0.74505805969E-08  0.93827000000E+00  0.93827000000E+00 0. -1.
     999902    2    1    2    0    0 -0.17315282269E-01 -0.16130233407E-01 -0.10351011779E-02  0.10202429811E+01  0.10199679728E+01 0.  0.
     999903    2    3    3    0    0  0.11643444819E+00  0.21511879244E-01  0.45001989295E-01  0.12815255253E+00  0.19446233739E-01 0.  0.
         14    1    1    2    0    0  0.17315282269E-01  0.16130233407E-01  0.10351011779E-02  0.23687018898E-01  0.00000000000E+00 0.  1.
     999901    1    3    3    0    0 -0.13374973046E+00 -0.37642112651E-01 -0.46037090473E-01  0.89209042857E+00  0.88000000000E+00 0.  1.
        -11    1    4    4    0    0  0.35446645479E-01  0.96700064992E-02  0.23169310464E-01  0.43440209136E-01  0.51100000000E-03 0. -1.
         11    1    4    4    0    0  0.80987802711E-01  0.11841872744E-01  0.21832678831E-01  0.84712343398E-01  0.51100000000E-03 0.  1.
</event>
<event>
 8    1  0.1122465E+005  0.1043930E+01  0.7957747E-01            NaN
         13   -1    0    0    0    0  0.00000000000E+00  0.00000000000E+00  0.74505805969E-08  0.10566000000E+00  0.10566000000E+00 0.  1.
     999900   -1    0    0    0    0 -0.00000000000E+00 -0.00000000000E+00 -0.74505805969E-08  0.93827000000E+00  0.93827000000E+00 0. -1.
     999902    2    1    2    0    0  0.63356372823E-02  0.18939727862E-01  0.12779196460E-01  0.10202200558E+01  0.10199445087E+01 0.  0.
     999903    2    3    3    0    0  0.53417652685E-01  0.10555435847E+00 -0.55073737844E-01  0.13211936833E+00  0.20669849470E-01 0.  0.
         14    1    1    2    0    0 -0.63356372823E-02 -0.18939727862E-01 -0.12779196460E-01  0.23709944189E-01  0.00000000000E+00 0. -1.
     999901    1    3    3    0    0 -0.47082015403E-01 -0.86614630610E-01  0.67852934303E-01  0.88810068748E+00  0.88000000000E+00 0.  1.
        -11    1    4    4    0    0  0.68855532047E-02  0.32068343037E-01 -0.10918636534E-01  0.34572636764E-01  0.51100000000E-03 0.  1.
         11    1    4    4    0    0  0.46532099481E-01  0.73486015435E-01 -0.44155101309E-01  0.97546731566E-01  0.51100000000E-03 0. -1.
</event>
<event>
 8    1  0.1122465E+005  0.1043930E+01  0.7957747E-01            NaN
         13   -1    0    0    0    0  0.00000000000E+00  0.00000000000E+00  0.74505805969E-08  0.10566000000E+00  0.10566000000E+00 0.  1.
     999900   -1    0    0    0    0 -0.00000000000E+00 -0.00000000000E+00 -0.74505805969E-08  0.93827000000E+00  0.93827000000E+00 0. -1.
     999902    2    1    2    0    0 -0.17835547920E-01 -0.13732951582E-02  0.17183593114E-01  0.10191253919E+01  0.10188234861E+01 0.  0.
     999903    2    3    3    0    0  0.47939671797E-01  0.11548555534E+00 -0.20057900697E-01  0.12818807689E+00  0.19868015795E-01 0.  0.
         14    1    1    2    0    0  0.17835547920E-01  0.13732951582E-02 -0.17183593114E-01  0.24804608070E-01  0.00000000000E+00 0. -1.
     999901    1    3    3    0    0 -0.65775219717E-01 -0.11685885050E+00  0.37241493812E-01  0.89093731504E+00  0.88000000000E+00 0.  1.
        -11    1    4    4    0    0  0.23294874838E-01  0.76329994755E-01 -0.18341285037E-01  0.81887625138E-01  0.51100000000E-03 0. -1.
         11    1    4    4    0    0  0.24644796959E-01  0.39155560587E-01 -0.17166156601E-02  0.46300451751E-01  0.51100000000E-03 0.  1.
</event>
<event>
 8    1  0.1122465E+005  0.1043930E+01  0.7957747E-01            NaN
         13   -1    0    0    0    0  0.00000000000E+00  0.00000000000E+00  0.74505805969E-08  0.10566000000E+00  0.10566000000E+00 0.  1.
     999900   -1    0    0    0    0 -0.00000000000E+00 -0.00000000000E+00 -0.74505805969E-08  0.93827000000E+00  0.93827000000E+00 0.  1.
     999902    2    1    2    0    0 -0.62523496293E-03 -0.16775169749E-01 -0.18790415416E-01  0.10187332353E+01  0.10184215865E+01 0.  0.
     999903    2    3    3    0    0  0.44799476583E-01 -0.85967725362E-01 -0.87645772338E-01  0.13217129482E+00  0.19749097666E-01 0.  0.
         14    1    1    2    0    0  0.62523496293E-03  0.16775169749E-01  0.18790415416E-01  0.25196764681E-01  0.00000000000E+00 0.  1.
     999901    1    3    3    0    0 -0.45424711546E-01  0.69192555613E-01  0.68855356921E-01  0.88656194050E+00  0.88000000000E+00 0. -1.
        -11    1    4    4    0    0  0.29073604323E-01 -0.35039975190E-01 -0.37500743052E-01  0.58988483453E-01  0.51100000000E-03 0.  1.
         11    1    4    4    0    0  0.15725872261E-01 -0.50927750172E-01 -0.50145029286E-01  0.73182811363E-01  0.51100000000E-03 0. -1.
</event>
<event>
 8    1  0.1122465E+005  0.1043930E+01  0.7957747E-01            NaN
         13   -1    0    0    0    0  0.00000000000E+00  0.00000000000E+00  0.74505805969E-08  0.10566000000E+00  0.10566000000E+00 0.  1.
     999900   -1    0    0    0    0 -0.00000000000E+00 -0.00000000000E+00 -0.74505805969E-08  0.93827000000E+00  0.93827000000E+00 0.  1.
     999902    2    1    2    0    0  0.22203192665E-01  0.77667940192E-02  0.81468872967E-02  0.10190366951E+01  0.10187325996E+01 0.  0.
     999903    2    3    3    0    0  0.46022465287E-01 -0.10568522495E+00 -0.54823247350E-01  0.12920302743E+00  0.20009991579E-01 0.  0.
         14    1    1    2    0    0 -0.22203192665E-01 -0.77667940192E-02 -0.81468872967E-02  0.24893304852E-01  0.00000000000E+00 0. -1.
     999901    1    3    3    0    0 -0.23819272622E-01  0.11345201896E+00  0.62970134647E-01  0.88983366772E+00  0.88000000000E+00 0. -1.
        -11    1    4    4    0    0  0.10668387431E-01 -0.21421862033E-01 -0.29300525657E-02  0.24115492787E-01  0.51100000000E-03 0. -1.
         11    1    4    4    0    0  0.35354077856E-01 -0.84263362912E-01 -0.51893194784E-01  0.10508753464E+00  0.51100000000E-03 0.  1.
</event>
<event>
 8    1  0.1122465E+005  0.1043930E+01  0.7957747E-01            NaN
         13   -1    0    0    0    0  0.00000000000E+00  0.00000000000E+00  0.74505805969E-08  0.10566000000E+00  0.10566000000E+00 0. -1.
     999900   -1    0    0    0    0 -0.00000000000E+00 -0.00000000000E+00 -0.74505805969E-08  0.93827000000E+00  0.93827000000E+00 0. -1.
     999902    2    1    2    0    0  0.38110969904E-02 -0.20268118556E-01  0.83102637510E-02  0.10216953070E+01  0.10214533365E+01 0.  0.
     999903    2    3    3    0    0 -0.39697904780E-01 -0.89406148200E-01  0.89417083899E-01  0.13419803000E+00  0.21078742425E-01 0.  0.
         14    1    1    2    0    0 -0.38110969904E-02  0.20268118556E-01 -0.83102637510E-02  0.22234693020E-01  0.00000000000E+00 0.  1.
     999901    1    3    3    0    0  0.43509001770E-01  0.69138029644E-01 -0.81106820148E-01  0.88749727698E+00  0.88000000000E+00 0. -1.
        -11    1    4    4    0    0 -0.16099397737E-01 -0.25890455071E-01  0.16548880471E-01  0.34693412013E-01  0.51100000000E-03 0.  1.
         11    1    4    4    0    0 -0.23598507043E-01 -0.63515693129E-01  0.72868203428E-01  0.99504617984E-01  0.51100000000E-03 0. -1.
</event>
<event>
 8    1  0.1122465E+005  0.1043930E+01  0.7957747E-01            NaN
         13   -1    0    0    0    0  0.00000000000E+00  0.00000000000E+00  0.74505805969E-08  0.10566000000E+00  0.10566000000E+00 0.  1.
     999900   -1    0    0    0    0 -0.00000000000E+00 -0.00000000000E+00 -0.74505805969E-08  0.93827000000E+00  0.93827000000E+00 0. -1.
     999902    2    1    2    0    0 -0.19622287242E-01 -0.59308211278E-02  0.88837991745E-02  0.10215887672E+01  0.10213444466E+01 0.  0.
     999903    2    3    3    0    0 -0.68081465130E-01  0.34569966383E-01 -0.10572514770E+00  0.13191252472E+00  0.19822685263E-01 0.  0.
         14    1    1    2    0    0  0.19622287242E-01  0.59308211278E-02 -0.88837991745E-02  0.22341232813E-01  0.00000000000E+00 0. -1.
     999901    1    3    3    0    0  0.48459177889E-01 -0.40500787511E-01  0.11460894688E+00  0.88967624247E+00  0.88000000000E+00 0.  1.
        -11    1    4    4    0    0 -0.37939221634E-01  0.19651512187E-01 -0.42330944553E-01  0.60147622207E-01  0.51100000000E-03 0. -1.
         11    1    4    4    0    0 -0.30142243496E-01  0.14918454196E-01 -0.63394203148E-01  0.71764902511E-01  0.51100000000E-03 0.  1.
</event>
<event>
 8    1  0.1122465E+005  0.1043930E+01  0.7957747E-01            NaN
         13   -1    0    0    0    0  0.00000000000E+00  0.00000000000E+00  0.74505805969E-08  0.10566000000E+00  0.10566000000E+00 0. -1.
     999900   -1    0    0    0    0 -0.00000000000E+00 -0.00000000000E+00 -0.74505805969E-08  0.93827000000E+00  0.93827000000E+00 0. -1.
     999902    2    1    2    0    0  0.24542042672E-01 -0.71742352838E-03  0.60293134499E-02  0.10186480069E+01  0.10183342196E+01 0.  0.
     999903    2    3    3    0    0 -0.95987745157E-01 -0.29749635096E-01  0.75491244296E-01  0.12724727832E+00  0.19855826974E-01 0.  0.
         14    1    1    2    0    0 -0.24542042672E-01  0.71742352838E-03 -0.60293134499E-02  0.25281993112E-01  0.00000000000E+00 0.  1.
     999901    1    3    3    0    0  0.12052978783E+00  0.29032211568E-01 -0.69461930846E-01  0.89140072857E+00  0.88000000000E+00 0. -1.
        -11    1    4    4    0    0 -0.30181522969E-01 -0.17236228757E-01  0.18964955441E-01  0.39597254530E-01  0.51100000000E-03 0. -1.
         11    1    4    4    0    0 -0.65806222188E-01 -0.12513406340E-01  0.56526288855E-01  0.87650023786E-01  0.51100000000E-03 0.  1.
</event>
<event>
 8    1  0.1122465E+005  0.1043930E+01  0.7957747E-01            NaN
         13   -1    0    0    0    0  0.00000000000E+00  0.00000000000E+00  0.74505805969E-08  0.10566000000E+00  0.10566000000E+00 0. -1.
     999900   -1    0    0    0    0 -0.00000000000E+00 -0.00000000000E+00 -0.74505805969E-08  0.93827000000E+00  0.93827000000E+00 0. -1.
     999902    2    1    2    0    0  0.16414367553E-02 -0.23382482499E-01  0.37513967115E-02  0.10201916812E+01  0.10199154664E+01 0.  0.
     999903    2    3    3    0    0  0.36057325590E-01  0.12000254088E+00 -0.14680142259E-01  0.12773247206E+00  0.19983425561E-01 0.  0.
         14    1    1    2    0    0 -0.16414367553E-02  0.23382482499E-01 -0.37513967115E-02  0.23738318806E-01  0.00000000000E+00 0. -1.
     999901    1    3    3    0    0 -0.34415888835E-01 -0.14338502338E+00  0.18431538970E-01  0.89245920913E+00  0.88000000000E+00 0. -1.
        -11    1    4    4    0    0  0.20986279996E-01  0.37771033376E-01 -0.70251155429E-02  0.43779998627E-01  0.51100000000E-03 0.  1.
         11    1    4    4    0    0  0.15071045594E-01  0.82231507501E-01 -0.76550267159E-02  0.83952473437E-01  0.51100000000E-03 0. -1.
</event>
<event>
 8    1  0.1122465E+005  0.1043930E+01  0.7957747E-01            NaN
         13   -1    0    0    0    0  0.00000000000E+00  0.00000000000E+00  0.74505805969E-08  0.10566000000E+00  0.10566000000E+00 0. -1.
     999900   -1    0    0    0    0 -0.00000000000E+00 -0.00000000000E+00 -0.74505805969E-08  0.93827000000E+00  0.93827000000E+00 0. -1.
     999902    2    1    2    0    0  0.47267528144E-02 -0.29440339700E-02 -0.22356606420E-01  0.10208903086E+01  0.10206302929E+01 0.  0.
     999903    2    3    3    0    0  0.11521715562E+00 -0.60477006951E-01 -0.55727672578E-03  0.13184959928E+00  0.21249587161E-01 0.  0.
         14    1    1    2    0    0 -0.47267528144E-02  0.29440339700E-02  0.22356606420E-01  0.23039691378E-01  0.00000000000E+00 0. -1.
     999901    1    3    3    0    0 -0.11049040280E+00  0.57532972981E-01 -0.21799329694E-01  0.88904070934E+00  0.88000000000E+00 0. -1.
        -11    1    4    4    0    0  0.48277103819E-01 -0.22261112402E-01  0.98445811004E-02  0.54068593255E-01  0.51100000000E-03 0.  1.
         11    1    4    4    0    0  0.66940051799E-01 -0.38215894549E-01 -0.10401857826E-01  0.77781006025E-01  0.51100000000E-03 0. -1.
</event>
<event>
 8    1  0.1122465E+005  0.1043930E+01  0.7957747E-01            NaN
         13   -1    0    0    0    0  0.00000000000E+00  0.00000000000E+00  0.74505805969E-08  0.10566000000E+00  0.10566000000E+00 0.  1.
     999900   -1    0    0    0    0 -0.00000000000E+00 -0.00000000000E+00 -0.74505805969E-08  0.93827000000E+00  0.93827000000E+00 0. -1.
     999902    2    1    2    0    0  0.21276639075E-01 -0.20495787190E-02  0.52444965383E-02  0.10219208908E+01  0.10216838582E+01 0.  0.
     999903    2    3    3    0    0  0.39535769154E-01 -0.11962306404E+00 -0.37357498012E-01  0.13289229160E+00  0.19799596324E-01 0.  0.
         14    1    1    2    0    0 -0.21276639075E-01  0.20495787190E-02 -0.52444965383E-02  0.22009109187E-01  0.00000000000E+00 0. -1.
     999901    1    3    3    0    0 -0.18259130078E-01  0.11757348532E+00  0.42601994551E-01  0.88902859922E+00  0.88000000000E+00 0.  1.
        -11    1    4    4    0    0  0.10954176687E-01 -0.63540464165E-01 -0.16196843300E-01  0.66482955914E-01  0.51100000000E-03 0. -1.
         11    1    4    4    0    0  0.28581592467E-01 -0.56082599879E-01 -0.21160654713E-01  0.66409335684E-01  0.51100000000E-03 0.  1.
</event>
<event>
 8    1  0.1122465E+005  0.1043930E+01  0.7957747E-01            NaN
         13   -1    0    0    0    0  0.00000000000E+00  0.00000000000E+00  0.74505805969E-08  0.10566000000E+00  0.10566000000E+00 0.  1.
     999900   -1    0    0    0    0 -0.00000000000E+00 -0.00000000000E+00 -0.74505805969E-08  0.93827000000E+00  0.93827000000E+00 0.  1.
     999902    2    1    2    0    0  0.14186768933E-01 -0.55009294251E-02  0.17388421251E-01  0.10208241170E+01  0.10205625880E+01 0.  0.
     999903    2    3    3    0    0  0.12831158097E+00  0.10189077620E-01  0.28592695586E-01  0.13324528395E+00  0.19211567865E-01 0.  0.
         14    1    1    2    0    0 -0.14186768933E-01  0.55009294251E-02 -0.17388421251E-01  0.23105883037E-01  0.00000000000E+00 0. -1.
     999901    1    3    3    0    0 -0.11412481204E+00 -0.15690007045E-01 -0.11204274335E-01  0.88757883301E+00  0.88000000000E+00 0. -1.
        -11    1    4    4    0    0  0.85053043022E-01 -0.17159862399E-02  0.22214829652E-01  0.87924538745E-01  0.51100000000E-03 0.  1.
         11    1    4    4    0    0  0.43258537953E-01  0.11905063859E-01  0.63778659342E-02  0.45320745208E-01  0.51100000000E-03 0. -1.
</event>
<event>
 8    1  0.1122465E+005  0.1043930E+01  0.7957747E-01            NaN
         13   -1    0    0    0    0  0.00000000000E+00  0.00000000000E+00  0.74505805969E-08  0.10566000000E+00  0.10566000000E+00 0.  1.
     999900   -1    0    0    0    0 -0.00000000000E+00 -0.00000000000E+00 -0.74505805969E-08  0.93827000000E+00  0.93827000000E+00 0. -1.
     999902    2    1    2    0    0  0.65715035040E-02 -0.16335507876E-01  0.15772899635E-01  0.10202906718E+01  0.10200167827E+01 0.  0.
     999903    2    3    3    0    0  0.10734040974E+00  0.62451778233E-01 -0.31793414838E-01  0.12977151803E+00  0.20190034628E-01 0.  0.
         14    1    1    2    0    0 -0.65715035040E-02  0.16335507876E-01 -0.15772899635E-01  0.23639328221E-01  0.00000000000E+00 0. -1.
     999901    1    3    3    0    0 -0.10076890623E+00 -0.78787286109E-01  0.47566314473E-01  0.89051915375E+00  0.88000000000E+00 0. -1.
        -11    1    4    4    0    0  0.67683834722E-01  0.47232506575E-01 -0.13998669428E-01  0.83715201886E-01  0.51100000000E-03 0. -1.
         11    1    4    4    0    0  0.39656575016E-01  0.15219271658E-01 -0.17794745411E-01  0.46056316147E-01  0.51100000000E-03 0.  1.
</event>
<event>
 8    1  0.1122465E+005  0.1043930E+01  0.7957747E-01            NaN
         13   -1    0    0    0    0  0.00000000000E+00  0.00000000000E+00  0.74505805969E-08  0.10566000000E+00  0.10566000000E+00 0. -1.
     999900   -1    0    0    0    0 -0.00000000000E+00 -0.00000000000E+00 -0.74505805969E-08  0.93827000000E+00  0.93827000000E+00 0. -1.
     999902    2    1    2    0    0  0.22211889679E-01 -0.29541640220E-02 -0.81512825511E-02  0.10200859539E+01  0.10198072439E+01 0.  0.
     999903    2    3    3    0    0  0.10008148531E+00 -0.84180828222E-01  0.10652371032E-01  0.13272186722E+00  0.19972618489E-01 0.  0.
         14    1    1    2    0    0 -0.22211889679E-01  0.29541640220E-02  0.81512825511E-02  0.23844046121E-01  0.00000000000E+00 0. -1.
     999901    1    3    3    0    0 -0.77869595626E-01  0.81226664200E-01 -0.18803653584E-01  0.88736408666E+00  0.88000000000E+00 0. -1.
        -11    1    4    4    0    0  0.74719608834E-01 -0.50977584725E-01  0.90615456276E-02  0.90907132937E-01  0.51100000000E-03 0. -1.
         11    1    4    4    0    0  0.25361876471E-01 -0.33203243497E-01  0.15908254048E-02  0.41814734285E-01  0.51100000000E-03 0.  1.
</event>
<event>
 8    1  0.1122465E+005  0.1043930E+01  0.7957747E-01            NaN
         13   -1    0    0    0    0  0.00000000000E+00  0.00000000000E+00  0.74505805969E-08  0.10566000000E+00  0.10566000000E+00 0. -1.
     999900   -1    0    0    0    0 -0.00000000000E+00 -0.00000000000E+00 -0.74505805969E-08  0.93827000000E+00  0.93827000000E+00 0. -1.
     999902    2    1    2    0    0  0.81803742709E-02  0.22382744422E-01  0.34673424123E-03  0.10200967041E+01  0.10198182483E+01 0.  0.
     999903    2    3    3    0    0 -0.58165957314E-01 -0.35602237802E-01  0.10809694367E+00  0.12915663788E+00  0.18592739209E-01 0.  0.
         14    1    1    2    0    0 -0.81803742709E-02 -0.22382744422E-01 -0.34673424123E-03  0.23833295947E-01  0.00000000000E+00 0.  1.
     999901    1    3    3    0    0  0.66346331585E-01  0.57984982224E-01 -0.10775020943E+00  0.89094006617E+00  0.88000000000E+00 0. -1.
        -11    1    4    4    0    0 -0.25434652375E-01 -0.11738037300E-01  0.60373718603E-01  0.66557870159E-01  0.51100000000E-03 0. -1.
         11    1    4    4    0    0 -0.32731304940E-01 -0.23864200502E-01  0.47723225066E-01  0.62598767723E-01  0.51100000000E-03 0.  1.
</event>
<event>
 8    1  0.1122465E+005  0.1043930E+01  0.7957747E-01            NaN
         13   -1    0    0    0    0  0.00000000000E+00  0.00000000000E+00  0.74505805969E-08  0.10566000000E+00  0.10566000000E+00 0.  1.
     999900   -1    0    0    0    0 -0.00000000000E+00 -0.00000000000E+00 -0.74505805969E-08  0.93827000000E+00  0.93827000000E+00 0.  1.
     999902    2    1    2    0    0  0.14487814960E-02 -0.22069124082E-01 -0.87078515662E-02  0.10201608628E+01  0.10198839219E+01 0.  0.
     999903    2    3    3    0    0  0.44434345797E-03 -0.11772963655E+00 -0.60073700090E-01  0.13348708233E+00  0.18694569875E-01 0.  0.
         14    1    1    2    0    0 -0.14487814960E-02  0.22069124082E-01  0.87078515662E-02  0.23769137226E-01  0.00000000000E+00 0.  1.
     999901    1    3    3    0    0  0.10044380381E-02  0.95660512465E-01  0.51365848524E-01  0.88667378045E+00  0.88000000000E+00 0.  1.
        -11    1    4    4    0    0  0.53481825997E-02 -0.10857098171E+00 -0.56333775618E-01  0.12243372298E+00  0.51100000000E-03 0. -1.
         11    1    4    4    0    0 -0.49038391417E-02 -0.91586548342E-02 -0.37399244718E-02  0.11053359342E-01  0.51100000000E-03 0.  1.
</event>
<event>
 8    1  0.1122465E+005  0.1043930E+01  0.7957747E-01            NaN
         13   -1    0    0    0    0  0.00000000000E+00  0.00000000000E+00  0.74505805969E-08  0.10566000000E+00  0.10566000000E+00 0.  1.
     999900   -1    0    0    0    0 -0.00000000000E+00 -0.00000000000E+00 -0.74505805969E-08  0.93827000000E+00  0.93827000000E+00 0.  1.
     999902    2    1    2    0    0  0.16983604997E-01  0.25011948977E-02  0.19594802946E-01  0.10178789901E+01  0.10175455682E+01 0.  0.
     999903    2    3    3    0    0 -0.12101017770E+00 -0.24416812654E-01  0.21887258851E-01  0.12671563888E+00  0.18389050839E-01 0.  0.
         14    1    1    2    0    0 -0.16983604997E-01 -0.25011948977E-02 -0.19594802946E-01  0.26051009906E-01  0.00000000000E+00 0. -1.
     999901    1    3    3    0    0  0.13799378269E+00  0.26918007552E-01 -0.22924559046E-02  0.89116335121E+00  0.88000000000E+00 0.  1.
        -11    1    4    4    0    0 -0.38372727553E-01 -0.11928442248E-01 -0.50566109155E-03  0.40190431304E-01  0.51100000000E-03 0. -1.
         11    1    4    4    0    0 -0.82637450143E-01 -0.12488370407E-01  0.22392919942E-01  0.86525207576E-01  0.51100000000E-03 0.  1.
</event>
<event>
 8    1  0.1122465E+005  0.1043930E+01  0.7957747E-01            NaN
         13   -1    0    0    0    0  0.00000000000E+00  0.00000000000E+00  0.74505805969E-08  0.10566000000E+00  0.10566000000E+00 0.  1.
     999900   -1    0    0    0    0 -0.00000000000E+00 -0.00000000000E+00 -0.74505805969E-08  0.93827000000E+00  0.93827000000E+00 0.  1.
     999902    2    1    2    0    0  0.18964026048E-01 -0.15044915739E-01  0.15266942712E-02  0.10196748033E+01  0.10193862810E+01 0.  0.
     999903    2    3    3    0    0  0.58050862568E-02 -0.97217796663E-01 -0.87102880846E-01  0.13131634991E+00  0.13117655543E-01 0.  0.
         14    1    1    2    0    0 -0.18964026048E-01  0.15044915739E-01 -0.15266942712E-02  0.24255196740E-01  0.00000000000E+00 0.  1.
     999901    1    3    3    0    0  0.13158939791E-01  0.82172880924E-01  0.88629575117E-01  0.88835845335E+00  0.88000000000E+00 0.  1.
        -11    1    4    4    0    0  0.54418368194E-02 -0.52844882070E-01 -0.55549676758E-01  0.76864965088E-01  0.51100000000E-03 0. -1.
         11    1    4    4    0    0  0.36324943738E-03 -0.44372914593E-01 -0.31553204088E-01  0.54451384820E-01  0.51100000000E-03 0.  1.
</event>
<event>
 8    1  0.1122465E+005  0.1043930E+01  0.7957747E-01            NaN
         13   -1    0    0    0    0  0.00000000000E+00  0.00000000000E+00  0.74505805969E-08  0.10566000000E+00  0.10566000000E+00 0. -1.
     999900   -1    0    0    0    0 -0.00000000000E+00 -0.00000000000E+00 -0.74505805969E-08  0.93827000000E+00  0.93827000000E+00 0. -1.
     999902    2    1    2    0    0  0.10204226468E-01  0.62985723339E-02 -0.20355651278E-01  0.10203047849E+01  0.10200312266E+01 0.  0.
     999903    2    3    3    0    0 -0.46337777383E-01 -0.10941622882E+00  0.44758359658E-01  0.12854991506E+00  0.20066618020E-01 0.  0.
         14    1    1    2    0    0 -0.10204226468E-01 -0.62985723339E-02  0.20355651278E-01  0.23625215135E-01  0.00000000000E+00 0. -1.
     999901    1    3    3    0    0  0.56542003851E-01  0.11571480116E+00 -0.65114010936E-01  0.89175486981E+00  0.88000000000E+00 0. -1.
        -11    1    4    4    0    0 -0.37618302554E-01 -0.10294704739E+00  0.39875422600E-01  0.11663422183E+00  0.51100000000E-03 0. -1.
         11    1    4    4    0    0 -0.87194748288E-02 -0.64691814307E-02  0.48829370581E-02  0.11915693223E-01  0.51100000000E-03 0.  1.
</event>
<event>
 8    1  0.1122465E+005  0.1043930E+01  0.7957747E-01            NaN
         13   -1    0    0    0    0  0.00000000000E+00  0.00000000000E+00  0.74505805969E-08  0.10566000000E+00  0.10566000000E+00 0.  1.
     999900   -1    0    0    0    0 -0.00000000000E+00 -0.00000000000E+00 -0.74505805969E-08  0.93827000000E+00  0.93827000000E+00 0.  1.
     999902    2    1    2    0    0 -0.35180243015E-02 -0.22375767316E-01  0.70840462753E-02  0.10201974239E+01  0.10199213443E+01 0.  0.
     999903    2    3    3    0    0  0.37819322555E-01 -0.12546017309E+00 -0.11596511077E-01  0.13301980119E+00  0.19728969836E-01 0.  0.
         14    1    1    2    0    0  0.35180243015E-02  0.22375767316E-01 -0.70840462753E-02  0.23732576127E-01  0.00000000000E+00 0. -1.
     999901    1    3    3    0    0 -0.41337346857E-01  0.10308440577E+00  0.18680557352E-01  0.88717762268E+00  0.88000000000E+00 0. -1.
        -11    1    4    4    0    0  0.10460573091E-02 -0.32813770510E-01 -0.28673705294E-02  0.32959379632E-01  0.51100000000E-03 0. -1.
         11    1    4    4    0    0  0.36773265246E-01 -0.92646402579E-01 -0.87291405474E-02  0.10006042156E+00  0.51100000000E-03 0.  1.
</event>
<event>
 8    1  0.1122465E+005  0.1043930E+01  0.7957747E-01            NaN
         13   -1    0    0    0    0  0.00000000000E+00  0.00000000000E+00  0.74505805969E-08  0.10566000000E+00  0.10566000000E+00 0. -1.
     999900   -1    0    0    0    0 -0.00000000000E+00 -0.00000000000E+00 -0.74505805969E-08  0.93827000000E+00  0.93827000000E+00 0. -1.
     999902    2    1    2    0    0 -0.58953118312E-02 -0.14619430294E-01  0.17754687285E-01  0.10201873935E+01  0.10199110777E+01 0.  0.
     999903    2    3    3    0    0  0.52503306660E-01  0.41372542093E-01  0.11132148289E+00  0.13153659319E+00  0.21002817558E-01 0.  0.
         14    1    1    2    0    0  0.58953118312E-02  0.14619430294E-01 -0.17754687285E-01  0.23742606518E-01  0.00000000000E+00 0.  1.
     999901    1    3    3    0    0 -0.58398618492E-01 -0.55991972387E-01 -0.93566795610E-01  0.88865080029E+00  0.88000000000E+00 0. -1.
        -11    1    4    4    0    0  0.23082687524E-01  0.30497063983E-01  0.53722433093E-01  0.65948785533E-01  0.51100000000E-03 0. -1.
         11    1    4    4    0    0  0.29420619136E-01  0.10875478110E-01  0.57599049802E-01  0.65587807660E-01  0.51100000000E-03 0.  1.
</event>
<event>
 8    1  0.1122465E+005  0.1043930E+01  0.7957747E-01            NaN
         13   -1    0    0    0    0  0.00000000000E+00  0.00000000000E+00  0.74505805969E-08  0.10566000000E+00  0.10566000000E+00 0.  1.
     999900   -1    0    0    0    0 -0.00000000000E+00 -0.00000000000E+00 -0.74505805969E-08  0.93827000000E+00  0.93827000000E+00 0.  1.
     999902    2    1    2    0    0  0.44746985405E-02  0.19986566791E-01  0.12176417131E-01  0.10201024757E+01  0.10198241564E+01 0.  0.
     999903    2    3    3    0    0 -0.93045048324E-02 -0.70112198060E-02  0.12973214270E+00  0.13176802545E+00  0.19916140883E-01 0.  0.
         14    1    1    2    0    0 -0.44746985405E-02 -0.19986566791E-01 -0.12176417131E-01  0.23827524279E-01  0.00000000000E+00 0. -1.
     999901    1    3    3    0    0  0.13779203373E-01  0.26997786597E-01 -0.11755572557E+00  0.88833445027E+00  0.88000000000E+00 0.  1.
        -11    1    4    4    0    0  0.27644812158E-02 -0.10062141578E-01  0.67129896913E-01  0.67938010201E-01  0.51100000000E-03 0.  1.
         11    1    4    4    0    0 -0.12068986048E-01  0.30509217718E-02  0.62602245787E-01  0.63830015248E-01  0.51100000000E-03 0. -1.
</event>
<event>
 8    1  0.1122465E+005  0.1043930E+01  0.7957747E-01            NaN
         13   -1    0    0    0    0  0.00000000000E+00  0.00000000000E+00  0.74505805969E-08  0.10566000000E+00  0.10566000000E+00 0. -1.
     999900   -1    0    0    0    0 -0.00000000000E+00 -0.00000000000E+00 -0.74505805969E-08  0.93827000000E+00  0.93827000000E+00 0.  1.
     999902    2    1    2    0    0 -0.11289612785E-01  0.16777865021E-01  0.12801836870E-01  0.10199959419E+01  0.10197150986E+01 0.  0.
     999903    2    3    3    0    0  0.86286323049E-02 -0.11208845850E+00  0.60354367943E-01  0.12911743778E+00  0.19758218212E-01 0.  0.
         14    1    1    2    0    0  0.11289612785E-01 -0.16777865021E-01 -0.12801836870E-01  0.23934058133E-01  0.00000000000E+00 0.  1.
     999901    1    3    3    0    0 -0.19918245090E-01  0.12886632352E+00 -0.47552531073E-01  0.89087850408E+00  0.88000000000E+00 0.  1.
        -11    1    4    4    0    0  0.70707463651E-02 -0.70443653673E-01  0.48392286349E-01  0.85757671937E-01  0.51100000000E-03 0. -1.
         11    1    4    4    0    0  0.15578859398E-02 -0.41644804823E-01  0.11962081594E-01  0.43359765848E-01  0.51100000000E-03 0.  1.
</event>
<event>
 8    1  0.1122465E+005  0.1043930E+01  0.7957747E-01            NaN
         13   -1    0    0    0    0  0.00000000000E+00  0.00000000000E+00  0.74505805969E-08  0.10566000000E+00  0.10566000000E+00 0.  1.
     999900   -1    0    0    0    0 -0.00000000000E+00 -0.00000000000E+00 -0.74505805969E-08  0.93827000000E+00  0.93827000000E+00 0. -1.
     999902    2    1    2    0    0  0.13364447684E-01  0.17539517739E-01 -0.98797860287E-02  0.10197669431E+01  0.10194806349E+01 0.  0.
     999903    2    3    3    0    0 -0.60875263069E-01 -0.11009715339E+00  0.47202656190E-03  0.12740501293E+00  0.20115508273E-01 0.  0.
         14    1    1    2    0    0 -0.13364447684E-01 -0.17539517739E-01  0.98797860287E-02  0.24163056852E-01  0.00000000000E+00 0.  1.
     999901    1    3    3    0    0  0.74239710754E-01  0.12763667113E+00 -0.10351812591E-01  0.89236193021E+00  0.88000000000E+00 0. -1.
        -11    1    4    4    0    0 -0.15483955749E-01 -0.39194126794E-01  0.79349432252E-02  0.42885392685E-01  0.51100000000E-03 0.  1.
         11    1    4    4    0    0 -0.45391307321E-01 -0.70903026598E-01 -0.74629166633E-02  0.84519620250E-01  0.51100000000E-03 0. -1.
</event>
<event>
 8    1  0.1122465E+005  0.1043930E+01  0.7957747E-01            NaN
         13   -1    0    0    0    0  0.00000000000E+00  0.00000000000E+00  0.74505805969E-08  0.10566000000E+00  0.10566000000E+00 0.  1.
     999900   -1    0    0    0    0 -0.00000000000E+00 -0.00000000000E+00 -0.74505805969E-08  0.93827000000E+00  0.93827000000E+00 0. -1.
     999902    2    1    2    0    0 -0.13588883899E-01  0.12626554372E-01 -0.15046021469E-01  0.10200454778E+01  0.10197658095E+01 0.  0.
     999903    2    3    3    0    0 -0.67530590402E-01 -0.10667492875E+00 -0.25509793637E-01  0.13029717508E+00  0.19664262009E-01 0.  0.
         14    1    1    2    0    0  0.13588883899E-01 -0.12626554372E-01  0.15046021469E-01  0.23884522247E-01  0.00000000000E+00 0.  1.
     999901    1    3    3    0    0  0.53941706503E-01  0.11930148312E+00  0.10463772168E-01  0.88974830267E+00  0.88000000000E+00 0.  1.
        -11    1    4    4    0    0 -0.25606588004E-01 -0.35800700744E-01 -0.18177686780E-01  0.47624331394E-01  0.51100000000E-03 0. -1.
         11    1    4    4    0    0 -0.41924002398E-01 -0.70874228002E-01 -0.73321068573E-02  0.82672843690E-01  0.51100000000E-03 0.  1.
</event>
<event>
 8    1  0.1122465E+005  0.1043930E+01  0.7957747E-01            NaN
         13   -1    0    0    0    0  0.00000000000E+00  0.00000000000E+00  0.74505805969E-08  0.10566000000E+00  0.10566000000E+00 0.  1.
     999900   -1    0    0    0    0 -0.00000000000E+00 -0.00000000000E+00 -0.74505805969E-08  0.93827000000E+00  0.93827000000E+00 0.  1.
     999902    2    1    2    0    0  0.20720700883E-01 -0.85616338775E-02 -0.93103041934E-03  0.10214908414E+01  0.10212443504E+01 0.  0.
     999903    2    3    3    0    0 -0.12308759883E-01  0.94825357389E-01 -0.86771175045E-01  0.13067753570E+00  0.20100436390E-01 0.  0.
         14    1    1    2    0    0 -0.20720700883E-01  0.85616338775E-02  0.93103041934E-03  0.22439158571E-01  0.00000000000E+00 0. -1.
     999901    1    3    3    0    0  0.33029460766E-01 -0.10338699127E+00  0.85840144625E-01  0.89081330573E+00  0.88000000000E+00 0. -1.
        -11    1    4    4    0    0 -0.49062158876E-02  0.83340296197E-01 -0.69360952178E-01  0.10853975646E+00  0.51100000000E-03 0.  1.
         11    1    4    4    0    0 -0.74025439959E-02  0.11485061193E-01 -0.17410222866E-01  0.22137779235E-01  0.51100000000E-03 0. -1.
</event>
<event>
 8    1  0.1122465E+005  0.1043930E+01  0.7957747E-01            NaN
         13   -1    0    0    0    0  0.00000000000E+00  0.00000000000E+00  0.74505805969E-08  0.10566000000E+00  0.10566000000E+00 0. -1.
     999900   -1    0    0    0    0 -0.00000000000E+00 -0.00000000000E+00 -0.74505805969E-08  0.93827000000E+00  0.93827000000E+00 0.  1.
     999902    2    1    2    0    0  0.16789177127E-01 -0.29962545071E-02  0.15731041609E-01  0.10207282828E+01  0.10204645548E+01 0.  0.
     999903    2    3    3    0    0 -0.10845175783E-01 -0.62061464809E-01 -0.11112212383E+00  0.12924408100E+00  0.19663743679E-01 0.  0.
         14    1    1    2    0    0 -0.16789177127E-01  0.29962545071E-02 -0.15731041609E-01  0.23201717173E-01  0.00000000000E+00 0.  1.
     999901    1    3    3    0    0  0.27634352909E-01  0.59065210302E-01  0.12685316544E+00  0.89148420183E+00  0.88000000000E+00 0. -1.
        -11    1    4    4    0    0 -0.11451471930E-01 -0.38531566770E-01 -0.52897050625E-01  0.66439272519E-01  0.51100000000E-03 0. -1.
         11    1    4    4    0    0  0.60629614691E-03 -0.23529898040E-01 -0.58225073209E-01  0.62804808478E-01  0.51100000000E-03 0.  1.
</event>
<event>
 8    1  0.1122465E+005  0.1043930E+01  0.7957747E-01            NaN
         13   -1    0    0    0    0  0.00000000000E+00  0.00000000000E+00  0.74505805969E-08  0.10566000000E+00  0.10566000000E+00 0. -1.
     999900   -1    0    0    0    0 -0.00000000000E+00 -0.00000000000E+00 -0.74505805969E-08  0.93827000000E+00  0.93827000000E+00 0. -1.
     999902    2    1    2    0    0 -0.18176543193E-01 -0.71572242462E-02  0.13253831452E-01  0.10203232927E+01  0.10200501679E+01 0.  0.
     999903    2    3    3    0    0  0.87161383978E-01 -0.10556883507E-01 -0.90979302895E-01  0.12792641749E+00  0.19477681876E-01 0.  0.
         14    1    1    2    0    0  0.18176543193E-01  0.71572242462E-02 -0.13253831452E-01  0.23606707299E-01  0.00000000000E+00 0.  1.
     999901    1    3    3    0    0 -0.10533792717E+00  0.33996592612E-02  0.10423313435E+00  0.89239687521E+00  0.88000000000E+00 0.  1.
        -11    1    4    4    0    0  0.65827116696E-01 -0.36640249694E-02 -0.77543919718E-01  0.10178386403E+00  0.51100000000E-03 0. -1.
         11    1    4    4    0    0  0.21334267282E-01 -0.68928585381E-02 -0.13435383177E-01  0.26142553460E-01  0.51100000000E-03 0.  1.
</event>
<event>
 8    1  0.1122465E+005  0.1043930E+01  0.7957747E-01            NaN
         13   -1    0    0    0    0  0.00000000000E+00  0.00000000000E+00  0.74505805969E-08  0.10566000000E+00  0.10566000000E+00 0.  1.
     999900   -1    0    0    0    0 -0.00000000000E+00 -0.00000000000E+00 -0.74505805969E-08  0.93827000000E+00  0.93827000000E+00 0. -1.
     999902    2    1    2    0    0 -0.77165630837E-02 -0.11324456328E-01 -0.19493706030E-01  0.10201015877E+01  0.10198232474E+01 0.  0.
     999903    2    3    3    0    0 -0.16579168355E-01 -0.12934160075E+00 -0.19639211113E-02  0.13200593662E+00  0.20435063219E-01 0.  0.
         14    1    1    2    0    0  0.77165630837E-02  0.11324456328E-01  0.19493706030E-01  0.23828412279E-01  0.00000000000E+00 0.  1.
     999901    1    3    3    0    0  0.88626052717E-02  0.11801714442E+00 -0.17529784919E-01  0.88809565110E+00  0.88000000000E+00 0.  1.
        -11    1    4    4    0    0 -0.15305064167E-01 -0.12583683105E+00  0.16668881267E-02  0.12677615184E+00  0.51100000000E-03 0.  1.
         11    1    4    4    0    0 -0.12741041888E-02 -0.35047696987E-02 -0.36308092381E-02  0.52297847803E-02  0.51100000000E-03 0. -1.
</event>
<event>
 8    1  0.1122465E+005  0.1043930E+01  0.7957747E-01            NaN
         13   -1    0    0    0    0  0.00000000000E+00  0.00000000000E+00  0.74505805969E-08  0.10566000000E+00  0.10566000000E+00 0.  1.
     999900   -1    0    0    0    0 -0.00000000000E+00 -0.00000000000E+00 -0.74505805969E-08  0.93827000000E+00  0.93827000000E+00 0.  1.
     999902    2    1    2    0    0 -0.18097456406E-01 -0.11321712519E-01  0.96967877093E-02  0.10204837467E+01  0.10202143649E+01 0.  0.
     999903    2    3    3    0    0  0.75114258775E-01  0.45069564274E-01 -0.91482469315E-01  0.12801209896E+00  0.18564422743E-01 0.  0.
         14    1    1    2    0    0  0.18097456406E-01  0.11321712519E-01 -0.96967877093E-02  0.23446253317E-01  0.00000000000E+00 0. -1.
     999901    1    3    3    0    0 -0.93211715181E-01 -0.56391276793E-01  0.10117925702E+00  0.89247164773E+00  0.88000000000E+00 0.  1.
        -11    1    4    4    0    0  0.30476317728E-01  0.10180470181E-01 -0.25366789032E-01  0.40941214224E-01  0.51100000000E-03 0. -1.
         11    1    4    4    0    0  0.44637941047E-01  0.34889094093E-01 -0.66115680284E-01  0.87070884732E-01  0.51100000000E-03 0.  1.
</event>
<event>
 8    1  0.1122465E+005  0.1043930E+01  0.7957747E-01            NaN
         13   -1    0    0    0    0  0.00000000000E+00  0.00000000000E+00  0.74505805969E-08  0.10566000000E+00  0.10566000000E+00 0.  1.
     999900   -1    0    0    0    0 -0.00000000000E+00 -0.00000000000E+00 -0.74505805969E-08  0.93827000000E+00  0.93827000000E+00 0.  1.
     999902    2    1    2    0    0 -0.21626015786E-01  0.46162161769E-02 -0.13426033569E-01  0.10180600872E+01  0.10177313441E+01 0.  0.
     999903    2    3    3    0    0  0.42446190022E-02  0.11576847524E+00  0.51484264400E-01  0.12831997840E+00  0.19875379900E-01 0.  0.
         14    1    1    2    0    0  0.21626015786E-01 -0.46162161769E-02  0.13426033569E-01  0.25869912794E-01  0.00000000000E+00 0. -1.
     999901    1    3    3    0    0 -0.25870634788E-01 -0.11115225906E+00 -0.64910297969E-01  0.88974010881E+00  0.88000000000E+00 0.  1.
        -11    1    4    4    0    0  0.55811432255E-02  0.41939749792E-01  0.94618885351E-02  0.43357585587E-01  0.51100000000E-03 0. -1.
         11    1    4    4    0    0 -0.13365242233E-02  0.73828725446E-01  0.42022375865E-01  0.84962392812E-01  0.51100000000E-03 0.  1.
</event>
<event>
 8    1  0.1122465E+005  0.1043930E+01  0.7957747E-01            NaN
         13   -1    0    0    0    0  0.00000000000E+00  0.00000000000E+00  0.74505805969E-08  0.10566000000E+00  0.10566000000E+00 0.  1.
     999900   -1    0    0    0    0 -0.00000000000E+00 -0.00000000000E+00 -0.74505805969E-08  0.93827000000E+00  0.93827000000E+00 0.  1.
     999902    2    1    2    0    0 -0.19202253830E-01 -0.84936101217E-02  0.11301097594E-01  0.10200850263E+01  0.10198062944E+01 0.  0.
     999903    2    3    3    0    0  0.69598386791E-02 -0.55007844385E-01 -0.11513702380E+00  0.12944782314E+00  0.20637402156E-01 0.  0.
         14    1    1    2    0    0  0.19202253830E-01  0.84936101217E-02 -0.11301097594E-01  0.23844973724E-01  0.00000000000E+00 0. -1.
     999901    1    3    3    0    0 -0.26162092509E-01  0.46514234263E-01  0.12643812139E+00  0.89063720314E+00  0.88000000000E+00 0. -1.
        -11    1    4    4    0    0  0.37860951430E-02 -0.10799122017E-01 -0.45346658496E-01  0.46771103371E-01  0.51100000000E-03 0.  1.
         11    1    4    4    0    0  0.31737435361E-02 -0.44208722368E-01 -0.69790365302E-01  0.82676719767E-01  0.51100000000E-03 0. -1.
</event>
<event>
 8    1  0.1122465E+005  0.1043930E+01  0.7957747E-01            NaN
         13   -1    0    0    0    0  0.00000000000E+00  0.00000000000E+00  0.74505805969E-08  0.10566000000E+00  0.10566000000E+00 0.  1.
     999900   -1    0    0    0    0 -0.00000000000E+00 -0.00000000000E+00 -0.74505805969E-08  0.93827000000E+00  0.93827000000E+00 0.  1.
     999902    2    1    2    0    0  0.32661500898E-02  0.50552424430E-02  0.24949763551E-01  0.10182645775E+01  0.10179410768E+01 0.  0.
     999903    2    3    3    0    0 -0.12619285189E+00  0.90309198727E-02  0.12684951636E-01  0.12869959119E+00  0.19911890740E-01 0.  0.
         14    1    1    2    0    0 -0.32661500898E-02 -0.50552424430E-02 -0.24949763551E-01  0.25665422533E-01  0.00000000000E+00 0. -1.
     999901    1    3    3    0    0  0.12945900198E+00 -0.39756774297E-02  0.12264811915E-01  0.88956498628E+00  0.88000000000E+00 0.  1.
        -11    1    4    4    0    0 -0.70705931756E-01  0.35213053974E-03 -0.16768863833E-02  0.70728536323E-01  0.51100000000E-03 0. -1.
         11    1    4    4    0    0 -0.55486920129E-01  0.86787893329E-02  0.14361838019E-01  0.57971054864E-01  0.51100000000E-03 0.  1.
</event>
<event>
 8    1  0.1122465E+005  0.1043930E+01  0.7957747E-01            NaN
         13   -1    0    0    0    0  0.00000000000E+00  0.00000000000E+00  0.74505805969E-08  0.10566000000E+00  0.10566000000E+00 0. -1.
     999900   -1    0    0    0    0 -0.00000000000E+00 -0.00000000000E+00 -0.74505805969E-08  0.93827000000E+00  0.93827000000E+00 0.  1.
     999902    2    1    2    0    0  0.35005523171E-02 -0.91960128669E-02  0.20971956437E-01  0.10207644334E+01  0.10205015360E+01 0.  0.
     999903    2    3    3    0    0 -0.56660189073E-01  0.14836589903E-01  0.11785807119E+00  0.13307991735E+00  0.19729116359E-01 0.  0.
         14    1    1    2    0    0 -0.35005523171E-02  0.91960128669E-02 -0.20971956437E-01  0.23165566602E-01  0.00000000000E+00 0.  1.
     999901    1    3    3    0    0  0.60160741390E-01 -0.24032602770E-01 -0.96886114750E-01  0.88768451605E+00  0.88000000000E+00 0.  1.
        -11    1    4    4    0    0 -0.20592677901E-01  0.12106890147E-01  0.62897673036E-01  0.67283085293E-01  0.51100000000E-03 0.  1.
         11    1    4    4    0    0 -0.36067511172E-01  0.27296997563E-02  0.54960398151E-01  0.65796832057E-01  0.51100000000E-03 0. -1.
</event>
<event>
 8    1  0.1122465E+005  0.1043930E+01  0.7957747E-01            NaN
         13   -1    0    0    0    0  0.00000000000E+00  0.00000000000E+00  0.74505805969E-08  0.10566000000E+00  0.10566000000E+00 0.  1.
     999900   -1    0    0    0    0 -0.00000000000E+00 -0.00000000000E+00 -0.74505805969E-08  0.93827000000E+00  0.93827000000E+00 0.  1.
     999902    2    1    2    0    0  0.11209078681E-01  0.90270626799E-03  0.20899253100E-01  0.10201973831E+01  0.10199213026E+01 0.  0.
     999903    2    3    3    0    0 -0.65901529037E-01 -0.10682398390E+00 -0.18646402265E-01  0.12940282519E+00  0.25357992499E-01 0.  0.
         14    1    1    2    0    0 -0.11209078681E-01 -0.90270626799E-03 -0.20899253100E-01  0.23732616873E-01  0.00000000000E+00 0. -1.
     999901    1    3    3    0    0  0.77110607718E-01  0.10772669017E+00  0.39545655365E-01  0.89079455794E+00  0.88000000000E+00 0.  1.
        -11    1    4    4    0    0 -0.37820525451E-01 -0.39366960677E-01 -0.29952995607E-02  0.54675247405E-01  0.51100000000E-03 0. -1.
         11    1    4    4    0    0 -0.28081003586E-01 -0.67457023222E-01 -0.15651102704E-01  0.74727577782E-01  0.51100000000E-03 0.  1.
</event>
<event>
 8    1  0.1122465E+005  0.1043930E+01  0.7957747E-01            NaN
         13   -1    0    0    0    0  0.00000000000E+00  0.00000000000E+00  0.74505805969E-08  0.10566000000E+00  0.10566000000E+00 0. -1.
     999900   -1    0    0    0    0 -0.00000000000E+00 -0.00000000000E+00 -0.74505805969E-08  0.93827000000E+00  0.93827000000E+00 0. -1.
     999902    2    1    2    0    0 -0.20542063415E-01  0.86528268368E-02 -0.10087055341E-01  0.10194637688E+01  0.10191701426E+01 0.  0.
     999903    2    3    3    0    0 -0.89845777019E-01 -0.88316083824E-01 -0.30750483312E-01  0.13118850092E+00  0.19820096833E-01 0.  0.
         14    1    1    2    0    0  0.20542063415E-01 -0.86528268368E-02  0.10087055341E-01  0.24466231158E-01  0.00000000000E+00 0. -1.
     999901    1    3    3    0    0  0.69303713604E-01  0.96968910660E-01  0.20663427971E-01  0.88827526793E+00  0.88000000000E+00 0. -1.
        -11    1    4    4    0    0 -0.68987725558E-01 -0.75677210752E-01 -0.30291322221E-01  0.10679031711E+00  0.51100000000E-03 0. -1.
         11    1    4    4    0    0 -0.20858051461E-01 -0.12638873072E-01 -0.45916109159E-03  0.24398183809E-01  0.51100000000E-03 0.  1.
</event>
<event>
 8    1  0.1122465E+005  0.1043930E+01  0.7957747E-01            NaN
         13   -1    0    0    0    0  0.00000000000E+00  0.00000000000E+00  0.74505805969E-08  0.10566000000E+00  0.10566000000E+00 0. -1.
     999900   -1    0    0    0    0 -0.00000000000E+00 -0.00000000000E+00 -0.74505805969E-08  0.93827000000E+00  0.93827000000E+00 0.  1.
     999902    2    1    2    0    0 -0.21745781450E-01  0.11561069583E-01  0.42185321800E-02  0.10189433365E+01  0.10186369273E+01 0.  0.
     999903    2    3    3    0    0 -0.22743761363E-01  0.12662607870E+00  0.17225422103E-01  0.13135664691E+00  0.20159638764E-01 0.  0.
         14    1    1    2    0    0  0.21745781450E-01 -0.11561069583E-01 -0.42185321800E-02  0.24986663533E-01  0.00000000000E+00 0. -1.
     999901    1    3    3    0    0  0.99797991285E-03 -0.11506500911E+00 -0.13006889923E-01  0.88758668955E+00  0.88000000000E+00 0.  1.
        -11    1    4    4    0    0 -0.64873554988E-02  0.63671513882E-01 -0.34036561535E-03  0.64004096987E-01  0.51100000000E-03 0. -1.
         11    1    4    4    0    0 -0.16256405864E-01  0.62954564814E-01  0.17565787718E-01  0.67352549927E-01  0.51100000000E-03 0.  1.
</event>
<event>
 8    1  0.1122465E+005  0.1043930E+01  0.7957747E-01            NaN
         13   -1    0    0    0    0  0.00000000000E+00  0.00000000000E+00  0.74505805969E-08  0.10566000000E+00  0.10566000000E+00 0. -1.
     999900   -1    0    0    0    0 -0.00000000000E+00 -0.00000000000E+00 -0.74505805969E-08  0.93827000000E+00  0.93827000000E+00 0.  1.
     999902    2    1    2    0    0 -0.39876884703E-02  0.21971450443E-01  0.72291164286E-02  0.10204586043E+01  0.10201886377E+01 0.  0.
     999903    2    3    3    0    0  0.32942397717E-01  0.34681468305E-01  0.12158829178E+00  0.13219997255E+00  0.20127449738E-01 0.  0.
         14    1    1    2    0    0  0.39876884703E-02 -0.21971450443E-01 -0.72291164286E-02  0.23471395745E-01  0.00000000000E+00 0.  1.
     999901    1    3    3    0    0 -0.36930086187E-01 -0.12710017862E-01 -0.11435917535E+00  0.88825863171E+00  0.88000000000E+00 0.  1.
        -11    1    4    4    0    0  0.13144617904E-01  0.25579836402E-01  0.83511710412E-01  0.88326530030E-01  0.51100000000E-03 0. -1.
         11    1    4    4    0    0  0.19797779813E-01  0.91016319037E-02  0.38076581364E-01  0.43873442516E-01  0.51100000000E-03 0.  1.
</event>
<event>
 8    1  0.1122465E+005  0.1043930E+01  0.7957747E-01            NaN
         13   -1    0    0    0    0  0.00000000000E+00  0.00000000000E+00  0.74505805969E-08  0.10566000000E+00  0.10566000000E+00 0.  1.
     999900   -1    0    0    0    0 -0.00000000000E+00 -0.00000000000E+00 -0.74505805969E-08  0.93827000000E+00  0.93827000000E+00 0. -1.
     999902    2    1    2    0    0  0.74493849025E-02  0.19351693358E-01  0.57408287031E-02  0.10224139947E+01  0.10221875748E+01 0.  0.
     999903    2    3    3    0    0  0.12375109011E+00  0.15060631223E-03 -0.45919390339E-01  0.13305268080E+00  0.16735306191E-01 0.  0.
         14    1    1    2    0    0 -0.74493849025E-02 -0.19351693358E-01 -0.57408287031E-02  0.21516005332E-01  0.00000000000E+00 0. -1.
     999901    1    3    3    0    0 -0.11630170521E+00  0.19201087045E-01  0.51660219042E-01  0.88936131387E+00  0.88000000000E+00 0.  1.
        -11    1    4    4    0    0  0.54029434186E-01 -0.20954844532E-02 -0.11577297839E-01  0.55297972474E-01  0.51100000000E-03 0.  1.
         11    1    4    4    0    0  0.69721655922E-01  0.22460907654E-02 -0.34342092499E-01  0.77754708324E-01  0.51100000000E-03 0. -1.
</event>
<event>
 8    1  0.1122465E+005  0.1043930E+01  0.7957747E-01            NaN
         13   -1    0    0    0    0  0.00000000000E+00  0.00000000000E+00  0.74505805969E-08  0.10566000000E+00  0.10566000000E+00 0. -1.
     999900   -1    0    0    0    0 -0.00000000000E+00 -0.00000000000E+00 -0.74505805969E-08  0.93827000000E+00  0.93827000000E+00 0. -1.
     999902    2    1    2    0    0 -0.10773341076E-01 -0.22262894195E-01 -0.17329201777E-02  0.10191367681E+01  0.10188351426E+01 0.  0.
     999903    2    3    3    0    0  0.94878209756E-01  0.15882515038E-01 -0.82582535980E-01  0.12832029833E+00  0.19801382355E-01 0.  0.
         14    1    1    2    0    0  0.10773341076E-01  0.22262894195E-01  0.17329201777E-02  0.24793231904E-01  0.00000000000E+00 0. -1.
     999901    1    3    3    0    0 -0.10565155083E+00 -0.38145409234E-01  0.80849615802E-01  0.89081646977E+00  0.88000000000E+00 0.  1.
        -11    1    4    4    0    0  0.24745637031E-01 -0.37223079620E-02 -0.16457955728E-01  0.29955426160E-01  0.51100000000E-03 0. -1.
         11    1    4    4    0    0  0.70132572724E-01  0.19604823000E-01 -0.66124580251E-01  0.98364872166E-01  0.51100000000E-03 0.  1.
</event>
<event>
 7    1  0.1122465E+005  0.1043930E+01  0.7957747E-01            NaN
         13   -1    0    0    0    0  0.00000000000E+00  0.00000000000E+00  0.74505805969E-08  0.10566000000E+00  0.10566000000E+00 0. -1.
     999900   -1    0    0    0    0 -0.00000000000E+00 -0.00000000000E+00 -0.74505805969E-08  0.93827000000E+00  0.93827000000E+00 0. -1.
     999903    2    1    2    0    0 -0.71246029232E-01  0.81416247131E-01 -0.15633448070E-01  0.11287846266E+00  0.28152098588E-01 0.  0.
         14    1    1    2    0    0  0.14243964421E-01  0.33976274748E-01  0.19494755634E-01  0.41681209980E-01  0.00000000000E+00 0.  1.
     999901    1    1    2    0    0  0.57002064811E-01 -0.11539252188E+00 -0.38613075632E-02  0.88937032736E+00  0.88000000000E+00 0.  1.
        -11    1    3    3    0    0 -0.99241258045E-02  0.14061726162E-02  0.27539830976E-02  0.10407263728E-01  0.51100000000E-03 0. -1.
         11    1    3    3    0    0 -0.61321903427E-01  0.80010074515E-01 -0.18387431168E-01  0.10247119893E+00  0.51100000000E-03 0.  1.
</event>
<event>
 8    1  0.1122465E+005  0.1043930E+01  0.7957747E-01            NaN
         13   -1    0    0    0    0  0.00000000000E+00  0.00000000000E+00  0.74505805969E-08  0.10566000000E+00  0.10566000000E+00 0.  1.
     999900   -1    0    0    0    0 -0.00000000000E+00 -0.00000000000E+00 -0.74505805969E-08  0.93827000000E+00  0.93827000000E+00 0.  1.
     999902    2    1    2    0    0  0.18171055619E-01 -0.17002841256E-01 -0.12259566652E-02  0.10190144056E+01  0.10187097585E+01 0.  0.
     999903    2    3    3    0    0 -0.10991407885E+00  0.43385118891E-01  0.40947631393E-01  0.12669657048E+00  0.20296284958E-01 0.  0.
         14    1    1    2    0    0 -0.18171055619E-01  0.17002841256E-01  0.12259566652E-02  0.24915594370E-01  0.00000000000E+00 0.  1.
     999901    1    3    3    0    0  0.12808513447E+00 -0.60387960147E-01 -0.42173588059E-01  0.89231783515E+00  0.88000000000E+00 0.  1.
        -11    1    4    4    0    0 -0.42738330466E-01  0.14671824795E-01  0.55915648930E-02  0.45534097694E-01  0.51100000000E-03 0. -1.
         11    1    4    4    0    0 -0.67175748385E-01  0.28713294096E-01  0.35356066500E-01  0.81162472783E-01  0.51100000000E-03 0.  1.
</event>
<event>
 8    1  0.1122465E+005  0.1043930E+01  0.7957747E-01            NaN
         13   -1    0    0    0    0  0.00000000000E+00  0.00000000000E+00  0.74505805969E-08  0.10566000000E+00  0.10566000000E+00 0. -1.
     999900   -1    0    0    0    0 -0.00000000000E+00 -0.00000000000E+00 -0.74505805969E-08  0.93827000000E+00  0.93827000000E+00 0. -1.
     999902    2    1    2    0    0 -0.14755325481E-01  0.90380304021E-02 -0.16745184764E-01  0.10198508215E+01  0.10195665213E+01 0.  0.
     999903    2    3    3    0    0  0.41532271609E-01  0.11914790230E+00 -0.28053133551E-01  0.13113244814E+00  0.22081404941E-01 0.  0.
         14    1    1    2    0    0  0.14755325481E-01 -0.90380304021E-02  0.16745184764E-01  0.24079178482E-01  0.00000000000E+00 0. -1.
     999901    1    3    3    0    0 -0.56287597090E-01 -0.11010987190E+00  0.11307948788E-01  0.88871837338E+00  0.88000000000E+00 0.  1.
        -11    1    4    4    0    0  0.79772933776E-03  0.18578182866E-01 -0.10044406849E-01  0.21140872277E-01  0.51100000000E-03 0.  1.
         11    1    4    4    0    0  0.40734542271E-01  0.10056971944E+00 -0.18008726702E-01  0.10999157586E+00  0.51100000000E-03 0. -1.
</event>
<event>
 8    1  0.1122465E+005  0.1043930E+01  0.7957747E-01            NaN
         13   -1    0    0    0    0  0.00000000000E+00  0.00000000000E+00  0.74505805969E-08  0.10566000000E+00  0.10566000000E+00 0.  1.
     999900   -1    0    0    0    0 -0.00000000000E+00 -0.00000000000E+00 -0.74505805969E-08  0.93827000000E+00  0.93827000000E+00 0. -1.
     999902    2    1    2    0    0 -0.63385892089E-02 -0.10619449854E-01 -0.18865023142E-01  0.10213725284E+01  0.10211234020E+01 0.  0.
     999903    2    3    3    0    0  0.66135378245E-01  0.10989554072E+00 -0.87687486100E-02  0.13014961928E+00  0.20275954279E-01 0.  0.
         14    1    1    2    0    0  0.63385892089E-02  0.10619449854E-01  0.18865023142E-01  0.22557471634E-01  0.00000000000E+00 0.  1.
     999901    1    3    3    0    0 -0.72473967454E-01 -0.12051499058E+00 -0.10096274532E-01  0.89122290908E+00  0.88000000000E+00 0.  1.
        -11    1    4    4    0    0  0.58080179768E-01  0.81175310222E-01 -0.98314977782E-02  0.10029784515E+00  0.51100000000E-03 0. -1.
         11    1    4    4    0    0  0.80551984772E-02  0.28720230499E-01  0.10627491682E-02  0.29851774139E-01  0.51100000000E-03 0.  1.
</event>
<event>
 8    1  0.1122465E+005  0.1043930E+01  0.7957747E-01            NaN
         13   -1    0    0    0    0  0.00000000000E+00  0.00000000000E+00  0.74505805969E-08  0.10566000000E+00  0.10566000000E+00 0.  1.
     999900   -1    0    0    0    0 -0.00000000000E+00 -0.00000000000E+00 -0.74505805969E-08  0.93827000000E+00  0.93827000000E+00 0.  1.
     999902    2    1    2    0    0  0.77795277878E-02 -0.21305599235E-01 -0.70846242539E-02  0.10201678134E+01  0.10198910363E+01 0.  0.
     999903    2    3    3    0    0 -0.72723883725E-02 -0.78126311879E-01 -0.10523848228E+00  0.13276185589E+00  0.19848526102E-01 0.  0.
         14    1    1    2    0    0 -0.77795277878E-02  0.21305599235E-01  0.70846242539E-02  0.23762186603E-01  0.00000000000E+00 0. -1.
     999901    1    3    3    0    0  0.15051916160E-01  0.56820712645E-01  0.98153858022E-01  0.88740595750E+00  0.88000000000E+00 0. -1.
        -11    1    4    4    0    0 -0.29528258112E-03 -0.33587905091E-01 -0.60769465964E-01  0.69436472223E-01  0.51100000000E-03 0.  1.
         11    1    4    4    0    0 -0.69771057914E-02 -0.44538406788E-01 -0.44469016311E-01  0.63325383671E-01  0.51100000000E-03 0. -1.
</event>
<event>
 8    1  0.1122465E+005  0.1043930E+01  0.7957747E-01            NaN
         13   -1    0    0    0    0  0.00000000000E+00  0.00000000000E+00  0.74505805969E-08  0.10566000000E+00  0.10566000000E+00 0. -1.
     999900   -1    0    0    0    0 -0.00000000000E+00 -0.00000000000E+00 -0.74505805969E-08  0.93827000000E+00  0.93827000000E+00 0.  1.
     999902    2    1    2    0    0  0.40093315183E-02 -0.18455843975E-01 -0.14210800077E-01  0.10202944388E+01  0.10200206380E+01 0.  0.
     999903    2    3    3    0    0  0.60762485286E-02 -0.11856177766E+00  0.54051507959E-01  0.13198975410E+00  0.20147301453E-01 0.  0.
         14    1    1    2    0    0 -0.40093315183E-02  0.18455843975E-01  0.14210800077E-01  0.23635561235E-01  0.00000000000E+00 0. -1.
     999901    1    3    3    0    0 -0.20669170102E-02  0.10010593369E+00 -0.68262308035E-01  0.88830468467E+00  0.88000000000E+00 0.  1.
        -11    1    4    4    0    0  0.21823444125E-02 -0.10971890857E+00  0.54013303495E-01  0.12231393870E+00  0.51100000000E-03 0. -1.
         11    1    4    4    0    0  0.38939041161E-02 -0.88428690899E-02  0.38204463771E-04  0.96758153965E-02  0.51100000000E-03 0.  1.
</event>
<event>
 8    1  0.1122465E+005  0.1043930E+01  0.7957747E-01            NaN
         13   -1    0    0    0    0  0.00000000000E+00  0.00000000000E+00  0.74505805969E-08  0.10566000000E+00  0.10566000000E+00 0. -1.
     999900   -1    0    0    0    0 -0.00000000000E+00 -0.00000000000E+00 -0.74505805969E-08  0.93827000000E+00  0.93827000000E+00 0.  1.
     999902    2    1    2    0    0 -0.21563900141E-01 -0.10740308488E-02  0.79673158717E-02  0.10209162334E+01  0.10206568092E+01 0.  0.
     999903    2    3    3    0    0  0.33895356277E-01 -0.11052208845E-01 -0.12315721153E+00  0.12941809270E+00  0.17615262355E-01 0.  0.
         14    1    1    2    0    0  0.21563900141E-01  0.10740308488E-02 -0.79673158717E-02  0.23013766614E-01  0.00000000000E+00 0.  1.
     999901    1    3    3    0    0 -0.55459256418E-01  0.99781779964E-02  0.13112452741E+00  0.89149814069E+00  0.88000000000E+00 0. -1.
        -11    1    4    4    0    0  0.14862191037E-01 -0.77095620694E-02 -0.85097371134E-01  0.86730304765E-01  0.51100000000E-03 0.  1.
         11    1    4    4    0    0  0.19033165240E-01 -0.33426467758E-02 -0.38059840401E-01  0.42687787936E-01  0.51100000000E-03 0. -1.
</event>
<event>
 8    1  0.1122465E+005  0.1043930E+01  0.7957747E-01            NaN
         13   -1    0    0    0    0  0.00000000000E+00  0.00000000000E+00  0.74505805969E-08  0.10566000000E+00  0.10566000000E+00 0. -1.
     999900   -1    0    0    0    0 -0.00000000000E+00 -0.00000000000E+00 -0.74505805969E-08  0.93827000000E+00  0.93827000000E+00 0. -1.
     999902    2    1    2    0    0  0.96165271101E-02  0.80758970688E-02 -0.20086334583E-01  0.10202412148E+01  0.10199661650E+01 0.  0.
     999903    2    3    3    0    0 -0.10118345179E+00  0.46077217147E-01  0.61832688631E-01  0.12870800621E+00  0.19526101081E-01 0.  0.
         14    1    1    2    0    0 -0.96165271101E-02 -0.80758970688E-02  0.20086334583E-01  0.23688785197E-01  0.00000000000E+00 0. -1.
     999901    1    3    3    0    0  0.11079997890E+00 -0.38001320079E-01 -0.81919023214E-01  0.89153320859E+00  0.88000000000E+00 0. -1.
        -11    1    4    4    0    0 -0.69254362571E-01  0.31082083755E-01  0.52236336174E-01  0.92147482893E-01  0.51100000000E-03 0.  1.
         11    1    4    4    0    0 -0.31929089222E-01  0.14995133392E-01  0.95963524570E-02  0.36560523321E-01  0.51100000000E-03 0. -1.
</event>
<event>
 8    1  0.1122465E+005  0.1043930E+01  0.7957747E-01            NaN
         13   -1    0    0    0    0  0.00000000000E+00  0.00000000000E+00  0.74505805969E-08  0.10566000000E+00  0.10566000000E+00 0. -1.
     999900   -1    0    0    0    0 -0.00000000000E+00 -0.00000000000E+00 -0.74505805969E-08  0.93827000000E+00  0.93827000000E+00 0.  1.
     999902    2    1    2    0    0 -0.83699000916E-02  0.21556917124E-01  0.53713009905E-03  0.10207989730E+01  0.10205368679E+01 0.  0.
     999903    2    3    3    0    0 -0.49389436813E-01  0.21038406175E-01 -0.11849471891E+00  0.13183808949E+00  0.21409166908E-01 0.  0.
         14    1    1    2    0    0  0.83699000916E-02 -0.21556917124E-01 -0.53713009905E-03  0.23131027046E-01  0.00000000000E+00 0. -1.
     999901    1    3    3    0    0  0.41019536722E-01  0.51851094936E-03  0.11903184901E+00  0.88896088346E+00  0.88000000000E+00 0.  1.
        -11    1    4    4    0    0 -0.14220683399E-01  0.14762051667E-01 -0.29372583380E-01  0.35821163872E-01  0.51100000000E-03 0. -1.
         11    1    4    4    0    0 -0.35168753415E-01  0.62763545081E-02 -0.89122135533E-01  0.96016925620E-01  0.51100000000E-03 0.  1.
</event>
<event>
 8    1  0.1122465E+005  0.1043930E+01  0.7957747E-01            NaN
         13   -1    0    0    0    0  0.00000000000E+00  0.00000000000E+00  0.74505805969E-08  0.10566000000E+00  0.10566000000E+00 0. -1.
     999900   -1    0    0    0    0 -0.00000000000E+00 -0.00000000000E+00 -0.74505805969E-08  0.93827000000E+00  0.93827000000E+00 0.  1.
     999902    2    1    2    0    0  0.10772385419E-01 -0.19020958883E-01  0.14530940863E-02  0.10220221784E+01  0.10217873460E+01 0.  0.
     999903    2    3    3    0    0  0.97200608216E-01  0.67024061249E-01 -0.54972018208E-01  0.13182142775E+00  0.20366222108E-01 0.  0.
         14    1    1    2    0    0 -0.10772385419E-01  0.19020958883E-01 -0.14530940863E-02  0.21907821591E-01  0.00000000000E+00 0.  1.
     999901    1    3    3    0    0 -0.86428222798E-01 -0.86045020132E-01  0.56425112295E-01  0.89020075066E+00  0.88000000000E+00 0.  1.
        -11    1    4    4    0    0  0.20604244401E-01  0.11130500297E-01 -0.27923332869E-02  0.23589853123E-01  0.51100000000E-03 0.  1.
         11    1    4    4    0    0  0.76596363815E-01  0.55893560952E-01 -0.52179684922E-01  0.10823157462E+00  0.51100000000E-03 0. -1.
</event>
<event>
 8    1  0.1122465E+005  0.1043930E+01  0.7957747E-01            NaN
         13   -1    0    0    0    0  0.00000000000E+00  0.00000000000E+00  0.74505805969E-08  0.10566000000E+00  0.10566000000E+00 0. -1.
     999900   -1    0    0    0    0 -0.00000000000E+00 -0.00000000000E+00 -0.74505805969E-08  0.93827000000E+00  0.93827000000E+00 0. -1.
     999902    2    1    2    0    0  0.18328204796E-01  0.46427760450E-02  0.13392792694E-01  0.10207600765E+01  0.10204970790E+01 0.  0.
     999903    2    3    3    0    0  0.12475943329E+00 -0.44034002358E-02 -0.40098443606E-01  0.13268870993E+00  0.20349506998E-01 0.  0.
         14    1    1    2    0    0 -0.18328204796E-01 -0.46427760450E-02 -0.13392792694E-01  0.23169923535E-01  0.00000000000E+00 0.  1.
     999901    1    3    3    0    0 -0.10643122849E+00  0.90461762807E-02  0.53491236301E-01  0.88807136654E+00  0.88000000000E+00 0.  1.
        -11    1    4    4    0    0  0.44147614640E-01  0.71569497525E-02 -0.18756646760E-01  0.48500584809E-01  0.51100000000E-03 0. -1.
         11    1    4    4    0    0  0.80611818646E-01 -0.11560349988E-01 -0.21341796846E-01  0.84188125118E-01  0.51100000000E-03 0.  1.
</event>
<event>
 8    1  0.1122465E+005  0.1043930E+01  0.7957747E-01            NaN
         13   -1    0    0    0    0  0.00000000000E+00  0.00000000000E+00  0.74505805969E-08  0.10566000000E+00  0.10566000000E+00 0. -1.
     999900   -1    0    0    0    0 -0.00000000000E+00 -0.00000000000E+00 -0.74505805969E-08  0.93827000000E+00  0.93827000000E+00 0. -1.
     999902    2    1    2    0    0 -0.14999504682E-01 -0.17877222528E-01  0.16555372727E-02  0.10205351068E+01  0.10202669176E+01 0.  0.
     999903    2    3    3    0    0  0.43572915868E-01  0.96198007259E-02 -0.12028732337E+00  0.12977314305E+00  0.19516375934E-01 0.  0.
         14    1    1    2    0    0  0.14999504682E-01  0.17877222528E-01 -0.16555372727E-02  0.23394893239E-01  0.00000000000E+00 0. -1.
     999901    1    3    3    0    0 -0.58572420550E-01 -0.27497023254E-01  0.12194286064E+00  0.89076196371E+00  0.88000000000E+00 0.  1.
        -11    1    4    4    0    0  0.21355954942E-01  0.85615425238E-02 -0.84978039824E-01  0.88039225322E-01  0.51100000000E-03 0. -1.
         11    1    4    4    0    0  0.22216960926E-01  0.10582582021E-02 -0.35309283546E-01  0.41733917726E-01  0.51100000000E-03 0.  1.
</event>
<event>
 8    1  0.1122465E+005  0.1043930E+01  0.7957747E-01            NaN
         13   -1    0    0    0    0  0.00000000000E+00  0.00000000000E+00  0.74505805969E-08  0.10566000000E+00  0.10566000000E+00 0. -1.
     999900   -1    0    0    0    0 -0.00000000000E+00 -0.00000000000E+00 -0.74505805969E-08  0.93827000000E+00  0.93827000000E+00 0. -1.
     999902    2    1    2    0    0  0.82195741505E-02 -0.81228526098E-02  0.21145419387E-01  0.10198328862E+01  0.10195481572E+01 0.  0.
     999903    2    3    3    0    0 -0.33144292948E-01 -0.31929001366E-01  0.12282181986E+00  0.13269378060E+00  0.20110561711E-01 0.  0.
         14    1    1    2    0    0 -0.82195741505E-02  0.81228526098E-02 -0.21145419387E-01  0.24097113827E-01  0.00000000000E+00 0.  1.
     999901    1    3    3    0    0  0.41363867098E-01  0.23806148756E-01 -0.10167640048E+00  0.88713910557E+00  0.88000000000E+00 0. -1.
        -11    1    4    4    0    0 -0.62619178667E-02 -0.73163653531E-02  0.90496403382E-02  0.13224898056E-01  0.51100000000E-03 0. -1.
         11    1    4    4    0    0 -0.26882375081E-01 -0.24612636013E-01  0.11377217953E+00  0.11946888255E+00  0.51100000000E-03 0.  1.
</event>
<event>
 8    1  0.1122465E+005  0.1043930E+01  0.7957747E-01            NaN
         13   -1    0    0    0    0  0.00000000000E+00  0.00000000000E+00  0.74505805969E-08  0.10566000000E+00  0.10566000000E+00 0. -1.
     999900   -1    0    0    0    0 -0.00000000000E+00 -0.00000000000E+00 -0.74505805969E-08  0.93827000000E+00  0.93827000000E+00 0.  1.
     999902    2    1    2    0    0  0.16432683516E-01  0.92471656009E-02 -0.14598148844E-01  0.10200836353E+01  0.10198048705E+01 0.  0.
     999903    2    3    3    0    0 -0.74562696019E-01  0.14559546675E-01  0.10225796060E+00  0.12769149572E+00  0.87665008157E-02 0.  0.
         14    1    1    2    0    0 -0.16432683516E-01 -0.92471656009E-02  0.14598148844E-01  0.23846364689E-01  0.00000000000E+00 0. -1.
     999901    1    3    3    0    0  0.90995379536E-01 -0.53123810736E-02 -0.11685610944E+00  0.89239213959E+00  0.88000000000E+00 0.  1.
        -11    1    4    4    0    0 -0.22748402627E-01  0.46025932334E-03  0.31619954126E-01  0.38958751015E-01  0.51100000000E-03 0. -1.
         11    1    4    4    0    0 -0.51814293392E-01  0.14099287351E-01  0.70638006472E-01  0.88732744705E-01  0.51100000000E-03 0.  1.
</event>
<event>
 8    1  0.1122465E+005  0.1043930E+01  0.7957747E-01            NaN
         13   -1    0    0    0    0  0.00000000000E+00  0.00000000000E+00  0.74505805969E-08  0.10566000000E+00  0.10566000000E+00 0.  1.
     999900   -1    0    0    0    0 -0.00000000000E+00 -0.00000000000E+00 -0.74505805969E-08  0.93827000000E+00  0.93827000000E+00 0. -1.
     999902    2    1    2    0    0  0.29511193157E-03 -0.21133087030E-01 -0.11319289449E-01  0.10199545798E+01  0.10196727535E+01 0.  0.
     999903    2    3    3    0    0 -0.45236215863E-02  0.85187940589E-01  0.92496947863E-01  0.12748318408E+00  0.20465299551E-01 0.  0.
         14    1    1    2    0    0 -0.29511193157E-03  0.21133087030E-01  0.11319289449E-01  0.23975420166E-01  0.00000000000E+00 0. -1.
     999901    1    3    3    0    0  0.48187335179E-02 -0.10632102762E+00 -0.10381623731E+00  0.89247139575E+00  0.88000000000E+00 0. -1.
        -11    1    4    4    0    0  0.58015897814E-02  0.62791308484E-01  0.66613044294E-01  0.91727671159E-01  0.51100000000E-03 0.  1.
         11    1    4    4    0    0 -0.10325211368E-01  0.22396632104E-01  0.25883903569E-01  0.35755512923E-01  0.51100000000E-03 0. -1.
</event>
<event>
 8    1  0.1122465E+005  0.1043930E+01  0.7957747E-01            NaN
         13   -1    0    0    0    0  0.00000000000E+00  0.00000000000E+00  0.74505805969E-08  0.10566000000E+00  0.10566000000E+00 0.  1.
     999900   -1    0    0    0    0 -0.00000000000E+00 -0.00000000000E+00 -0.74505805969E-08  0.93827000000E+00  0.93827000000E+00 0. -1.
     999902    2    1    2    0    0  0.76582631837E-02 -0.18881347502E-01 -0.74616616918E-02  0.10222313670E+01  0.10220010455E+01 0.  0.
     999903    2    3    3    0    0 -0.67372792655E-01 -0.89343862426E-01  0.68729417057E-01  0.13296216939E+00  0.20827548517E-01 0.  0.
         14    1    1    2    0    0 -0.76582631837E-02  0.18881347502E-01  0.74616616918E-02  0.21698632991E-01  0.00000000000E+00 0.  1.
     999901    1    3    3    0    0  0.75031055838E-01  0.70462514924E-01 -0.76191078749E-01  0.88926919762E+00  0.88000000000E+00 0.  1.
        -11    1    4    4    0    0 -0.10398379577E-01 -0.14375030246E-01  0.26948852882E-02  0.17952473927E-01  0.51100000000E-03 0. -1.
         11    1    4    4    0    0 -0.56974413077E-01 -0.74968832180E-01  0.66034531769E-01  0.11500969546E+00  0.51100000000E-03 0.  1.
</event>
<event>
 8    1  0.1122465E+005  0.1043930E+01  0.7957747E-01            NaN
         13   -1    0    0    0    0  0.00000000000E+00  0.00000000000E+00  0.74505805969E-08  0.10566000000E+00  0.10566000000E+00 0. -1.
     999900   -1    0    0    0    0 -0.00000000000E+00 -0.00000000000E+00 -0.74505805969E-08  0.93827000000E+00  0.93827000000E+00 0.  1.
     999902    2    1    2    0    0 -0.17830060977E-01  0.11437746224E-01  0.84475088690E-02  0.10211244410E+01  0.10208697422E+01 0.  0.
     999903    2    3    3    0    0  0.38779127751E-01  0.11831723114E+00  0.39808633844E-01  0.13229861744E+00  0.20381582750E-01 0.  0.
         14    1    1    2    0    0  0.17830060977E-01 -0.11437746224E-01 -0.84475088690E-02  0.22805558954E-01  0.00000000000E+00 0.  1.
     999901    1    3    3    0    0 -0.56609188728E-01 -0.10687948491E+00 -0.31361124975E-01  0.88882582360E+00  0.88000000000E+00 0. -1.
        -11    1    4    4    0    0  0.34986582364E-01  0.77491652918E-01  0.23946664875E-01  0.88333012499E-01  0.51100000000E-03 0. -1.
         11    1    4    4    0    0  0.37925453874E-02  0.40825578220E-01  0.15861968969E-01  0.43965604944E-01  0.51100000000E-03 0.  1.
</event>
<event>
 8    1  0.1122465E+005  0.1043930E+01  0.7957747E-01            NaN
         13   -1    0    0    0    0  0.00000000000E+00  0.00000000000E+00  0.74505805969E-08  0.10566000000E+00  0.10566000000E+00 0. -1.
     999900   -1    0    0    0    0 -0.00000000000E+00 -0.00000000000E+00 -0.74505805969E-08  0.93827000000E+00  0.93827000000E+00 0. -1.
     999902    2    1    2    0    0  0.23029307406E-01  0.30247903396E-02  0.71211898775E-02  0.10196357681E+01  0.10193463052E+01 0.  0.
     999903    2    3    3    0    0 -0.11475368865E+00 -0.20401444659E-01  0.47523067767E-01  0.12769112063E+00  0.21493076014E-01 0.  0.
         14    1    1    2    0    0 -0.23029307406E-01 -0.30247903396E-02 -0.71211898775E-02  0.24294231856E-01  0.00000000000E+00 0.  1.
     999901    1    3    3    0    0  0.13778299605E+00  0.23426234998E-01 -0.40401877889E-01  0.89194464751E+00  0.88000000000E+00 0. -1.
        -11    1    4    4    0    0 -0.88934436872E-01 -0.12240276845E-01  0.45193088017E-01  0.10050788409E+00  0.51100000000E-03 0.  1.
         11    1    4    4    0    0 -0.25819251774E-01 -0.81611678135E-02  0.23299797496E-02  0.27183236542E-01  0.51100000000E-03 0. -1.
</event>
<event>
 8    1  0.1122465E+005  0.1043930E+01  0.7957747E-01            NaN
         13   -1    0    0    0    0  0.00000000000E+00  0.00000000000E+00  0.74505805969E-08  0.10566000000E+00  0.10566000000E+00 0. -1.
     999900   -1    0    0    0    0 -0.00000000000E+00 -0.00000000000E+00 -0.74505805969E-08  0.93827000000E+00  0.93827000000E+00 0.  1.
     999902    2    1    2    0    0 -0.41138295757E-02 -0.11911447758E-01 -0.19714268011E-01  0.10205321679E+01  0.10202639106E+01 0.  0.
     999903    2    3    3    0    0  0.42296590933E-02 -0.29225305055E-01 -0.12910665169E+00  0.13355072673E+00  0.17183149507E-01 0.  0.
         14    1    1    2    0    0  0.41138295757E-02  0.11911447758E-01  0.19714268011E-01  0.23397832051E-01  0.00000000000E+00 0. -1.
     999901    1    3    3    0    0 -0.83434886690E-02  0.17313857296E-01  0.10939238368E+00  0.88698144122E+00  0.88000000000E+00 0. -1.
        -11    1    4    4    0    0  0.79161723898E-02 -0.11534366181E-01 -0.34493809103E-01  0.37226218931E-01  0.51100000000E-03 0.  1.
         11    1    4    4    0    0 -0.36865132966E-02 -0.17690938873E-01 -0.94612842592E-01  0.96324507799E-01  0.51100000000E-03 0. -1.
</event>
<event>
 8    1  0.1122465E+005  0.1043930E+01  0.7957747E-01            NaN
         13   -1    0    0    0    0  0.00000000000E+00  0.00000000000E+00  0.74505805969E-08  0.10566000000E+00  0.10566000000E+00 0. -1.
     999900   -1    0    0    0    0 -0.00000000000E+00 -0.00000000000E+00 -0.74505805969E-08  0.93827000000E+00  0.93827000000E+00 0. -1.
     999902    2    1    2    0    0  0.19574567070E-01  0.12665417261E-01  0.92604541415E-03  0.10205968898E+01  0.10203301316E+01 0.  0.
     999903    2    3    3    0    0  0.17837544017E-01  0.12214171456E+00 -0.44200933420E-01  0.13266416651E+00  0.20230722833E-01 0.  0.
         14    1    1    2    0    0 -0.19574567070E-01 -0.12665417261E-01 -0.92604541415E-03  0.23333110176E-01  0.00000000000E+00 0. -1.
     999901    1    3    3    0    0  0.17370230534E-02 -0.10947629730E+00  0.45126978834E-01  0.88793272332E+00  0.88000000000E+00 0.  1.
        -11    1    4    4    0    0  0.91048139657E-02  0.72268955466E-01 -0.15540234625E-01  0.74481269959E-01  0.51100000000E-03 0.  1.
         11    1    4    4    0    0  0.87327300512E-02  0.49872759098E-01 -0.28660698795E-01  0.58182896547E-01  0.51100000000E-03 0. -1.
</event>
<event>
 8    1  0.1122465E+005  0.1043930E+01  0.7957747E-01            NaN
         13   -1    0    0    0    0  0.00000000000E+00  0.00000000000E+00  0.74505805969E-08  0.10566000000E+00  0.10566000000E+00 0.  1.
     999900   -1    0    0    0    0 -0.00000000000E+00 -0.00000000000E+00 -0.74505805969E-08  0.93827000000E+00  0.93827000000E+00 0.  1.
     999902    2    1    2    0    0 -0.15697311609E-01  0.17193101555E-01 -0.49414965084E-02  0.10201302790E+01  0.10198526165E+01 0.  0.
     999903    2    3    3    0    0 -0.10998694976E+00  0.36799211742E-02  0.69970178322E-01  0.13182576986E+00  0.19275290033E-01 0.  0.
         14    1    1    2    0    0  0.15697311609E-01 -0.17193101555E-01  0.49414965084E-02  0.23799721019E-01  0.00000000000E+00 0.  1.
     999901    1    3    3    0    0  0.94289638152E-01  0.13513180381E-01 -0.74911674830E-01  0.88830450913E+00  0.88000000000E+00 0.  1.
        -11    1    4    4    0    0 -0.89927807332E-01 -0.88265439770E-03  0.64059433424E-01  0.11041585820E+00  0.51100000000E-03 0.  1.
         11    1    4    4    0    0 -0.20059142430E-01  0.45625755719E-02  0.59107448976E-02  0.21409911656E-01  0.51100000000E-03 0. -1.
</event>
<event>
 8    1  0.1122465E+005  0.1043930E+01  0.7957747E-01            NaN
         13   -1    0    0    0    0  0.00000000000E+00  0.00000000000E+00  0.74505805969E-08  0.10566000000E+00  0.10566000000E+00 0. -1.
     999900   -1    0    0    0    0 -0.00000000000E+00 -0.00000000000E+00 -0.74505805969E-08  0.93827000000E+00  0.93827000000E+00 0. -1.
     999902    2    1    2    0    0 -0.11102581802E-01  0.88411772881E-02  0.17595587695E-01  0.10213238406E+01  0.10210736256E+01 0.  0.
     999903    2    3    3    0    0 -0.53214637287E-01 -0.11715098962E+00 -0.17483617915E-01  0.13066228755E+00  0.14519108163E-01 0.  0.
         14    1    1    2    0    0  0.11102581802E-01 -0.88411772881E-02 -0.17595587695E-01  0.22606159445E-01  0.00000000000E+00 0.  1.
     999901    1    3    3    0    0  0.42112055485E-01  0.12599216691E+00  0.35079205610E-01  0.89066155301E+00  0.88000000000E+00 0.  1.
        -11    1    4    4    0    0 -0.40504396338E-01 -0.86499589405E-01 -0.19226116896E-01  0.97430435604E-01  0.51100000000E-03 0. -1.
         11    1    4    4    0    0 -0.12710240949E-01 -0.30651400212E-01  0.17424989804E-02  0.33231851944E-01  0.51100000000E-03 0.  1.
</event>
<event>
 8    1  0.1122465E+005  0.1043930E+01  0.7957747E-01            NaN
         13   -1    0    0    0    0  0.00000000000E+00  0.00000000000E+00  0.74505805969E-08  0.10566000000E+00  0.10566000000E+00 0. -1.
     999900   -1    0    0    0    0 -0.00000000000E+00 -0.00000000000E+00 -0.74505805969E-08  0.93827000000E+00  0.93827000000E+00 0. -1.
     999902    2    1    2    0    0  0.22609129557E-01  0.26068946913E-02  0.68780015224E-02  0.10201544759E+01  0.10198773844E+01 0.  0.
     999903    2    3    3    0    0  0.11036632674E+00 -0.12068260994E-01  0.71015435952E-01  0.13334542302E+00  0.20284000949E-01 0.  0.
         14    1    1    2    0    0 -0.22609129557E-01 -0.26068946913E-02 -0.68780015224E-02  0.23775524057E-01  0.00000000000E+00 0. -1.
     999901    1    3    3    0    0 -0.87757197186E-01  0.14675155685E-01 -0.64137434430E-01  0.88680905292E+00  0.88000000000E+00 0. -1.
        -11    1    4    4    0    0  0.46905990806E-01  0.34693593282E-02  0.35888233823E-01  0.59164473086E-01  0.51100000000E-03 0.  1.
         11    1    4    4    0    0  0.63460335937E-01 -0.15537620322E-01  0.35127202130E-01  0.74180949933E-01  0.51100000000E-03 0. -1.
</event>
<event>
 8    1  0.1122465E+005  0.1043930E+01  0.7957747E-01            NaN
         13   -1    0    0    0    0  0.00000000000E+00  0.00000000000E+00  0.74505805969E-08  0.10566000000E+00  0.10566000000E+00 0.  1.
     999900   -1    0    0    0    0 -0.00000000000E+00 -0.00000000000E+00 -0.74505805969E-08  0.93827000000E+00  0.93827000000E+00 0.  1.
     999902    2    1    2    0    0 -0.65565198046E-02 -0.84322315267E-03 -0.26571121233E-01  0.10165489215E+01  0.10161800954E+01 0.  0.
     999903    2    3    3    0    0  0.95337712728E-01 -0.57680227654E-01  0.53584007052E-01  0.12523656081E+00  0.19916380698E-01 0.  0.
         14    1    1    2    0    0  0.65565198046E-02  0.84322315267E-03  0.26571121233E-01  0.27381078518E-01  0.00000000000E+00 0.  1.
     999901    1    3    3    0    0 -0.10189423253E+00  0.56837004502E-01 -0.80155128285E-01  0.89131236068E+00  0.88000000000E+00 0.  1.
        -11    1    4    4    0    0  0.40513851428E-01 -0.34554752069E-01  0.30822186501E-01  0.61527809564E-01  0.51100000000E-03 0. -1.
         11    1    4    4    0    0  0.54823861300E-01 -0.23125475586E-01  0.22761820551E-01  0.63708751241E-01  0.51100000000E-03 0.  1.
</event>
<event>
 8    1  0.1122465E+005  0.1043930E+01  0.7957747E-01            NaN
         13   -1    0    0    0    0  0.00000000000E+00  0.00000000000E+00  0.74505805969E-08  0.10566000000E+00  0.10566000000E+00 0. -1.
     999900   -1    0    0    0    0 -0.00000000000E+00 -0.00000000000E+00 -0.74505805969E-08  0.93827000000E+00  0.93827000000E+00 0.  1.
     999902    2    1    2    0    0 -0.16897737607E-01  0.11561009010E-02 -0.16538671272E-01  0.10202572783E+01  0.10199826058E+01 0.  0.
     999903    2    3    3    0    0  0.42964744805E-01  0.10174627947E+00 -0.67348158382E-01  0.13105341820E+00  0.20998792896E-01 0.  0.
         14    1    1    2    0    0  0.16897737607E-01 -0.11561009010E-02  0.16538671272E-01  0.23672721706E-01  0.00000000000E+00 0. -1.
     999901    1    3    3    0    0 -0.59862482413E-01 -0.10059017857E+00  0.50809487110E-01  0.88920386009E+00  0.88000000000E+00 0. -1.
        -11    1    4    4    0    0  0.21540747655E-01  0.55491411895E-01 -0.48209926809E-01  0.76601297427E-01  0.51100000000E-03 0. -1.
         11    1    4    4    0    0  0.21423997150E-01  0.46254867571E-01 -0.19138231574E-01  0.54452120773E-01  0.51100000000E-03 0.  1.
</event>
<event>
 8    1  0.1122465E+005  0.1043930E+01  0.7957747E-01            NaN
         13   -1    0    0    0    0  0.00000000000E+00  0.00000000000E+00  0.74505805969E-08  0.10566000000E+00  0.10566000000E+00 0. -1.
     999900   -1    0    0    0    0 -0.00000000000E+00 -0.00000000000E+00 -0.74505805969E-08  0.93827000000E+00  0.93827000000E+00 0. -1.
     999902    2    1    2    0    0  0.21917998894E-01  0.10923956218E-01 -0.94017268170E-03  0.10194225436E+01  0.10191279149E+01 0.  0.
     999903    2    3    3    0    0 -0.10286679274E+00  0.46553957507E-01 -0.57210836940E-01  0.12812734621E+00  0.19866780691E-01 0.  0.
         14    1    1    2    0    0 -0.21917998894E-01 -0.10923956218E-01  0.94017268170E-03  0.24507456409E-01  0.00000000000E+00 0. -1.
     999901    1    3    3    0    0  0.12478479164E+00 -0.35630001289E-01  0.56270664258E-01  0.89129519738E+00  0.88000000000E+00 0.  1.
        -11    1    4    4    0    0 -0.52005913504E-01  0.14101294150E-01 -0.21503557044E-01  0.58018321439E-01  0.51100000000E-03 0. -1.
         11    1    4    4    0    0 -0.50860879238E-01  0.32452663357E-01 -0.35707279896E-01  0.70109024772E-01  0.51100000000E-03 0.  1.
</event>
<event>
 8    1  0.1122465E+005  0.1043930E+01  0.7957747E-01            NaN
         13   -1    0    0    0    0  0.00000000000E+00  0.00000000000E+00  0.74505805969E-08  0.10566000000E+00  0.10566000000E+00 0. -1.
     999900   -1    0    0    0    0 -0.00000000000E+00 -0.00000000000E+00 -0.74505805969E-08  0.93827000000E+00  0.93827000000E+00 0.  1.
     999902    2    1    2    0    0  0.20782112551E-01 -0.11432301934E-01  0.32905997462E-02  0.10199837732E+01  0.10197026409E+01 0.  0.
     999903    2    3    3    0    0  0.41523008747E-01  0.43690972636E-01  0.11260164305E+00  0.13126690923E+00  0.30311880448E-01 0.  0.
         14    1    1    2    0    0 -0.20782112551E-01  0.11432301934E-01 -0.32905997462E-02  0.23946226765E-01  0.00000000000E+00 0.  1.
     999901    1    3    3    0    0 -0.20740896196E-01 -0.55123274569E-01 -0.10931104331E+00  0.88871686400E+00  0.88000000000E+00 0.  1.
        -11    1    4    4    0    0  0.16118133657E-01  0.14042270438E-01  0.71263817678E-01  0.74402771606E-01  0.51100000000E-03 0. -1.
         11    1    4    4    0    0  0.25404875090E-01  0.29648702198E-01  0.41337825373E-01  0.56864137626E-01  0.51100000000E-03 0.  1.
</event>
<event>
 8    1  0.1122465E+005  0.1043930E+01  0.7957747E-01            NaN
         13   -1    0    0    0    0  0.00000000000E+00  0.00000000000E+00  0.74505805969E-08  0.10566000000E+00  0.10566000000E+00 0.  1.
     999900   -1    0    0    0    0 -0.00000000000E+00 -0.00000000000E+00 -0.74505805969E-08  0.93827000000E+00  0.93827000000E+00 0. -1.
     999902    2    1    2    0    0  0.10653916793E-01 -0.11265790524E-01  0.17775315760E-01  0.10203421678E+01  0.10200694846E+01 0.  0.
     999903    2    3    3    0    0  0.23360925544E-01 -0.85780782455E-02 -0.12473447611E+00  0.12878300952E+00  0.20175672068E-01 0.  0.
         14    1    1    2    0    0 -0.10653916793E-01  0.11265790524E-01 -0.17775315760E-01  0.23587832235E-01  0.00000000000E+00 0. -1.
     999901    1    3    3    0    0 -0.12707008751E-01 -0.26877122787E-02  0.14250979187E+00  0.89155915824E+00  0.88000000000E+00 0.  1.
        -11    1    4    4    0    0  0.94868440040E-02 -0.58529282692E-02 -0.97081829653E-01  0.97721030225E-01  0.51100000000E-03 0. -1.
         11    1    4    4    0    0  0.13874081540E-01 -0.27251499763E-02 -0.27652646454E-01  0.31061979298E-01  0.51100000000E-03 0.  1.
</event>
<event>
 8    1  0.1122465E+005  0.1043930E+01  0.7957747E-01            NaN
         13   -1    0    0    0    0  0.00000000000E+00  0.00000000000E+00  0.74505805969E-08  0.10566000000E+00  0.10566000000E+00 0. -1.
     999900   -1    0    0    0    0 -0.00000000000E+00 -0.00000000000E+00 -0.74505805969E-08  0.93827000000E+00  0.93827000000E+00 0.  1.
     999902    2    1    2    0    0  0.37602815789E-02  0.13406749129E-01 -0.19319514268E-01  0.10201156289E+01  0.10198376204E+01 0.  0.
     999903    2    3    3    0    0 -0.82394155212E-01 -0.96258444335E-01 -0.12439176725E-01  0.12910699780E+00  0.21433591488E-01 0.  0.
         14    1    1    2    0    0 -0.37602815789E-02 -0.13406749129E-01  0.19319514268E-01  0.23814371109E-01  0.00000000000E+00 0.  1.
     999901    1    3    3    0    0  0.86154436791E-01  0.10966519346E+00 -0.68803375425E-02  0.89100863109E+00  0.88000000000E+00 0. -1.
        -11    1    4    4    0    0 -0.46249514084E-01 -0.56678857312E-01 -0.17640469899E-01  0.75252625990E-01  0.51100000000E-03 0. -1.
         11    1    4    4    0    0 -0.36144641128E-01 -0.39579587024E-01  0.52012931735E-02  0.53854371809E-01  0.51100000000E-03 0.  1.
</event>
<event>
 8    1  0.1122465E+005  0.1043930E+01  0.7957747E-01            NaN
         13   -1    0    0    0    0  0.00000000000E+00  0.00000000000E+00  0.74505805969E-08  0.10566000000E+00  0.10566000000E+00 0. -1.
     999900   -1    0    0    0    0 -0.00000000000E+00 -0.00000000000E+00 -0.74505805969E-08  0.93827000000E+00  0.93827000000E+00 0.  1.
     999902    2    1    2    0    0 -0.15023577094E-01 -0.28291546183E-02  0.16929702359E-01  0.10211193269E+01  0.10208645126E+01 0.  0.
     999903    2    3    3    0    0 -0.10087177647E+00  0.19208926142E-01 -0.79157783379E-01  0.13146299144E+00  0.21736267338E-01 0.  0.
         14    1    1    2    0    0  0.15023577094E-01  0.28291546183E-02 -0.16929702359E-01  0.22810673084E-01  0.00000000000E+00 0.  1.
     999901    1    3    3    0    0  0.85848199372E-01 -0.22038080760E-01  0.96087485737E-01  0.88965633548E+00  0.88000000000E+00 0.  1.
        -11    1    4    4    0    0 -0.47221690823E-01 -0.19670983378E-02 -0.34579542291E-01  0.58564182109E-01  0.51100000000E-03 0.  1.
         11    1    4    4    0    0 -0.53650085644E-01  0.21176024480E-01 -0.44578241087E-01  0.72898809330E-01  0.51100000000E-03 0. -1.
</event>
<event>
 8    1  0.1122465E+005  0.1043930E+01  0.7957747E-01            NaN
         13   -1    0    0    0    0  0.00000000000E+00  0.00000000000E+00  0.74505805969E-08  0.10566000000E+00  0.10566000000E+00 0. -1.
     999900   -1    0    0    0    0 -0.00000000000E+00 -0.00000000000E+00 -0.74505805969E-08  0.93827000000E+00  0.93827000000E+00 0.  1.
     999902    2    1    2    0    0 -0.13297921607E-01  0.17225973552E-01 -0.87689587876E-02  0.10204680410E+01  0.10201982940E+01 0.  0.
     999903    2    3    3    0    0  0.51583765634E-01 -0.10138536910E+00  0.54943296229E-01  0.12786648630E+00  0.19778639332E-01 0.  0.
         14    1    1    2    0    0  0.13297921607E-01 -0.17225973552E-01  0.87689587876E-02  0.23461959042E-01  0.00000000000E+00 0.  1.
     999901    1    3    3    0    0 -0.64881687241E-01  0.11861134265E+00 -0.63712255016E-01  0.89260155466E+00  0.88000000000E+00 0. -1.
        -11    1    4    4    0    0  0.11693859310E-01 -0.30231292452E-01  0.25119370473E-01  0.41011233618E-01  0.51100000000E-03 0.  1.
         11    1    4    4    0    0  0.39889906324E-01 -0.71154076643E-01  0.29823925756E-01  0.86855252679E-01  0.51100000000E-03 0. -1.
</event>
<event>
 8    1  0.1122465E+005  0.1043930E+01  0.7957747E-01            NaN
         13   -1    0    0    0    0  0.00000000000E+00  0.00000000000E+00  0.74505805969E-08  0.10566000000E+00  0.10566000000E+00 0.  1.
     999900   -1    0    0    0    0 -0.00000000000E+00 -0.00000000000E+00 -0.74505805969E-08  0.93827000000E+00  0.93827000000E+00 0. -1.
     999902    2    1    2    0    0  0.15269357247E-01  0.18947212163E-01  0.70354828519E-02  0.10185992255E+01  0.10182842108E+01 0.  0.
     999903    2    3    3    0    0 -0.86937399493E-01  0.42363701285E-01 -0.81408893860E-01  0.12797194043E+00  0.19915193191E-01 0.  0.
         14    1    1    2    0    0 -0.15269357247E-01 -0.18947212163E-01 -0.70354828519E-02  0.25330774533E-01  0.00000000000E+00 0.  1.
     999901    1    3    3    0    0  0.10220675674E+00 -0.23416489122E-01  0.88444376712E-01  0.89062728504E+00  0.88000000000E+00 0.  1.
        -11    1    4    4    0    0 -0.57213567425E-01  0.17081303747E-01 -0.48767888619E-01  0.77095598555E-01  0.51100000000E-03 0. -1.
         11    1    4    4    0    0 -0.29723832067E-01  0.25282397538E-01 -0.32641005241E-01  0.50876341871E-01  0.51100000000E-03 0.  1.
</event>
<event>
 8    1  0.1122465E+005  0.1043930E+01  0.7957747E-01            NaN
         13   -1    0    0    0    0  0.00000000000E+00  0.00000000000E+00  0.74505805969E-08  0.10566000000E+00  0.10566000000E+00 0. -1.
     999900   -1    0    0    0    0 -0.00000000000E+00 -0.00000000000E+00 -0.74505805969E-08  0.93827000000E+00  0.93827000000E+00 0. -1.
     999902    2    1    2    0    0  0.92220353870E-02 -0.21407260731E-02 -0.23303920156E-01  0.10187764448E+01  0.10184658773E+01 0.  0.
     999903    2    3    3    0    0  0.14333359028E-01 -0.31400642528E-01  0.12049898863E+00  0.12660967512E+00  0.17848194289E-01 0.  0.
         14    1    1    2    0    0 -0.92220353870E-02  0.21407260731E-02  0.23303920156E-01  0.25153555205E-01  0.00000000000E+00 0. -1.
     999901    1    3    3    0    0 -0.51113236413E-02  0.29259916454E-01 -0.14380290879E+00  0.89216676968E+00  0.88000000000E+00 0. -1.
        -11    1    4    4    0    0  0.35143363143E-03 -0.16796809479E-03  0.27598160071E-01  0.27605638539E-01  0.51100000000E-03 0. -1.
         11    1    4    4    0    0  0.13981925397E-01 -0.31232674433E-01  0.92900828563E-01  0.99004036578E-01  0.51100000000E-03 0.  1.
</event>
<event>
 8    1  0.1122465E+005  0.1043930E+01  0.7957747E-01            NaN
         13   -1    0    0    0    0  0.00000000000E+00  0.00000000000E+00  0.74505805969E-08  0.10566000000E+00  0.10566000000E+00 0. -1.
     999900   -1    0    0    0    0 -0.00000000000E+00 -0.00000000000E+00 -0.74505805969E-08  0.93827000000E+00  0.93827000000E+00 0. -1.
     999902    2    1    2    0    0  0.46354359286E-02 -0.91429863768E-02 -0.19717363316E-01  0.10217071315E+01  0.10214654212E+01 0.  0.
     999903    2    3    3    0    0  0.30873733144E-02 -0.13139447356E+00  0.27647856905E-02  0.13297023592E+00  0.19984995510E-01 0.  0.
         14    1    1    2    0    0 -0.46354359286E-02  0.91429863768E-02  0.19717363316E-01  0.22222868453E-01  0.00000000000E+00 0. -1.
     999901    1    3    3    0    0  0.15480626142E-02  0.12225148718E+00 -0.22482149006E-01  0.88873689562E+00  0.88000000000E+00 0. -1.
        -11    1    4    4    0    0  0.14425393966E-02 -0.39905065874E-01  0.10036003853E-01  0.41176178753E-01  0.51100000000E-03 0.  1.
         11    1    4    4    0    0  0.16448339178E-02 -0.91489407687E-01 -0.72712181625E-02  0.91794057172E-01  0.51100000000E-03 0. -1.
</event>
<event>
 8    1  0.1122465E+005  0.1043930E+01  0.7957747E-01            NaN
         13   -1    0    0    0    0  0.00000000000E+00  0.00000000000E+00  0.74505805969E-08  0.10566000000E+00  0.10566000000E+00 0.  1.
     999900   -1    0    0    0    0 -0.00000000000E+00 -0.00000000000E+00 -0.74505805969E-08  0.93827000000E+00  0.93827000000E+00 0.  1.
     999902    2    1    2    0    0 -0.21140930358E-01 -0.10024986421E-01 -0.17794556021E-03  0.10205319028E+01  0.10202636393E+01 0.  0.
     999903    2    3    3    0    0  0.31541276729E-01  0.11369287473E-01  0.12399499656E+00  0.12999720415E+00  0.20010024510E-01 0.  0.
         14    1    1    2    0    0  0.21140930358E-01  0.10024986421E-01  0.17794556021E-03  0.23398097225E-01  0.00000000000E+00 0. -1.
     999901    1    3    3    0    0 -0.52682207087E-01 -0.21394273895E-01 -0.12417294212E+00  0.89053469862E+00  0.88000000000E+00 0.  1.
        -11    1    4    4    0    0  0.13093417108E-01  0.72883182828E-05  0.78713111049E-01  0.79796319443E-01  0.51100000000E-03 0. -1.
         11    1    4    4    0    0  0.18447859622E-01  0.11361999155E-01  0.45281885507E-01  0.50200884708E-01  0.51100000000E-03 0.  1.
</event>
<event>
 8    1  0.1122465E+005  0.1043930E+01  0.7957747E-01            NaN
         13   -1    0    0    0    0  0.00000000000E+00  0.00000000000E+00  0.74505805969E-08  0.10566000000E+00  0.10566000000E+00 0.  1.
     999900   -1    0    0    0    0 -0.00000000000E+00 -0.00000000000E+00 -0.74505805969E-08  0.93827000000E+00  0.93827000000E+00 0. -1.
     999902    2    1    2    0    0 -0.20314214860E-01 -0.38317021742E-02  0.11246204716E-01  0.10203964837E+01  0.10201250696E+01 0.  0.
     999903    2    3    3    0    0 -0.37791493207E-01  0.65189108849E-01  0.10597314241E+00  0.13245362503E+00  0.25215848188E-01 0.  0.
         14    1    1    2    0    0  0.20314214860E-01  0.38317021742E-02 -0.11246204716E-01  0.23533516258E-01  0.00000000000E+00 0. -1.
     999901    1    3    3    0    0  0.17477278346E-01 -0.69020811023E-01 -0.94726937695E-01  0.88794285871E+00  0.88000000000E+00 0. -1.
        -11    1    4    4    0    0 -0.45576975840E-02  0.76801382480E-02  0.31112590809E-01  0.32373006635E-01  0.51100000000E-03 0.  1.
         11    1    4    4    0    0 -0.33233795623E-01  0.57508970601E-01  0.74860551602E-01  0.10008061839E+00  0.51100000000E-03 0. -1.
</event>
<event>
 8    1  0.1122465E+005  0.1043930E+01  0.7957747E-01            NaN
         13   -1    0    0    0    0  0.00000000000E+00  0.00000000000E+00  0.74505805969E-08  0.10566000000E+00  0.10566000000E+00 0. -1.
     999900   -1    0    0    0    0 -0.00000000000E+00 -0.00000000000E+00 -0.74505805969E-08  0.93827000000E+00  0.93827000000E+00 0. -1.
     999902    2    1    2    0    0 -0.11028896998E-01  0.20236696231E-01  0.75564073466E-02  0.10196759336E+01  0.10193874386E+01 0.  0.
     999903    2    3    3    0    0  0.26567032867E-01 -0.11277271682E+00  0.50307880382E-01  0.12786168933E+00  0.19855373916E-01 0.  0.
         14    1    1    2    0    0  0.11028896998E-01 -0.20236696231E-01 -0.75564073466E-02  0.24254066367E-01  0.00000000000E+00 0.  1.
     999901    1    3    3    0    0 -0.37595929864E-01  0.13300941306E+00 -0.42751473036E-01  0.89181424431E+00  0.88000000000E+00 0. -1.
        -11    1    4    4    0    0  0.79299112401E-02 -0.48955894644E-01  0.31551881170E-01  0.58782186409E-01  0.51100000000E-03 0. -1.
         11    1    4    4    0    0  0.18637121627E-01 -0.63816822181E-01  0.18755999212E-01  0.69079502917E-01  0.51100000000E-03 0.  1.
</event>
<event>
 8    1  0.1122465E+005  0.1043930E+01  0.7957747E-01            NaN
         13   -1    0    0    0    0  0.00000000000E+00  0.00000000000E+00  0.74505805969E-08  0.10566000000E+00  0.10566000000E+00 0.  1.
     999900   -1    0    0    0    0 -0.00000000000E+00 -0.00000000000E+00 -0.74505805969E-08  0.93827000000E+00  0.93827000000E+00 0.  1.
     999902    2    1    2    0    0  0.10932704813E-01 -0.54912835116E-02  0.20579366571E-01  0.10199886434E+01  0.10197076267E+01 0.  0.
     999903    2    3    3    0    0 -0.12352040784E-01  0.11932898778E+00  0.47250214682E-01  0.13047551044E+00  0.19982387297E-01 0.  0.
         14    1    1    2    0    0 -0.10932704813E-01  0.54912835116E-02 -0.20579366571E-01  0.23941356636E-01  0.00000000000E+00 0. -1.
     999901    1    3    3    0    0  0.23284745598E-01 -0.12482027129E+00 -0.26670848111E-01  0.88951313292E+00  0.88000000000E+00 0. -1.
        -11    1    4    4    0    0 -0.11931261439E-01  0.33229558821E-01  0.17233052129E-01  0.39291192214E-01  0.51100000000E-03 0. -1.
         11    1    4    4    0    0 -0.42077934527E-03  0.86099428956E-01  0.30017162553E-01  0.91184318227E-01  0.51100000000E-03 0.  1.
</event>
<event>
 8    1  0.1122465E+005  0.1043930E+01  0.7957747E-01            NaN
         13   -1    0    0    0    0  0.00000000000E+00  0.00000000000E+00  0.74505805969E-08  0.10566000000E+00  0.10566000000E+00 0. -1.
     999900   -1    0    0    0    0 -0.00000000000E+00 -0.00000000000E+00 -0.74505805969E-08  0.93827000000E+00  0.93827000000E+00 0. -1.
     999902    2    1    2    0    0  0.54586453944E-02  0.21847255452E-01  0.82096699594E-02  0.10199613108E+01  0.10196796445E+01 0.  0.
     999903    2    3    3    0    0  0.63906375921E-01  0.55768438560E-01  0.99931782905E-01  0.13261711048E+00  0.20169113384E-01 0.  0.
         14    1    1    2    0    0 -0.54586453944E-02 -0.21847255452E-01 -0.82096699594E-02  0.23968689183E-01  0.00000000000E+00 0.  1.
     999901    1    3    3    0    0 -0.58447730527E-01 -0.33921183108E-01 -0.91722112946E-01  0.88734420034E+00  0.88000000000E+00 0. -1.
        -11    1    4    4    0    0  0.62141577024E-01  0.48436212396E-01  0.85122558860E-01  0.11599031604E+00  0.51100000000E-03 0. -1.
         11    1    4    4    0    0  0.17647988976E-02  0.73322261642E-02  0.14809224045E-01  0.16626794444E-01  0.51100000000E-03 0.  1.
</event>
<event>
 8    1  0.1122465E+005  0.1043930E+01  0.7957747E-01            NaN
         13   -1    0    0    0    0  0.00000000000E+00  0.00000000000E+00  0.74505805969E-08  0.10566000000E+00  0.10566000000E+00 0. -1.
     999900   -1    0    0    0    0 -0.00000000000E+00 -0.00000000000E+00 -0.74505805969E-08  0.93827000000E+00  0.93827000000E+00 0.  1.
     999902    2    1    2    0    0  0.16442825282E-01 -0.16497743493E-01 -0.16534417190E-01  0.10153655291E+01  0.10149636588E+01 0.  0.
     999903    2    3    3    0    0  0.12094735590E+00 -0.10487628006E-01 -0.38139919706E-01  0.12889831816E+00  0.20539467093E-01 0.  0.
         14    1    1    2    0    0 -0.16442825282E-01  0.16497743493E-01  0.16534417190E-01  0.28564470859E-01  0.00000000000E+00 0. -1.
     999901    1    3    3    0    0 -0.10450453062E+00 -0.60101154878E-02  0.21605502516E-01  0.88646721098E+00  0.88000000000E+00 0. -1.
        -11    1    4    4    0    0  0.73509534635E-01  0.42905817378E-03 -0.15128515787E-01  0.75053107091E-01  0.51100000000E-03 0.  1.
         11    1    4    4    0    0  0.47437821266E-01 -0.10916686179E-01 -0.23011403919E-01  0.53845211068E-01  0.51100000000E-03 0. -1.
</event>
<event>
 8    1  0.1122465E+005  0.1043930E+01  0.7957747E-01            NaN
         13   -1    0    0    0    0  0.00000000000E+00  0.00000000000E+00  0.74505805969E-08  0.10566000000E+00  0.10566000000E+00 0. -1.
     999900   -1    0    0    0    0 -0.00000000000E+00 -0.00000000000E+00 -0.74505805969E-08  0.93827000000E+00  0.93827000000E+00 0.  1.
     999902    2    1    2    0    0  0.18683151397E-02  0.23246782388E-01 -0.26108369030E-02  0.10204625766E+01  0.10201927025E+01 0.  0.
     999903    2    3    3    0    0  0.21636844189E-01 -0.90365626552E-01  0.86583804753E-01  0.12846803718E+00  0.19317915094E-01 0.  0.
         14    1    1    2    0    0 -0.18683151397E-02 -0.23246782388E-01  0.26108369030E-02  0.23467423425E-01  0.00000000000E+00 0.  1.
     999901    1    3    3    0    0 -0.19768529049E-01  0.11361240894E+00 -0.89194641656E-01  0.89199453939E+00  0.88000000000E+00 0.  1.
        -11    1    4    4    0    0 -0.63252977321E-03 -0.33973068000E-01  0.26345988086E-01  0.42999321535E-01  0.51100000000E-03 0. -1.
         11    1    4    4    0    0  0.22269373962E-01 -0.56392558552E-01  0.60237816667E-01  0.85468715648E-01  0.51100000000E-03 0.  1.
</event>
<event>
 8    1  0.1122465E+005  0.1043930E+01  0.7957747E-01            NaN
         13   -1    0    0    0    0  0.00000000000E+00  0.00000000000E+00  0.74505805969E-08  0.10566000000E+00  0.10566000000E+00 0. -1.
     999900   -1    0    0    0    0 -0.00000000000E+00 -0.00000000000E+00 -0.74505805969E-08  0.93827000000E+00  0.93827000000E+00 0. -1.
     999902    2    1    2    0    0  0.11532214182E-01  0.17128662506E-01  0.11452185969E-01  0.10203178081E+01  0.10200445549E+01 0.  0.
     999903    2    3    3    0    0 -0.64939211527E-01 -0.93011296360E-01 -0.54999145045E-01  0.12768436211E+00  0.20253096756E-01 0.  0.
         14    1    1    2    0    0 -0.11532214182E-01 -0.17128662506E-01 -0.11452185969E-01  0.23612191907E-01  0.00000000000E+00 0. -1.
     999901    1    3    3    0    0  0.76471425709E-01  0.11013995887E+00  0.66451331014E-01  0.89263344598E+00  0.88000000000E+00 0.  1.
        -11    1    4    4    0    0 -0.30276382724E-01 -0.55791980614E-01 -0.22619000799E-01  0.67389055267E-01  0.51100000000E-03 0.  1.
         11    1    4    4    0    0 -0.34662828803E-01 -0.37219315746E-01 -0.32380144246E-01  0.60295306846E-01  0.51100000000E-03 0. -1.
</event>
<event>
 8    1  0.1122465E+005  0.1043930E+01  0.7957747E-01            NaN
         13   -1    0    0    0    0  0.00000000000E+00  0.00000000000E+00  0.74505805969E-08  0.10566000000E+00  0.10566000000E+00 0. -1.
     999900   -1    0    0    0    0 -0.00000000000E+00 -0.00000000000E+00 -0.74505805969E-08  0.93827000000E+00  0.93827000000E+00 0.  1.
     999902    2    1    2    0    0  0.18692600755E-01 -0.70754600836E-02  0.12066865594E-01  0.10205829509E+01  0.10203158701E+01 0.  0.
     999903    2    3    3    0    0 -0.34747137322E-01  0.11166834307E+00  0.53324330409E-01  0.13004486925E+00  0.19773755533E-01 0.  0.
         14    1    1    2    0    0 -0.18692600755E-01  0.70754600836E-02 -0.12066865594E-01  0.23347049142E-01  0.00000000000E+00 0.  1.
     999901    1    3    3    0    0  0.53439738076E-01 -0.11874380316E+00 -0.41257464814E-01  0.89053808161E+00  0.88000000000E+00 0.  1.
        -11    1    4    4    0    0 -0.15461846924E-01  0.23038054079E-01  0.15330522518E-01  0.31703417604E-01  0.51100000000E-03 0.  1.
         11    1    4    4    0    0 -0.19285290397E-01  0.88630288992E-01  0.37993807890E-01  0.98341451645E-01  0.51100000000E-03 0. -1.
</event>
<event>
 8    1  0.1122465E+005  0.1043930E+01  0.7957747E-01            NaN
         13   -1    0    0    0    0  0.00000000000E+00  0.00000000000E+00  0.74505805969E-08  0.10566000000E+00  0.10566000000E+00 0. -1.
     999900   -1    0    0    0    0 -0.00000000000E+00 -0.00000000000E+00 -0.74505805969E-08  0.93827000000E+00  0.93827000000E+00 0. -1.
     999902    2    1    2    0    0 -0.12615484160E-01 -0.17025609602E-01 -0.14598551252E-01  0.10181979282E+01  0.10178727236E+01 0.  0.
     999903    2    3    3    0    0 -0.37739906786E-01  0.11608495640E+00  0.28371842751E-01  0.12679671985E+00  0.19298420612E-01 0.  0.
         14    1    1    2    0    0  0.12615484160E-01  0.17025609602E-01  0.14598551252E-01  0.25732071848E-01  0.00000000000E+00 0. -1.
     999901    1    3    3    0    0  0.25124422625E-01 -0.13311056600E+00 -0.42970394003E-01  0.89140120830E+00  0.88000000000E+00 0. -1.
        -11    1    4    4    0    0 -0.15747635496E-01  0.72394182643E-01  0.23050472154E-01  0.77591823615E-01  0.51100000000E-03 0.  1.
         11    1    4    4    0    0 -0.21992271289E-01  0.43690773757E-01  0.53213705971E-02  0.49204896240E-01  0.51100000000E-03 0. -1.
</event>
<event>
 8    1  0.1122465E+005  0.1043930E+01  0.7957747E-01            NaN
         13   -1    0    0    0    0  0.00000000000E+00  0.00000000000E+00  0.74505805969E-08  0.10566000000E+00  0.10566000000E+00 0. -1.
     999900   -1    0    0    0    0 -0.00000000000E+00 -0.00000000000E+00 -0.74505805969E-08  0.93827000000E+00  0.93827000000E+00 0.  1.
     999902    2    1    2    0    0 -0.16787302609E-01 -0.66509626465E-02  0.17929888448E-01  0.10184833945E+01  0.10181654557E+01 0.  0.
     999903    2    3    3    0    0  0.92979170887E-01  0.82654641781E-01  0.17264698618E-01  0.12717838935E+00  0.19983915332E-01 0.  0.
         14    1    1    2    0    0  0.16787302609E-01  0.66509626465E-02 -0.17929888448E-01  0.25446605525E-01  0.00000000000E+00 0.  1.
     999901    1    3    3    0    0 -0.10976647350E+00 -0.89305604428E-01  0.66518982947E-03  0.89130500513E+00  0.88000000000E+00 0.  1.
        -11    1    4    4    0    0  0.23476029007E-01  0.33288780032E-01  0.47761479622E-02  0.41016332410E-01  0.51100000000E-03 0.  1.
         11    1    4    4    0    0  0.69503141880E-01  0.49365861749E-01  0.12488550656E-01  0.86162056939E-01  0.51100000000E-03 0. -1.
</event>
<event>
 8    1  0.1122465E+005  0.1043930E+01  0.7957747E-01            NaN
         13   -1    0    0    0    0  0.00000000000E+00  0.00000000000E+00  0.74505805969E-08  0.10566000000E+00  0.10566000000E+00 0. -1.
     999900   -1    0    0    0    0 -0.00000000000E+00 -0.00000000000E+00 -0.74505805969E-08  0.93827000000E+00  0.93827000000E+00 0. -1.
     999902    2    1    2    0    0 -0.15800987253E-01 -0.15622104212E-01  0.87225604908E-02  0.10200594240E+01  0.10197800861E+01 0.  0.
     999903    2    3    3    0    0 -0.35157569614E-02  0.45215213667E-01 -0.11873625468E+00  0.12871333199E+00  0.20298954763E-01 0.  0.
         14    1    1    2    0    0  0.15800987253E-01  0.15622104212E-01 -0.87225604908E-02  0.23870576024E-01  0.00000000000E+00 0. -1.
     999901    1    3    3    0    0 -0.12285230292E-01 -0.60837317879E-01  0.12745881517E+00  0.89134609198E+00  0.88000000000E+00 0.  1.
        -11    1    4    4    0    0 -0.72824698093E-02  0.17794618497E-01 -0.70717169597E-01  0.73286165207E-01  0.51100000000E-03 0. -1.
         11    1    4    4    0    0  0.37667128479E-02  0.27420595169E-01 -0.48019085079E-01  0.55427166786E-01  0.51100000000E-03 0.  1.
</event>
<event>
 8    1  0.1122465E+005  0.1043930E+01  0.7957747E-01            NaN
         13   -1    0    0    0    0  0.00000000000E+00  0.00000000000E+00  0.74505805969E-08  0.10566000000E+00  0.10566000000E+00 0.  1.
     999900   -1    0    0    0    0 -0.00000000000E+00 -0.00000000000E+00 -0.74505805969E-08  0.93827000000E+00  0.93827000000E+00 0. -1.
     999902    2    1    2    0    0 -0.20349584645E-01 -0.11969476385E-01  0.32847382460E-02  0.10200938202E+01  0.10198152963E+01 0.  0.
     999903    2    3    3    0    0  0.10792042869E+00  0.11683894325E-01 -0.64449359856E-01  0.12790517073E+00  0.20559192550E-01 0.  0.
         14    1    1    2    0    0  0.20349584645E-01  0.11969476385E-01 -0.32847382460E-02  0.23836179758E-01  0.00000000000E+00 0. -1.
     999901    1    3    3    0    0 -0.12827001334E+00 -0.23653370710E-01  0.67734098102E-01  0.89218864951E+00  0.88000000000E+00 0.  1.
        -11    1    4    4    0    0  0.70236901873E-01 -0.17706388010E-02 -0.44757828404E-01  0.83305953394E-01  0.51100000000E-03 0. -1.
         11    1    4    4    0    0  0.37683526820E-01  0.13454533126E-01 -0.19691531452E-01  0.44599217338E-01  0.51100000000E-03 0.  1.
</event>
<event>
 8    1  0.1122465E+005  0.1043930E+01  0.7957747E-01            NaN
         13   -1    0    0    0    0  0.00000000000E+00  0.00000000000E+00  0.74505805969E-08  0.10566000000E+00  0.10566000000E+00 0.  1.
     999900   -1    0    0    0    0 -0.00000000000E+00 -0.00000000000E+00 -0.74505805969E-08  0.93827000000E+00  0.93827000000E+00 0.  1.
     999902    2    1    2    0    0  0.11519863416E-01 -0.30970738504E-02 -0.20253558629E-01  0.10204245590E+01  0.10201537996E+01 0.  0.
     999903    2    3    3    0    0  0.70399083429E-01  0.10912465001E+00  0.12204310348E-02  0.13108682220E+00  0.17833825063E-01 0.  0.
         14    1    1    2    0    0 -0.11519863416E-01  0.30970738504E-02  0.20253558629E-01  0.23505441002E-01  0.00000000000E+00 0.  1.
     999901    1    3    3    0    0 -0.58879220013E-01 -0.11222172386E+00 -0.21473989664E-01  0.88933773679E+00  0.88000000000E+00 0.  1.
        -11    1    4    4    0    0  0.42919824920E-01  0.53063177789E-01 -0.44423797623E-02  0.68394503194E-01  0.51100000000E-03 0.  1.
         11    1    4    4    0    0  0.27479258509E-01  0.56061472219E-01  0.56628107971E-02  0.62692319009E-01  0.51100000000E-03 0. -1.
</event>
<event>
 8    1  0.1122465E+005  0.1043930E+01  0.7957747E-01            NaN
         13   -1    0    0    0    0  0.00000000000E+00  0.00000000000E+00  0.74505805969E-08  0.10566000000E+00  0.10566000000E+00 0.  1.
     999900   -1    0    0    0    0 -0.00000000000E+00 -0.00000000000E+00 -0.74505805969E-08  0.93827000000E+00  0.93827000000E+00 0. -1.
     999902    2    1    2    0    0 -0.47152445090E-02  0.25091993266E-01  0.12550349703E-01  0.10154808711E+01  0.10150822857E+01 0.  0.
     999903    2    3    3    0    0 -0.17293380088E-01 -0.11596060493E+00 -0.31382254602E-01  0.12307730844E+00  0.20426822038E-01 0.  0.
         14    1    1    2    0    0  0.47152445090E-02 -0.25091993266E-01 -0.12550349703E-01  0.28449128888E-01  0.00000000000E+00 0. -1.
     999901    1    3    3    0    0  0.12578135579E-01  0.14105259819E+00  0.43932604304E-01  0.89240356267E+00  0.88000000000E+00 0.  1.
        -11    1    4    4    0    0 -0.11253908149E-01 -0.63691480941E-01 -0.27598521535E-01  0.70322078361E-01  0.51100000000E-03 0.  1.
         11    1    4    4    0    0 -0.60394719399E-02 -0.52269123985E-01 -0.37837330665E-02  0.52755230077E-01  0.51100000000E-03 0. -1.
</event>
<event>
 8    1  0.1122465E+005  0.1043930E+01  0.7957747E-01            NaN
         13   -1    0    0    0    0  0.00000000000E+00  0.00000000000E+00  0.74505805969E-08  0.10566000000E+00  0.10566000000E+00 0. -1.
     999900   -1    0    0    0    0 -0.00000000000E+00 -0.00000000000E+00 -0.74505805969E-08  0.93827000000E+00  0.93827000000E+00 0. -1.
     999902    2    1    2    0    0 -0.18587579659E-01  0.95442529948E-02 -0.47274831873E-03  0.10230298954E+01  0.10228163826E+01 0.  0.
     999903    2    3    3    0    0  0.92320565087E-01  0.90741617666E-01 -0.17950687659E-01  0.13218809854E+00  0.19857952927E-01 0.  0.
         14    1    1    2    0    0  0.18587579659E-01 -0.95442529948E-02  0.47274831873E-03  0.20900104635E-01  0.00000000000E+00 0.  1.
     999901    1    3    3    0    0 -0.11090814475E+00 -0.81197364671E-01  0.17477939340E-01  0.89084179682E+00  0.88000000000E+00 0.  1.
        -11    1    4    4    0    0  0.52267043702E-01  0.62658884788E-01 -0.16481149364E-01  0.83245835365E-01  0.51100000000E-03 0. -1.
         11    1    4    4    0    0  0.40053521385E-01  0.28082732878E-01 -0.14695382948E-02  0.48942263179E-01  0.51100000000E-03 0.  1.
</event>
<event>
 8    1  0.1122465E+005  0.1043930E+01  0.7957747E-01            NaN
         13   -1    0    0    0    0  0.00000000000E+00  0.00000000000E+00  0.74505805969E-08  0.10566000000E+00  0.10566000000E+00 0.  1.
     999900   -1    0    0    0    0 -0.00000000000E+00 -0.00000000000E+00 -0.74505805969E-08  0.93827000000E+00  0.93827000000E+00 0.  1.
     999902    2    1    2    0    0  0.13466621670E-02 -0.13787544555E-01 -0.13656670424E-01  0.10244771202E+01  0.10242924169E+01 0.  0.
     999903    2    3    3    0    0 -0.25308664182E-01 -0.13051903899E+00  0.19390063656E-01  0.13575397165E+00  0.19427254746E-01 0.  0.
         14    1    1    2    0    0 -0.13466621670E-02  0.13787544555E-01  0.13656670424E-01  0.19452879759E-01  0.00000000000E+00 0.  1.
     999901    1    3    3    0    0  0.26655326349E-01  0.11673149444E+00 -0.33046734081E-01  0.88872314860E+00  0.88000000000E+00 0.  1.
        -11    1    4    4    0    0 -0.55394937518E-02 -0.29633275896E-01 -0.37293943921E-02  0.30380693456E-01  0.51100000000E-03 0.  1.
         11    1    4    4    0    0 -0.19769170430E-01 -0.10088576310E+00  0.23119458048E-01  0.10537327819E+00  0.51100000000E-03 0. -1.
</event>
<event>
 8    1  0.1122465E+005  0.1043930E+01  0.7957747E-01            NaN
         13   -1    0    0    0    0  0.00000000000E+00  0.00000000000E+00  0.74505805969E-08  0.10566000000E+00  0.10566000000E+00 0.  1.
     999900   -1    0    0    0    0 -0.00000000000E+00 -0.00000000000E+00 -0.74505805969E-08  0.93827000000E+00  0.93827000000E+00 0.  1.
     999902    2    1    2    0    0 -0.16244448533E-01  0.11713355121E-01  0.14393426472E-01  0.10192671631E+01  0.10189687406E+01 0.  0.
     999903    2    3    3    0    0 -0.80257687398E-02 -0.10389846168E+00 -0.70721446929E-01  0.12759559773E+00  0.20489270402E-01 0.  0.
         14    1    1    2    0    0  0.16244448533E-01 -0.11713355121E-01 -0.14393426472E-01  0.24662836860E-01  0.00000000000E+00 0. -1.
     999901    1    3    3    0    0 -0.82186797937E-02  0.11561181680E+00  0.85114873401E-01  0.89167156541E+00  0.88000000000E+00 0.  1.
        -11    1    4    4    0    0 -0.34886166976E-02 -0.53209281802E-01 -0.23888133677E-01  0.58432030325E-01  0.51100000000E-03 0. -1.
         11    1    4    4    0    0 -0.45371520421E-02 -0.50689179880E-01 -0.46833313252E-01  0.69163567409E-01  0.51100000000E-03 0.  1.
</event>
<event>
 8    1  0.1122465E+005  0.1043930E+01  0.7957747E-01            NaN
         13   -1    0    0    0    0  0.00000000000E+00  0.00000000000E+00  0.74505805969E-08  0.10566000000E+00  0.10566000000E+00 0. -1.
     999900   -1    0    0    0    0 -0.00000000000E+00 -0.00000000000E+00 -0.74505805969E-08  0.93827000000E+00  0.93827000000E+00 0.  1.
     999902    2    1    2    0    0  0.13512563070E-01 -0.12488215263E-01  0.15363083498E-01  0.10199598265E+01  0.10196781250E+01 0.  0.
     999903    2    3    3    0    0  0.19487283907E-01  0.15050213462E-01 -0.12456809680E+00  0.12845839773E+00  0.19444434904E-01 0.  0.
         14    1    1    2    0    0 -0.13512563070E-01  0.12488215263E-01 -0.15363083498E-01  0.23970173461E-01  0.00000000000E+00 0.  1.
     999901    1    3    3    0    0 -0.59747208369E-02 -0.27538428726E-01  0.13993118030E+00  0.89150142881E+00  0.88000000000E+00 0. -1.
        -11    1    4    4    0    0  0.89091623485E-02  0.15551864069E-01 -0.10148587332E+00  0.10305764044E+00  0.51100000000E-03 0.  1.
         11    1    4    4    0    0  0.10578121558E-01 -0.50165060682E-03 -0.23082223480E-01  0.25400757288E-01  0.51100000000E-03 0. -1.
</event>
<event>
 8    1  0.1122465E+005  0.1043930E+01  0.7957747E-01            NaN
         13   -1    0    0    0    0  0.00000000000E+00  0.00000000000E+00  0.74505805969E-08  0.10566000000E+00  0.10566000000E+00 0. -1.
     999900   -1    0    0    0    0 -0.00000000000E+00 -0.00000000000E+00 -0.74505805969E-08  0.93827000000E+00  0.93827000000E+00 0. -1.
     999902    2    1    2    0    0  0.76800283091E-02 -0.10464466121E-01 -0.20682617362E-01  0.10195115941E+01  0.10192191285E+01 0.  0.
     999903    2    3    3    0    0  0.32929298939E-01  0.10805701363E+00 -0.61668845671E-01  0.13026205783E+00  0.20112191874E-01 0.  0.
         14    1    1    2    0    0 -0.76800283091E-02  0.10464466121E-01  0.20682617362E-01  0.24418405905E-01  0.00000000000E+00 0. -1.
     999901    1    3    3    0    0 -0.25249270630E-01 -0.11852147975E+00  0.40986228309E-01  0.88924953626E+00  0.88000000000E+00 0.  1.
        -11    1    4    4    0    0  0.24122083444E-01  0.47371123274E-01 -0.32967133217E-01  0.62553906540E-01  0.51100000000E-03 0.  1.
         11    1    4    4    0    0  0.88072154951E-02  0.60685890354E-01 -0.28701712454E-01  0.67708151294E-01  0.51100000000E-03 0. -1.
</event>
<event>
 8    1  0.1122465E+005  0.1043930E+01  0.7957747E-01            NaN
         13   -1    0    0    0    0  0.00000000000E+00  0.00000000000E+00  0.74505805969E-08  0.10566000000E+00  0.10566000000E+00 0. -1.
     999900   -1    0    0    0    0 -0.00000000000E+00 -0.00000000000E+00 -0.74505805969E-08  0.93827000000E+00  0.93827000000E+00 0. -1.
     999902    2    1    2    0    0 -0.28895972263E-02 -0.96018444655E-02  0.21180440771E-01  0.10204959167E+01  0.10202268178E+01 0.  0.
     999903    2    3    3    0    0  0.12416091237E+00  0.23136225106E-01 -0.22160118456E-01  0.12971422780E+00  0.19582976557E-01 0.  0.
         14    1    1    2    0    0  0.28895972263E-02  0.96018444655E-02 -0.21180440771E-01  0.23434083309E-01  0.00000000000E+00 0.  1.
     999901    1    3    3    0    0 -0.12705050960E+00 -0.32738069571E-01  0.43340559227E-01  0.89078168889E+00  0.88000000000E+00 0.  1.
        -11    1    4    4    0    0  0.11326931331E+00  0.26532381947E-01 -0.19129450318E-01  0.11789869219E+00  0.51100000000E-03 0. -1.
         11    1    4    4    0    0  0.10891599061E-01 -0.33961568417E-02 -0.30306681380E-02  0.11815535610E-01  0.51100000000E-03 0.  1.
</event>
<event>
 8    1  0.1122465E+005  0.1043930E+01  0.7957747E-01            NaN
         13   -1    0    0    0    0  0.00000000000E+00  0.00000000000E+00  0.74505805969E-08  0.10566000000E+00  0.10566000000E+00 0. -1.
     999900   -1    0    0    0    0 -0.00000000000E+00 -0.00000000000E+00 -0.74505805969E-08  0.93827000000E+00  0.93827000000E+00 0.  1.
     999902    2    1    2    0    0 -0.31920381603E-02  0.75100146235E-02  0.18593261488E-01  0.10236248578E+01  0.10234234464E+01 0.  0.
     999903    2    3    3    0    0  0.12706818750E+00  0.34096755093E-01  0.17668729774E-01  0.13363865795E+00  0.15433531837E-01 0.  0.
         14    1    1    2    0    0  0.31920381603E-02 -0.75100146235E-02 -0.18593261488E-01  0.20305142206E-01  0.00000000000E+00 0.  1.
     999901    1    3    3    0    0 -0.13026022566E+00 -0.26586740469E-01  0.92453171359E-03  0.88998619985E+00  0.88000000000E+00 0. -1.
        -11    1    4    4    0    0  0.10136470844E+00  0.20895535185E-01  0.12033392288E-01  0.10419448718E+00  0.51100000000E-03 0. -1.
         11    1    4    4    0    0  0.25703479058E-01  0.13201219908E-01  0.56353374860E-02  0.29444170770E-01  0.51100000000E-03 0.  1.
</event>
<event>
 8    1  0.1122465E+005  0.1043930E+01  0.7957747E-01            NaN
         13   -1    0    0    0    0  0.00000000000E+00  0.00000000000E+00  0.74505805969E-08  0.10566000000E+00  0.10566000000E+00 0.  1.
     999900   -1    0    0    0    0 -0.00000000000E+00 -0.00000000000E+00 -0.74505805969E-08  0.93827000000E+00  0.93827000000E+00 0.  1.
     999902    2    1    2    0    0  0.11060465422E-02  0.24415952905E-02  0.24568471836E-01  0.10192157423E+01  0.10189160587E+01 0.  0.
     999903    2    3    3    0    0 -0.53304539382E-01  0.56684044505E-01 -0.98703257986E-01  0.12730841832E+00  0.20264387907E-01 0.  0.
         14    1    1    2    0    0 -0.11060465422E-02 -0.24415952905E-02 -0.24568471836E-01  0.24714257724E-01  0.00000000000E+00 0. -1.
     999901    1    3    3    0    0  0.54410585924E-01 -0.54242449214E-01  0.12327172982E+00  0.89190732396E+00  0.88000000000E+00 0. -1.
        -11    1    4    4    0    0 -0.35935538839E-01  0.46578485776E-01 -0.83315675645E-01  0.10199353518E+00  0.51100000000E-03 0.  1.
         11    1    4    4    0    0 -0.17369000542E-01  0.10105558729E-01 -0.15387582341E-01  0.25314883140E-01  0.51100000000E-03 0. -1.
</event>
<event>
 8    1  0.1122465E+005  0.1043930E+01  0.7957747E-01            NaN
         13   -1    0    0    0    0  0.00000000000E+00  0.00000000000E+00  0.74505805969E-08  0.10566000000E+00  0.10566000000E+00 0.  1.
     999900   -1    0    0    0    0 -0.00000000000E+00 -0.00000000000E+00 -0.74505805969E-08  0.93827000000E+00  0.93827000000E+00 0.  1.
     999902    2    1    2    0    0 -0.13402992589E-01 -0.17633888751E-01 -0.95787979759E-02  0.10197981204E+01  0.10195125594E+01 0.  0.
     999903    2    3    3    0    0 -0.66510527279E-01  0.10825742664E+00  0.90822905436E-02  0.12905838862E+00  0.20742685678E-01 0.  0.
         14    1    1    2    0    0  0.13402992589E-01  0.17633888751E-01  0.95787979759E-02  0.24131879610E-01  0.00000000000E+00 0.  1.
     999901    1    3    3    0    0  0.53107534690E-01 -0.12589131539E+00 -0.18661088520E-01  0.89073973177E+00  0.88000000000E+00 0.  1.
        -11    1    4    4    0    0 -0.49273832757E-01  0.61162001530E-01  0.71588373004E-02  0.78868314919E-01  0.51100000000E-03 0. -1.
         11    1    4    4    0    0 -0.17236694522E-01  0.47095425112E-01  0.19234532432E-02  0.50190073699E-01  0.51100000000E-03 0.  1.
</event>
<event>
 8    1  0.1122465E+005  0.1043930E+01  0.7957747E-01            NaN
         13   -1    0    0    0    0  0.00000000000E+00  0.00000000000E+00  0.74505805969E-08  0.10566000000E+00  0.10566000000E+00 0. -1.
     999900   -1    0    0    0    0 -0.00000000000E+00 -0.00000000000E+00 -0.74505805969E-08  0.93827000000E+00  0.93827000000E+00 0.  1.
     999902    2    1    2    0    0 -0.43741069130E-02 -0.89000168104E-02 -0.21600877475E-01  0.10201615121E+01  0.10198845865E+01 0.  0.
     999903    2    3    3    0    0 -0.67495899968E-01  0.10829260153E+00  0.71430824148E-02  0.12968709595E+00  0.22016702042E-01 0.  0.
         14    1    1    2    0    0  0.43741069130E-02  0.89000168104E-02  0.21600877475E-01  0.23768487924E-01  0.00000000000E+00 0. -1.
     999901    1    3    3    0    0  0.63121793055E-01 -0.11719261834E+00 -0.28743959890E-01  0.89047441613E+00  0.88000000000E+00 0. -1.
        -11    1    4    4    0    0 -0.65578643562E-01  0.10041682195E+00  0.11474437094E-01  0.12048244872E+00  0.51100000000E-03 0.  1.
         11    1    4    4    0    0 -0.19172564053E-02  0.78757795841E-02 -0.43313546787E-02  0.92046472248E-02  0.51100000000E-03 0. -1.
</event>
<event>
 8    1  0.1122465E+005  0.1043930E+01  0.7957747E-01            NaN
         13   -1    0    0    0    0  0.00000000000E+00  0.00000000000E+00  0.74505805969E-08  0.10566000000E+00  0.10566000000E+00 0.  1.
     999900   -1    0    0    0    0 -0.00000000000E+00 -0.00000000000E+00 -0.74505805969E-08  0.93827000000E+00  0.93827000000E+00 0.  1.
     999902    2    1    2    0    0  0.71299469800E-02 -0.15301184213E-01  0.17049370095E-01  0.10199374303E+01  0.10196551958E+01 0.  0.
     999903    2    3    3    0    0  0.89819757604E-01 -0.40068132506E-01 -0.82807708338E-01  0.13009337503E+00  0.19852596001E-01 0.  0.
         14    1    1    2    0    0 -0.71299469800E-02  0.15301184213E-01 -0.17049370095E-01  0.23992569743E-01  0.00000000000E+00 0. -1.
     999901    1    3    3    0    0 -0.82689810624E-01  0.24766948294E-01  0.99857078433E-01  0.88984405523E+00  0.88000000000E+00 0. -1.
        -11    1    4    4    0    0  0.73097605291E-01 -0.26626818887E-01 -0.56537876066E-01  0.96171929036E-01  0.51100000000E-03 0.  1.
         11    1    4    4    0    0  0.16722152313E-01 -0.13441313619E-01 -0.26269832272E-01  0.33921445995E-01  0.51100000000E-03 0. -1.
</event>
<event>
 7    1  0.1122465E+005  0.1043930E+01  0.7957747E-01            NaN
         13   -1    0    0    0    0  0.00000000000E+00  0.00000000000E+00  0.74505805969E-08  0.10566000000E+00  0.10566000000E+00 0.  1.
     999900   -1    0    0    0    0 -0.00000000000E+00 -0.00000000000E+00 -0.74505805969E-08  0.93827000000E+00  0.93827000000E+00 0. -1.
     999903    2    1    2    0    0 -0.76429354401E-01 -0.25669748418E-01 -0.78026332095E-01  0.11404066051E+00  0.20415228396E-01 0.  0.
         14    1    1    2    0    0  0.14479013142E-01 -0.34218545954E-01  0.23579582330E-01  0.44006220147E-01  0.00000000000E+00 0.  1.
     999901    1    1    2    0    0  0.61950341259E-01  0.59888294372E-01  0.54446749766E-01  0.88588311935E+00  0.88000000000E+00 0.  1.
        -11    1    3    3    0    0 -0.34562598401E-01 -0.13786755556E-01 -0.49788032469E-01  0.62159127529E-01  0.51100000000E-03 0.  1.
         11    1    3    3    0    0 -0.41866755999E-01 -0.11882992862E-01 -0.28238299626E-01  0.51881532977E-01  0.51100000000E-03 0. -1.
</event>
<event>
 7    1  0.1122465E+005  0.1043930E+01  0.7957747E-01            NaN
         13   -1    0    0    0    0  0.00000000000E+00  0.00000000000E+00  0.74505805969E-08  0.10566000000E+00  0.10566000000E+00 0. -1.
     999900   -1    0    0    0    0 -0.00000000000E+00 -0.00000000000E+00 -0.74505805969E-08  0.93827000000E+00  0.93827000000E+00 0.  1.
     999903    2    1    2    0    0 -0.53736619655E-01  0.62947005705E-01  0.11084137304E-01  0.85890114522E-01  0.20107308465E-01 0.  0.
         14    1    1    2    0    0 -0.85801308971E-02  0.61518270772E-01  0.23545319142E-01  0.66426638772E-01  0.00000000000E+00 0. -1.
     999901    1    1    2    0    0  0.62316750552E-01 -0.12446527648E+00 -0.34629456446E-01  0.89161324671E+00  0.88000000000E+00 0.  1.
        -11    1    3    3    0    0 -0.46766898281E-01  0.53350806099E-01  0.20603367134E-02  0.70978569968E-01  0.51100000000E-03 0. -1.
         11    1    3    3    0    0 -0.69697213742E-02  0.95961996053E-02  0.90238005908E-02  0.14911544555E-01  0.51100000000E-03 0.  1.
</event>
<event>
 8    1  0.1122465E+005  0.1043930E+01  0.7957747E-01            NaN
         13   -1    0    0    0    0  0.00000000000E+00  0.00000000000E+00  0.74505805969E-08  0.10566000000E+00  0.10566000000E+00 0.  1.
     999900   -1    0    0    0    0 -0.00000000000E+00 -0.00000000000E+00 -0.74505805969E-08  0.93827000000E+00  0.93827000000E+00 0.  1.
     999902    2    1    2    0    0  0.22242293280E-01 -0.23485096933E-02 -0.46829613755E-02  0.10210790649E+01  0.10208233400E+01 0.  0.
     999903    2    3    3    0    0 -0.12290360163E+00 -0.31981548913E-01 -0.94938224612E-02  0.12868420150E+00  0.18476371028E-01 0.  0.
         14    1    1    2    0    0 -0.22242293280E-01  0.23485096933E-02  0.46829613755E-02  0.22850935109E-01  0.00000000000E+00 0.  1.
     999901    1    3    3    0    0  0.14514589491E+00  0.29633039219E-01  0.48108610858E-02  0.89239486339E+00  0.88000000000E+00 0. -1.
        -11    1    4    4    0    0 -0.96783595076E-01 -0.25294374699E-01 -0.15018754365E-01  0.10115677818E+00  0.51100000000E-03 0.  1.
         11    1    4    4    0    0 -0.26120006553E-01 -0.66871742137E-02  0.55249319033E-02  0.27527423323E-01  0.51100000000E-03 0. -1.
</event>
<event>
 8    1  0.1122465E+005  0.1043930E+01  0.7957747E-01            NaN
         13   -1    0    0    0    0  0.00000000000E+00  0.00000000000E+00  0.74505805969E-08  0.10566000000E+00  0.10566000000E+00 0. -1.
     999900   -1    0    0    0    0 -0.00000000000E+00 -0.00000000000E+00 -0.74505805969E-08  0.93827000000E+00  0.93827000000E+00 0.  1.
     999902    2    1    2    0    0 -0.84868225000E-02  0.21087544708E-01  0.22011500347E-03  0.10211976629E+01  0.10209446154E+01 0.  0.
     999903    2    3    3    0    0 -0.12472032786E+00 -0.36144291877E-01  0.95173355661E-02  0.13166286923E+00  0.19569400647E-01 0.  0.
         14    1    1    2    0    0  0.84868225000E-02 -0.21087544708E-01 -0.22011500347E-03  0.22732337068E-01  0.00000000000E+00 0.  1.
     999901    1    3    3    0    0  0.11623350536E+00  0.57231836585E-01 -0.92972205626E-02  0.88953479370E+00  0.88000000000E+00 0.  1.
        -11    1    4    4    0    0 -0.99930379552E-01 -0.23667392398E-01  0.12620770937E-02  0.10270384696E+00  0.51100000000E-03 0.  1.
         11    1    4    4    0    0 -0.24789948310E-01 -0.12476899479E-01  0.82552584723E-02  0.28959022277E-01  0.51100000000E-03 0. -1.
</event>
<event>
 8    1  0.1122465E+005  0.1043930E+01  0.7957747E-01            NaN
         13   -1    0    0    0    0  0.00000000000E+00  0.00000000000E+00  0.74505805969E-08  0.10566000000E+00  0.10566000000E+00 0. -1.
     999900   -1    0    0    0    0 -0.00000000000E+00 -0.00000000000E+00 -0.74505805969E-08  0.93827000000E+00  0.93827000000E+00 0. -1.
     999902    2    1    2    0    0  0.11098941708E-01 -0.20669351826E-01 -0.38476067722E-02  0.10201557978E+01  0.10198787375E+01 0.  0.
     999903    2    3    3    0    0  0.10302372418E+00  0.64124281897E-01 -0.43552320871E-01  0.13042741775E+00  0.19715358872E-01 0.  0.
         14    1    1    2    0    0 -0.11098941708E-01  0.20669351826E-01  0.38476067722E-02  0.23774202191E-01  0.00000000000E+00 0. -1.
     999901    1    3    3    0    0 -0.91924782475E-01 -0.84793633724E-01  0.39704714098E-01  0.88972838005E+00  0.88000000000E+00 0.  1.
        -11    1    4    4    0    0  0.60352796852E-01  0.48714916391E-01 -0.28203558722E-01  0.82530630753E-01  0.51100000000E-03 0. -1.
         11    1    4    4    0    0  0.42670927331E-01  0.15409365506E-01 -0.15348762149E-01  0.47896787001E-01  0.51100000000E-03 0.  1.
</event>
<event>
 8    1  0.1122465E+005  0.1043930E+01  0.7957747E-01            NaN
         13   -1    0    0    0    0  0.00000000000E+00  0.00000000000E+00  0.74505805969E-08  0.10566000000E+00  0.10566000000E+00 0.  1.
     999900   -1    0    0    0    0 -0.00000000000E+00 -0.00000000000E+00 -0.74505805969E-08  0.93827000000E+00  0.93827000000E+00 0. -1.
     999902    2    1    2    0    0 -0.20243832827E-01 -0.84021567057E-03  0.13054419986E-01  0.10198273734E+01  0.10195425125E+01 0.  0.
     999903    2    3    3    0    0  0.12098135777E+00  0.28633317802E-01  0.22263985128E-01  0.12803252042E+00  0.20982979659E-01 0.  0.
         14    1    1    2    0    0  0.20243832827E-01  0.84021567057E-03 -0.13054419986E-01  0.24102626643E-01  0.00000000000E+00 0.  1.
     999901    1    3    3    0    0 -0.14122519060E+00 -0.29473533473E-01 -0.92095651421E-02  0.89179485294E+00  0.88000000000E+00 0. -1.
        -11    1    4    4    0    0  0.69014499995E-01  0.10271059938E-01  0.21119818107E-01  0.72902700360E-01  0.51100000000E-03 0.  1.
         11    1    4    4    0    0  0.51966857774E-01  0.18362257864E-01  0.11441670208E-02  0.55129820061E-01  0.51100000000E-03 0. -1.
</event>
<event>
 8    1  0.1122465E+005  0.1043930E+01  0.7957747E-01            NaN
         13   -1    0    0    0    0  0.00000000000E+00  0.00000000000E+00  0.74505805969E-08  0.10566000000E+00  0.10566000000E+00 0. -1.
     999900   -1    0    0    0    0 -0.00000000000E+00 -0.00000000000E+00 -0.74505805969E-08  0.93827000000E+00  0.93827000000E+00 0. -1.
     999902    2    1    2    0    0 -0.75080222492E-02  0.15066020773E-01  0.16179331324E-01  0.10205820634E+01  0.10203149622E+01 0.  0.
     999903    2    3    3    0    0 -0.50158720389E-01 -0.11762310333E+00  0.81199378322E-03  0.12948069952E+00  0.20334712811E-01 0.  0.
         14    1    1    2    0    0  0.75080222492E-02 -0.15066020773E-01 -0.16179331324E-01  0.23347936571E-01  0.00000000000E+00 0.  1.
     999901    1    3    3    0    0  0.42650698140E-01  0.13268912410E+00  0.15367337541E-01  0.89110136391E+00  0.88000000000E+00 0.  1.
        -11    1    4    4    0    0 -0.21457604175E-01 -0.59355859380E-01 -0.91144096335E-02  0.63772097375E-01  0.51100000000E-03 0. -1.
         11    1    4    4    0    0 -0.28701116214E-01 -0.58267243950E-01  0.99264034167E-02  0.65708602140E-01  0.51100000000E-03 0.  1.
</event>
<event>
 8    1  0.1122465E+005  0.1043930E+01  0.7957747E-01            NaN
         13   -1    0    0    0    0  0.00000000000E+00  0.00000000000E+00  0.74505805969E-08  0.10566000000E+00  0.10566000000E+00 0.  1.
     999900   -1    0    0    0    0 -0.00000000000E+00 -0.00000000000E+00 -0.74505805969E-08  0.93827000000E+00  0.93827000000E+00 0.  1.
     999902    2    1    2    0    0 -0.12202284053E-01 -0.49674518429E-02 -0.19488844032E-01  0.10204058346E+01  0.10201346387E+01 0.  0.
     999903    2    3    3    0    0 -0.72237970822E-01 -0.90712290299E-01  0.57225263782E-01  0.13088826015E+00  0.20247513158E-01 0.  0.
         14    1    1    2    0    0  0.12202284053E-01  0.49674518429E-02  0.19488844032E-01  0.23524165354E-01  0.00000000000E+00 0.  1.
     999901    1    3    3    0    0  0.60035686769E-01  0.85744838457E-01 -0.76714107814E-01  0.88951757450E+00  0.88000000000E+00 0. -1.
        -11    1    4    4    0    0 -0.58430551558E-01 -0.63069597214E-01  0.35028980147E-01  0.92839614493E-01  0.51100000000E-03 0. -1.
         11    1    4    4    0    0 -0.13807419264E-01 -0.27642693086E-01  0.22196283635E-01  0.38048645652E-01  0.51100000000E-03 0.  1.
</event>
<event>
 8    1  0.1122465E+005  0.1043930E+01  0.7957747E-01            NaN
         13   -1    0    0    0    0  0.00000000000E+00  0.00000000000E+00  0.74505805969E-08  0.10566000000E+00  0.10566000000E+00 0.  1.
     999900   -1    0    0    0    0 -0.00000000000E+00 -0.00000000000E+00 -0.74505805969E-08  0.93827000000E+00  0.93827000000E+00 0. -1.
     999902    2    1    2    0    0  0.10155623194E-01  0.21920894735E-01  0.21487763860E-02  0.10196755252E+01  0.10193870203E+01 0.  0.
     999903    2    3    3    0    0  0.11912388031E+00  0.44249183554E-02 -0.51500550042E-01  0.13116078672E+00  0.18459863378E-01 0.  0.
         14    1    1    2    0    0 -0.10155623194E-01 -0.21920894735E-01 -0.21487763860E-02  0.24254474812E-01  0.00000000000E+00 0.  1.
     999901    1    3    3    0    0 -0.10896825712E+00  0.17495976380E-01  0.53649326428E-01  0.88851473847E+00  0.88000000000E+00 0. -1.
        -11    1    4    4    0    0  0.58224940886E-01  0.29224479336E-02 -0.35181810185E-01  0.68093357474E-01  0.51100000000E-03 0. -1.
         11    1    4    4    0    0  0.60898939423E-01  0.15024704218E-02 -0.16318739857E-01  0.63067429246E-01  0.51100000000E-03 0.  1.
</event>
<event>
 8    1  0.1122465E+005  0.1043930E+01  0.7957747E-01            NaN
         13   -1    0    0    0    0  0.00000000000E+00  0.00000000000E+00  0.74505805969E-08  0.10566000000E+00  0.10566000000E+00 0.  1.
     999900   -1    0    0    0    0 -0.00000000000E+00 -0.00000000000E+00 -0.74505805969E-08  0.93827000000E+00  0.93827000000E+00 0. -1.
     999902    2    1    2    0    0  0.21482313006E-01  0.66173374706E-02  0.62352593268E-02  0.10206028187E+01  0.10203361976E+01 0.  0.
     999903    2    3    3    0    0  0.57255132034E-01 -0.33234972083E-01  0.11311012373E+00  0.13252053774E+00  0.19623438019E-01 0.  0.
         14    1    1    2    0    0 -0.21482313006E-01 -0.66173374706E-02 -0.62352593268E-02  0.23327181273E-01  0.00000000000E+00 0. -1.
     999901    1    3    3    0    0 -0.35772819028E-01  0.39852309554E-01 -0.10687486440E+00  0.88808228098E+00  0.88000000000E+00 0. -1.
        -11    1    4    4    0    0  0.18087550870E-01 -0.18262607884E-01  0.56464201102E-01  0.62041514088E-01  0.51100000000E-03 0.  1.
         11    1    4    4    0    0  0.39167581163E-01 -0.14972364199E-01  0.56645922628E-01  0.70479023654E-01  0.51100000000E-03 0. -1.
</event>
<event>
 8    1  0.1122465E+005  0.1043930E+01  0.7957747E-01            NaN
         13   -1    0    0    0    0  0.00000000000E+00  0.00000000000E+00  0.74505805969E-08  0.10566000000E+00  0.10566000000E+00 0.  1.
     999900   -1    0    0    0    0 -0.00000000000E+00 -0.00000000000E+00 -0.74505805969E-08  0.93827000000E+00  0.93827000000E+00 0.  1.
     999902    2    1    2    0    0  0.66111510994E-02  0.50987953910E-02  0.25532842224E-01  0.10170668084E+01  0.10167119856E+01 0.  0.
     999903    2    3    3    0    0 -0.10093680084E+00 -0.64255716197E-01 -0.33514012009E-01  0.12585238902E+00  0.19964969135E-01 0.  0.
         14    1    1    2    0    0 -0.66111510994E-02 -0.50987953910E-02 -0.25532842224E-01  0.26863191645E-01  0.00000000000E+00 0. -1.
     999901    1    3    3    0    0  0.10754795194E+00  0.69354511588E-01  0.59046854234E-01  0.89121441934E+00  0.88000000000E+00 0. -1.
        -11    1    4    4    0    0 -0.71574060342E-01 -0.37174022715E-01 -0.28734358562E-01  0.85619381928E-01  0.51100000000E-03 0.  1.
         11    1    4    4    0    0 -0.29362740496E-01 -0.27081693482E-01 -0.47796534473E-02  0.40233007088E-01  0.51100000000E-03 0. -1.
</event>
<event>
 8    1  0.1122465E+005  0.1043930E+01  0.7957747E-01            NaN
         13   -1    0    0    0    0  0.00000000000E+00  0.00000000000E+00  0.74505805969E-08  0.10566000000E+00  0.10566000000E+00 0.  1.
     999900   -1    0    0    0    0 -0.00000000000E+00 -0.00000000000E+00 -0.74505805969E-08  0.93827000000E+00  0.93827000000E+00 0. -1.
     999902    2    1    2    0    0 -0.13975873386E-01 -0.66966667953E-02  0.70854661892E-02  0.10268896299E+01  0.10267482348E+01 0.  0.
     999903    2    3    3    0    0  0.94829255847E-01 -0.65882065477E-01 -0.67423447663E-01  0.13509758807E+00  0.19297738028E-01 0.  0.
         14    1    1    2    0    0  0.13975873386E-01  0.66966667953E-02 -0.70854661892E-02  0.17040370131E-01  0.00000000000E+00 0. -1.
     999901    1    3    3    0    0 -0.10880512923E+00  0.59185398682E-01  0.74508913852E-01  0.89179204179E+00  0.88000000000E+00 0.  1.
        -11    1    4    4    0    0  0.61430190863E-01 -0.40379050898E-01 -0.53144342946E-01  0.90712283672E-01  0.51100000000E-03 0. -1.
         11    1    4    4    0    0  0.33399064984E-01 -0.25503014580E-01 -0.14279104717E-01  0.44385304403E-01  0.51100000000E-03 0.  1.
</event>
<event>
 8    1  0.1122465E+005  0.1043930E+01  0.7957747E-01            NaN
         13   -1    0    0    0    0  0.00000000000E+00  0.00000000000E+00  0.74505805969E-08  0.10566000000E+00  0.10566000000E+00 0. -1.
     999900   -1    0    0    0    0 -0.00000000000E+00 -0.00000000000E+00 -0.74505805969E-08  0.93827000000E+00  0.93827000000E+00 0. -1.
     999902    2    1    2    0    0 -0.84855958153E-02  0.13423277094E-01 -0.15757957115E-01  0.10215580775E+01  0.10213130777E+01 0.  0.
     999903    2    3    3    0    0  0.86246690288E-01 -0.87549917509E-01 -0.38873451188E-01  0.13043287971E+00  0.19952725635E-01 0.  0.
         14    1    1    2    0    0  0.84855958153E-02 -0.13423277094E-01  0.15757957115E-01  0.22371922508E-01  0.00000000000E+00 0. -1.
     999901    1    3    3    0    0 -0.94732286104E-01  0.10097319460E+00  0.23115494074E-01  0.89112519778E+00  0.88000000000E+00 0.  1.
        -11    1    4    4    0    0  0.18757508121E-01 -0.14050440173E-01 -0.15002290038E-01  0.27831435596E-01  0.51100000000E-03 0.  1.
         11    1    4    4    0    0  0.67489182168E-01 -0.73499477336E-01 -0.23871161150E-01  0.10260144411E+00  0.51100000000E-03 0. -1.
</event>
<event>
 8    1  0.1122465E+005  0.1043930E+01  0.7957747E-01            NaN
         13   -1    0    0    0    0  0.00000000000E+00  0.00000000000E+00  0.74505805969E-08  0.10566000000E+00  0.10566000000E+00 0. -1.
     999900   -1    0    0    0    0 -0.00000000000E+00 -0.00000000000E+00 -0.74505805969E-08  0.93827000000E+00  0.93827000000E+00 0.  1.
     999902    2    1    2    0    0 -0.23922641982E-01 -0.12775943470E-02  0.15720842329E-02  0.10199217411E+01  0.10196391330E+01 0.  0.
     999903    2    3    3    0    0  0.31718688318E-01 -0.12389270717E+00  0.97584169955E-02  0.12964232452E+00  0.18879288320E-01 0.  0.
         14    1    1    2    0    0  0.23922641982E-01  0.12775943470E-02 -0.15720842329E-02  0.24008258903E-01  0.00000000000E+00 0. -1.
     999901    1    3    3    0    0 -0.55641330301E-01  0.12261511282E+00 -0.81863327626E-02  0.89027941657E+00  0.88000000000E+00 0. -1.
        -11    1    4    4    0    0  0.13401871315E-02 -0.32376795222E-01  0.71051060902E-02  0.33178255288E-01  0.51100000000E-03 0.  1.
         11    1    4    4    0    0  0.30378501187E-01 -0.91515911947E-01  0.26533109053E-02  0.96464069236E-01  0.51100000000E-03 0. -1.
</event>
<event>
 8    1  0.1122465E+005  0.1043930E+01  0.7957747E-01            NaN
         13   -1    0    0    0    0  0.00000000000E+00  0.00000000000E+00  0.74505805969E-08  0.10566000000E+00  0.10566000000E+00 0. -1.
     999900   -1    0    0    0    0 -0.00000000000E+00 -0.00000000000E+00 -0.74505805969E-08  0.93827000000E+00  0.93827000000E+00 0.  1.
     999902    2    1    2    0    0 -0.13018400245E-01 -0.68024584674E-02  0.17124812685E-01  0.10213687191E+01  0.10211195077E+01 0.  0.
     999903    2    3    3    0    0 -0.39714618849E-02 -0.53977707726E-01  0.12104645221E+00  0.13395277469E+00  0.19019379966E-01 0.  0.
         14    1    1    2    0    0  0.13018400245E-01  0.68024584674E-02 -0.17124812685E-01  0.22561280895E-01  0.00000000000E+00 0.  1.
     999901    1    3    3    0    0 -0.90469383600E-02  0.47175249258E-01 -0.10392163952E+00  0.88741594441E+00  0.88000000000E+00 0.  1.
        -11    1    4    4    0    0 -0.83927622517E-02 -0.17133046493E-01  0.54671178845E-01  0.57906637423E-01  0.51100000000E-03 0.  1.
         11    1    4    4    0    0  0.44213003668E-02 -0.36844661232E-01  0.66375273365E-01  0.76046137269E-01  0.51100000000E-03 0. -1.
</event>
<event>
 8    1  0.1122465E+005  0.1043930E+01  0.7957747E-01            NaN
         13   -1    0    0    0    0  0.00000000000E+00  0.00000000000E+00  0.74505805969E-08  0.10566000000E+00  0.10566000000E+00 0.  1.
     999900   -1    0    0    0    0 -0.00000000000E+00 -0.00000000000E+00 -0.74505805969E-08  0.93827000000E+00  0.93827000000E+00 0. -1.
     999902    2    1    2    0    0 -0.15680118912E-01  0.10147571702E-01 -0.19940434957E-02  0.10251466151E+01  0.10249745201E+01 0.  0.
     999903    2    3    3    0    0 -0.11680729254E+00 -0.96299429791E-02  0.66592877763E-01  0.13648356243E+00  0.21365206569E-01 0.  0.
         14    1    1    2    0    0  0.15680118912E-01 -0.10147571702E-01  0.19940434957E-02  0.18783384945E-01  0.00000000000E+00 0.  1.
     999901    1    3    3    0    0  0.10112717363E+00  0.19777514681E-01 -0.68586921259E-01  0.88866305263E+00  0.88000000000E+00 0. -1.
        -11    1    4    4    0    0 -0.11270122148E+00 -0.13250926954E-01  0.61951317614E-01  0.12928797030E+00  0.51100000000E-03 0. -1.
         11    1    4    4    0    0 -0.41060710594E-02  0.36209839747E-02  0.46415601488E-02  0.71955921302E-02  0.51100000000E-03 0.  1.
</event>
<event>
 8    1  0.1122465E+005  0.1043930E+01  0.7957747E-01            NaN
         13   -1    0    0    0    0  0.00000000000E+00  0.00000000000E+00  0.74505805969E-08  0.10566000000E+00  0.10566000000E+00 0. -1.
     999900   -1    0    0    0    0 -0.00000000000E+00 -0.00000000000E+00 -0.74505805969E-08  0.93827000000E+00  0.93827000000E+00 0. -1.
     999902    2    1    2    0    0  0.16703690978E-01 -0.12315243591E-01 -0.11662844734E-01  0.10201245287E+01  0.10198467304E+01 0.  0.
     999903    2    3    3    0    0 -0.12393391420E-01 -0.51318472706E-01  0.11657371086E+00  0.12949974446E+00  0.19838648146E-01 0.  0.
         14    1    1    2    0    0 -0.16703690978E-01  0.12315243591E-01  0.11662844734E-01  0.23805471310E-01  0.00000000000E+00 0.  1.
     999901    1    3    3    0    0  0.29097082398E-01  0.39003229115E-01 -0.12823655560E+00  0.89062478423E+00  0.88000000000E+00 0. -1.
        -11    1    4    4    0    0 -0.48726021524E-02 -0.19224403122E-01  0.23469362089E-01  0.30730961667E-01  0.51100000000E-03 0.  1.
         11    1    4    4    0    0 -0.75207892679E-02 -0.32094069585E-01  0.93104348774E-01  0.98768782797E-01  0.51100000000E-03 0. -1.
</event>
<event>
 8    1  0.1122465E+005  0.1043930E+01  0.7957747E-01            NaN
         13   -1    0    0    0    0  0.00000000000E+00  0.00000000000E+00  0.74505805969E-08  0.10566000000E+00  0.10566000000E+00 0. -1.
     999900   -1    0    0    0    0 -0.00000000000E+00 -0.00000000000E+00 -0.74505805969E-08  0.93827000000E+00  0.93827000000E+00 0. -1.
     999902    2    1    2    0    0 -0.76984811668E-02 -0.22132845982E-01  0.84512025525E-02  0.10190191127E+01  0.10187145820E+01 0.  0.
     999903    2    3    3    0    0  0.44537597173E-01 -0.34874105138E-01  0.11645688127E+00  0.13078706291E+00  0.18527003526E-01 0.  0.
         14    1    1    2    0    0  0.76984811668E-02  0.22132845982E-01 -0.84512025525E-02  0.24910887341E-01  0.00000000000E+00 0.  1.
     999901    1    3    3    0    0 -0.52236078340E-01  0.12741259156E-01 -0.10800567871E+00  0.88823204975E+00  0.88000000000E+00 0. -1.
        -11    1    4    4    0    0  0.40371182418E-02 -0.10425690012E-01  0.13914024059E-01  0.17856498045E-01  0.51100000000E-03 0. -1.
         11    1    4    4    0    0  0.40500478931E-01 -0.24448415126E-01  0.10254285721E+00  0.11293056487E+00  0.51100000000E-03 0.  1.
</event>
<event>
 8    1  0.1122465E+005  0.1043930E+01  0.7957747E-01            NaN
         13   -1    0    0    0    0  0.00000000000E+00  0.00000000000E+00  0.74505805969E-08  0.10566000000E+00  0.10566000000E+00 0. -1.
     999900   -1    0    0    0    0 -0.00000000000E+00 -0.00000000000E+00 -0.74505805969E-08  0.93827000000E+00  0.93827000000E+00 0.  1.
     999902    2    1    2    0    0  0.29957423838E-02  0.18510173138E-01 -0.14274574381E-01  0.10203638281E+01  0.10200916514E+01 0.  0.
     999903    2    3    3    0    0  0.10024648868E+00 -0.54818566164E-01 -0.60469722517E-01  0.13077470761E+00  0.19773798847E-01 0.  0.
         14    1    1    2    0    0 -0.29957423838E-02 -0.18510173138E-01  0.14274574381E-01  0.23566171853E-01  0.00000000000E+00 0.  1.
     999901    1    3    3    0    0 -0.97250746296E-01  0.73328739302E-01  0.46195148136E-01  0.88958912053E+00  0.88000000000E+00 0. -1.
        -11    1    4    4    0    0  0.53496505903E-01 -0.25454493918E-01 -0.41748338445E-01  0.72477529541E-01  0.51100000000E-03 0.  1.
         11    1    4    4    0    0  0.46749982777E-01 -0.29364072245E-01 -0.18721384072E-01  0.58297178071E-01  0.51100000000E-03 0. -1.
</event>
<event>
 8    1  0.1122465E+005  0.1043930E+01  0.7957747E-01            NaN
         13   -1    0    0    0    0  0.00000000000E+00  0.00000000000E+00  0.74505805969E-08  0.10566000000E+00  0.10566000000E+00 0. -1.
     999900   -1    0    0    0    0 -0.00000000000E+00 -0.00000000000E+00 -0.74505805969E-08  0.93827000000E+00  0.93827000000E+00 0. -1.
     999902    2    1    2    0    0  0.92949867312E-02  0.14630968402E-01  0.11899532049E-01  0.10229047562E+01  0.10226886522E+01 0.  0.
     999903    2    3    3    0    0 -0.46795710741E-01  0.42580950139E-01 -0.11377062779E+00  0.13177044706E+00  0.20413699109E-01 0.  0.
         14    1    1    2    0    0 -0.92949867312E-02 -0.14630968402E-01 -0.11899532049E-01  0.21025243820E-01  0.00000000000E+00 0. -1.
     999901    1    3    3    0    0  0.56090697472E-01 -0.27949981737E-01  0.12567015984E+00  0.89113430912E+00  0.88000000000E+00 0.  1.
        -11    1    4    4    0    0 -0.22754089793E-01  0.27607759732E-01 -0.80371120760E-01  0.87975651024E-01  0.51100000000E-03 0.  1.
         11    1    4    4    0    0 -0.24041620948E-01  0.14973190407E-01 -0.33399507030E-01  0.43794796034E-01  0.51100000000E-03 0. -1.
</event>
<event>
 8    1  0.1122465E+005  0.1043930E+01  0.7957747E-01            NaN
         13   -1    0    0    0    0  0.00000000000E+00  0.00000000000E+00  0.74505805969E-08  0.10566000000E+00  0.10566000000E+00 0. -1.
     999900   -1    0    0    0    0 -0.00000000000E+00 -0.00000000000E+00 -0.74505805969E-08  0.93827000000E+00  0.93827000000E+00 0. -1.
     999902    2    1    2    0    0 -0.31489940343E-01  0.12508419880E-01  0.98741860941E-02  0.10086372747E+01  0.10080196305E+01 0.  0.
     999903    2    3    3    0    0 -0.12755542894E-01 -0.74408030914E-01  0.91762462123E-01  0.12037428612E+00  0.19244749019E-01 0.  0.
         14    1    1    2    0    0  0.31489940343E-01 -0.12508419880E-01 -0.98741860941E-02  0.35292725337E-01  0.00000000000E+00 0.  1.
     999901    1    3    3    0    0 -0.18734397449E-01  0.86916450794E-01 -0.81888276028E-01  0.88826298854E+00  0.88000000000E+00 0. -1.
        -11    1    4    4    0    0 -0.54023790587E-03 -0.12288846923E-01  0.57878611838E-02  0.13603972720E-01  0.51100000000E-03 0.  1.
         11    1    4    4    0    0 -0.12215304988E-01 -0.62119183991E-01  0.85974600939E-01  0.10677031340E+00  0.51100000000E-03 0. -1.
</event>
<event>
 8    1  0.1122465E+005  0.1043930E+01  0.7957747E-01            NaN
         13   -1    0    0    0    0  0.00000000000E+00  0.00000000000E+00  0.74505805969E-08  0.10566000000E+00  0.10566000000E+00 0. -1.
     999900   -1    0    0    0    0 -0.00000000000E+00 -0.00000000000E+00 -0.74505805969E-08  0.93827000000E+00  0.93827000000E+00 0. -1.
     999902    2    1    2    0    0 -0.23152991042E-01  0.10526899586E-01  0.40332909268E-03  0.10184930331E+01  0.10181753382E+01 0.  0.
     999903    2    3    3    0    0 -0.33250824627E-01  0.98128076962E-01  0.77067871349E-01  0.13076932355E+00  0.20649996609E-01 0.  0.
         14    1    1    2    0    0  0.23152991042E-01 -0.10526899586E-01 -0.40332909268E-03  0.25436966868E-01  0.00000000000E+00 0. -1.
     999901    1    3    3    0    0  0.10097833586E-01 -0.87601177376E-01 -0.76664542256E-01  0.88772370959E+00  0.88000000000E+00 0. -1.
        -11    1    4    4    0    0 -0.19305322646E-01  0.54282004724E-01  0.30042688277E-01  0.64977348047E-01  0.51100000000E-03 0.  1.
         11    1    4    4    0    0 -0.13945501982E-01  0.43846072238E-01  0.47025183072E-01  0.65791975500E-01  0.51100000000E-03 0. -1.
</event>
<event>
 8    1  0.1122465E+005  0.1043930E+01  0.7957747E-01            NaN
         13   -1    0    0    0    0  0.00000000000E+00  0.00000000000E+00  0.74505805969E-08  0.10566000000E+00  0.10566000000E+00 0. -1.
     999900   -1    0    0    0    0 -0.00000000000E+00 -0.00000000000E+00 -0.74505805969E-08  0.93827000000E+00  0.93827000000E+00 0.  1.
     999902    2    1    2    0    0  0.16249295668E-01 -0.92578551840E-02 -0.10338460776E-01  0.10225610678E+01  0.10223377652E+01 0.  0.
     999903    2    3    3    0    0  0.64820091489E-02 -0.11284820403E+00 -0.67793687065E-01  0.13457037906E+00  0.27137968202E-01 0.  0.
         14    1    1    2    0    0 -0.16249295668E-01  0.92578551840E-02  0.10338460776E-01  0.21368932204E-01  0.00000000000E+00 0.  1.
     999901    1    3    3    0    0  0.97672865190E-02  0.10359034885E+00  0.57455226289E-01  0.88799068874E+00  0.88000000000E+00 0. -1.
        -11    1    4    4    0    0 -0.49848950109E-02 -0.91204617132E-01 -0.48727565829E-01  0.10352665433E+00  0.51100000000E-03 0.  1.
         11    1    4    4    0    0  0.11466904160E-01 -0.21643586899E-01 -0.19066121235E-01  0.31043724725E-01  0.51100000000E-03 0. -1.
</event>
<event>
 8    1  0.1122465E+005  0.1043930E+01  0.7957747E-01            NaN
         13   -1    0    0    0    0  0.00000000000E+00  0.00000000000E+00  0.74505805969E-08  0.10566000000E+00  0.10566000000E+00 0. -1.
     999900   -1    0    0    0    0 -0.00000000000E+00 -0.00000000000E+00 -0.74505805969E-08  0.93827000000E+00  0.93827000000E+00 0.  1.
     999902    2    1    2    0    0  0.23285257866E-02 -0.18725145347E-01 -0.15556828144E-01  0.10194745711E+01  0.10191812072E+01 0.  0.
     999903    2    3    3    0    0  0.11019153504E+00  0.63717004848E-01 -0.16248810011E-02  0.12895492727E+00  0.20608297570E-01 0.  0.
         14    1    1    2    0    0 -0.23285257866E-02  0.18725145347E-01  0.15556828144E-01  0.24455428897E-01  0.00000000000E+00 0. -1.
     999901    1    3    3    0    0 -0.10786300925E+00 -0.82442150195E-01 -0.13931947143E-01  0.89051964383E+00  0.88000000000E+00 0. -1.
        -11    1    4    4    0    0  0.10300177237E+00  0.64528608533E-01 -0.29454421178E-02  0.12158224862E+00  0.51100000000E-03 0. -1.
         11    1    4    4    0    0  0.71897626729E-02 -0.81160368452E-03  0.13205611167E-02  0.73726786514E-02  0.51100000000E-03 0.  1.
</event>
<event>
 8    1  0.1122465E+005  0.1043930E+01  0.7957747E-01            NaN
         13   -1    0    0    0    0  0.00000000000E+00  0.00000000000E+00  0.74505805969E-08  0.10566000000E+00  0.10566000000E+00 0. -1.
     999900   -1    0    0    0    0 -0.00000000000E+00 -0.00000000000E+00 -0.74505805969E-08  0.93827000000E+00  0.93827000000E+00 0. -1.
     999902    2    1    2    0    0 -0.66110235759E-02  0.18343087752E-01 -0.13299379452E-01  0.10203281358E+01  0.10200551243E+01 0.  0.
     999903    2    3    3    0    0  0.93277862497E-01  0.90014550206E-01 -0.13056181730E-01  0.13178176826E+00  0.19813926476E-01 0.  0.
         14    1    1    2    0    0  0.66110235759E-02 -0.18343087752E-01  0.13299379452E-01  0.23601864223E-01  0.00000000000E+00 0.  1.
     999901    1    3    3    0    0 -0.99888886073E-01 -0.71671462454E-01 -0.24319772205E-03  0.88854636752E+00  0.88000000000E+00 0.  1.
        -11    1    4    4    0    0  0.15434556101E-01  0.21940220247E-01  0.34850856177E-02  0.27055604397E-01  0.51100000000E-03 0.  1.
         11    1    4    4    0    0  0.77843306396E-01  0.68074329958E-01 -0.16541267348E-01  0.10472616386E+00  0.51100000000E-03 0. -1.
</event>
<event>
 8    1  0.1122465E+005  0.1043930E+01  0.7957747E-01            NaN
         13   -1    0    0    0    0  0.00000000000E+00  0.00000000000E+00  0.74505805969E-08  0.10566000000E+00  0.10566000000E+00 0.  1.
     999900   -1    0    0    0    0 -0.00000000000E+00 -0.00000000000E+00 -0.74505805969E-08  0.93827000000E+00  0.93827000000E+00 0. -1.
     999902    2    1    2    0    0  0.22248888062E-01  0.79049445516E-02  0.80732651445E-03  0.10203047393E+01  0.10200311799E+01 0.  0.
     999903    2    3    3    0    0 -0.27046441371E-01  0.12008649341E+00  0.40035385435E-01  0.13094903427E+00  0.19812662635E-01 0.  0.
         14    1    1    2    0    0 -0.22248888062E-01 -0.79049445516E-02 -0.80732651445E-03  0.23625260728E-01  0.00000000000E+00 0.  1.
     999901    1    3    3    0    0  0.49295329433E-01 -0.11218154885E+00 -0.39228058920E-01  0.88935570500E+00  0.88000000000E+00 0.  1.
        -11    1    4    4    0    0 -0.62487107186E-02  0.61825122380E-01  0.13271647982E-01  0.63543606319E-01  0.51100000000E-03 0. -1.
         11    1    4    4    0    0 -0.20797730653E-01  0.58261371027E-01  0.26763737453E-01  0.67405427954E-01  0.51100000000E-03 0.  1.
</event>
<event>
 8    1  0.1122465E+005  0.1043930E+01  0.7957747E-01            NaN
         13   -1    0    0    0    0  0.00000000000E+00  0.00000000000E+00  0.74505805969E-08  0.10566000000E+00  0.10566000000E+00 0. -1.
     999900   -1    0    0    0    0 -0.00000000000E+00 -0.00000000000E+00 -0.74505805969E-08  0.93827000000E+00  0.93827000000E+00 0. -1.
     999902    2    1    2    0    0  0.78626500682E-02  0.20245971785E-01  0.96086534141E-02  0.10201803293E+01  0.10199038471E+01 0.  0.
     999903    2    3    3    0    0  0.48077683061E-01  0.12016078696E+00 -0.22653273961E-01  0.13302698788E+00  0.20806978418E-01 0.  0.
         14    1    1    2    0    0 -0.78626500682E-02 -0.20245971785E-01 -0.96086534141E-02  0.23749670736E-01  0.00000000000E+00 0.  1.
     999901    1    3    3    0    0 -0.40215032993E-01 -0.99914815179E-01  0.32261927375E-01  0.88715334138E+00  0.88000000000E+00 0.  1.
        -11    1    4    4    0    0  0.33696378189E-01  0.79972589975E-01 -0.24888548677E-01  0.90281570802E-01  0.51100000000E-03 0.  1.
         11    1    4    4    0    0  0.14381304873E-01  0.40188196989E-01  0.22352747154E-02  0.42745417078E-01  0.51100000000E-03 0. -1.
</event>
<event>
 8    1  0.1122465E+005  0.1043930E+01  0.7957747E-01            NaN
         13   -1    0    0    0    0  0.00000000000E+00  0.00000000000E+00  0.74505805969E-08  0.10566000000E+00  0.10566000000E+00 0. -1.
     999900   -1    0    0    0    0 -0.00000000000E+00 -0.00000000000E+00 -0.74505805969E-08  0.93827000000E+00  0.93827000000E+00 0. -1.
     999902    2    1    2    0    0 -0.10824162446E-01 -0.60249552818E-02  0.20189282323E-01  0.10202430901E+01  0.10199680844E+01 0.  0.
     999903    2    3    3    0    0 -0.21458725476E-01  0.38084195989E-01  0.12417213528E+00  0.13296007729E+00  0.18675654960E-01 0.  0.
         14    1    1    2    0    0  0.10824162446E-01  0.60249552818E-02 -0.20189282323E-01  0.23686909877E-01  0.00000000000E+00 0.  1.
     999901    1    3    3    0    0  0.10634563031E-01 -0.44109151271E-01 -0.10398285296E+00  0.88728301284E+00  0.88000000000E+00 0. -1.
        -11    1    4    4    0    0 -0.85638127858E-02  0.86702817042E-02  0.59657835789E-01  0.60891963068E-01  0.51100000000E-03 0. -1.
         11    1    4    4    0    0 -0.12894912691E-01  0.29413914285E-01  0.64514299495E-01  0.72068114219E-01  0.51100000000E-03 0.  1.
</event>
<event>
 8    1  0.1122465E+005  0.1043930E+01  0.7957747E-01            NaN
         13   -1    0    0    0    0  0.00000000000E+00  0.00000000000E+00  0.74505805969E-08  0.10566000000E+00  0.10566000000E+00 0.  1.
     999900   -1    0    0    0    0 -0.00000000000E+00 -0.00000000000E+00 -0.74505805969E-08  0.93827000000E+00  0.93827000000E+00 0.  1.
     999902    2    1    2    0    0 -0.79490565908E-03  0.22474013666E-01  0.66093456261E-02  0.10204907889E+01  0.10202215709E+01 0.  0.
     999903    2    3    3    0    0  0.65101751376E-01  0.61693593734E-01  0.95721882884E-01  0.13267234514E+00  0.19872965585E-01 0.  0.
         14    1    1    2    0    0  0.79490565908E-03 -0.22474013666E-01 -0.66093456261E-02  0.23439211055E-01  0.00000000000E+00 0.  1.
     999901    1    3    3    0    0 -0.65896657035E-01 -0.39219580068E-01 -0.89112537258E-01  0.88781844381E+00  0.88000000000E+00 0.  1.
        -11    1    4    4    0    0  0.38133843951E-01  0.40199343410E-01  0.71814223575E-01  0.90706786371E-01  0.51100000000E-03 0. -1.
         11    1    4    4    0    0  0.26967907425E-01  0.21494250325E-01  0.23907659309E-01  0.41965558766E-01  0.51100000000E-03 0.  1.
</event>
<event>
 8    1  0.1122465E+005  0.1043930E+01  0.7957747E-01            NaN
         13   -1    0    0    0    0  0.00000000000E+00  0.00000000000E+00  0.74505805969E-08  0.10566000000E+00  0.10566000000E+00 0.  1.
     999900   -1    0    0    0    0 -0.00000000000E+00 -0.00000000000E+00 -0.74505805969E-08  0.93827000000E+00  0.93827000000E+00 0.  1.
     999902    2    1    2    0    0 -0.61129855890E-02  0.15962716650E-01  0.16886191040E-01  0.10199025082E+01  0.10196194417E+01 0.  0.
     999903    2    3    3    0    0  0.58189829863E-01 -0.88801887341E-01  0.71396706567E-01  0.12968799996E+00  0.21205096819E-01 0.  0.
         14    1    1    2    0    0  0.61129855890E-02 -0.15962716650E-01 -0.16886191040E-01  0.24027491827E-01  0.00000000000E+00 0. -1.
     999901    1    3    3    0    0 -0.64302815452E-01  0.10476460399E+00 -0.54510515527E-01  0.89021450821E+00  0.88000000000E+00 0. -1.
        -11    1    4    4    0    0  0.55500167158E-01 -0.71791452495E-01  0.56378565343E-01  0.10683204087E+00  0.51100000000E-03 0. -1.
         11    1    4    4    0    0  0.26896627044E-02 -0.17010434846E-01  0.15018141224E-01  0.22855959091E-01  0.51100000000E-03 0.  1.
</event>
<event>
 8    1  0.1122465E+005  0.1043930E+01  0.7957747E-01            NaN
         13   -1    0    0    0    0  0.00000000000E+00  0.00000000000E+00  0.74505805969E-08  0.10566000000E+00  0.10566000000E+00 0. -1.
     999900   -1    0    0    0    0 -0.00000000000E+00 -0.00000000000E+00 -0.74505805969E-08  0.93827000000E+00  0.93827000000E+00 0.  1.
     999902    2    1    2    0    0  0.11267788347E-01 -0.97791097706E-02  0.18428612897E-01  0.10202190781E+01  0.10199435080E+01 0.  0.
     999903    2    3    3    0    0 -0.52865645916E-01 -0.11683583382E+00  0.20718778840E-01  0.13141117740E+00  0.19855507249E-01 0.  0.
         14    1    1    2    0    0 -0.11267788347E-01  0.97791097706E-02 -0.18428612897E-01  0.23710921859E-01  0.00000000000E+00 0.  1.
     999901    1    3    3    0    0  0.64133434263E-01  0.10705672405E+00 -0.22901659439E-02  0.88880790074E+00  0.88000000000E+00 0.  1.
        -11    1    4    4    0    0 -0.31066001221E-01 -0.74948517490E-01  0.37100044767E-02  0.81218236622E-01  0.51100000000E-03 0. -1.
         11    1    4    4    0    0 -0.21799644695E-01 -0.41887316327E-01  0.17008774364E-01  0.50192940781E-01  0.51100000000E-03 0.  1.
</event>
<event>
 8    1  0.1122465E+005  0.1043930E+01  0.7957747E-01            NaN
         13   -1    0    0    0    0  0.00000000000E+00  0.00000000000E+00  0.74505805969E-08  0.10566000000E+00  0.10566000000E+00 0. -1.
     999900   -1    0    0    0    0 -0.00000000000E+00 -0.00000000000E+00 -0.74505805969E-08  0.93827000000E+00  0.93827000000E+00 0.  1.
     999902    2    1    2    0    0 -0.54108176239E-02 -0.55021725254E-02  0.22565842966E-01  0.10200811401E+01  0.10198023163E+01 0.  0.
     999903    2    3    3    0    0 -0.28174676619E-01  0.85931667631E-01 -0.88331538967E-01  0.12813014945E+00  0.20900012366E-01 0.  0.
         14    1    1    2    0    0  0.54108176239E-02  0.55021725254E-02 -0.22565842966E-01  0.23848859902E-01  0.00000000000E+00 0.  1.
     999901    1    3    3    0    0  0.22763858995E-01 -0.91433840156E-01  0.11089738193E+00  0.89195099065E+00  0.88000000000E+00 0. -1.
        -11    1    4    4    0    0 -0.30246849439E-01  0.67474281433E-01 -0.66362087797E-01  0.99357125430E-01  0.51100000000E-03 0. -1.
         11    1    4    4    0    0  0.20721728198E-02  0.18457386198E-01 -0.21969451170E-01  0.28773024018E-01  0.51100000000E-03 0.  1.
</event>
<event>
 8    1  0.1122465E+005  0.1043930E+01  0.7957747E-01            NaN
         13   -1    0    0    0    0  0.00000000000E+00  0.00000000000E+00  0.74505805969E-08  0.10566000000E+00  0.10566000000E+00 0. -1.
     999900   -1    0    0    0    0 -0.00000000000E+00 -0.00000000000E+00 -0.74505805969E-08  0.93827000000E+00  0.93827000000E+00 0.  1.
     999902    2    1    2    0    0 -0.93482147877E-02 -0.17790389349E-02  0.22374365998E-01  0.10196160873E+01  0.10193261495E+01 0.  0.
     999903    2    3    3    0    0 -0.37522392245E-01  0.10772695501E+00 -0.56383376815E-01  0.12889271323E+00  0.20523634819E-01 0.  0.
         14    1    1    2    0    0  0.93482147877E-02  0.17790389349E-02 -0.22374365998E-01  0.24313912747E-01  0.00000000000E+00 0.  1.
     999901    1    3    3    0    0  0.28174177458E-01 -0.10950599394E+00  0.78757742813E-01  0.89072337403E+00  0.88000000000E+00 0. -1.
        -11    1    4    4    0    0 -0.11574863984E-01  0.61494343073E-01 -0.35212943031E-01  0.71803510946E-01  0.51100000000E-03 0. -1.
         11    1    4    4    0    0 -0.25947528262E-01  0.46232611937E-01 -0.21170433784E-01  0.57089202280E-01  0.51100000000E-03 0.  1.
</event>
<event>
 8    1  0.1122465E+005  0.1043930E+01  0.7957747E-01            NaN
         13   -1    0    0    0    0  0.00000000000E+00  0.00000000000E+00  0.74505805969E-08  0.10566000000E+00  0.10566000000E+00 0.  1.
     999900   -1    0    0    0    0 -0.00000000000E+00 -0.00000000000E+00 -0.74505805969E-08  0.93827000000E+00  0.93827000000E+00 0. -1.
     999902    2    1    2    0    0 -0.13209344950E-01  0.18259306695E-01  0.72074156654E-02  0.10202691480E+01  0.10199947542E+01 0.  0.
     999903    2    3    3    0    0  0.64672335030E-01 -0.49835015215E-02  0.11131081166E+00  0.13041337250E+00  0.20253511510E-01 0.  0.
         14    1    1    2    0    0  0.13209344950E-01 -0.18259306695E-01 -0.72074156654E-02  0.23660851962E-01  0.00000000000E+00 0. -1.
     999901    1    3    3    0    0 -0.77881679980E-01  0.23242808216E-01 -0.10410339599E+00  0.88985577554E+00  0.88000000000E+00 0. -1.
        -11    1    4    4    0    0  0.34217760903E-01 -0.62232715505E-02  0.40922666621E-01  0.53707634787E-01  0.51100000000E-03 0.  1.
         11    1    4    4    0    0  0.30454574127E-01  0.12397700290E-02  0.70388145035E-01  0.76705737708E-01  0.51100000000E-03 0. -1.
</event>
<event>
 8    1  0.1122465E+005  0.1043930E+01  0.7957747E-01            NaN
         13   -1    0    0    0    0  0.00000000000E+00  0.00000000000E+00  0.74505805969E-08  0.10566000000E+00  0.10566000000E+00 0. -1.
     999900   -1    0    0    0    0 -0.00000000000E+00 -0.00000000000E+00 -0.74505805969E-08  0.93827000000E+00  0.93827000000E+00 0.  1.
     999902    2    1    2    0    0  0.36494027801E-02  0.20550121998E-01 -0.81043628497E-02  0.10215401284E+01  0.10212947310E+01 0.  0.
     999903    2    3    3    0    0  0.43587749764E-01  0.12390713133E-01 -0.12363718336E+00  0.13305294211E+00  0.19065953780E-01 0.  0.
         14    1    1    2    0    0 -0.36494027801E-02 -0.20550121998E-01  0.81043628497E-02  0.22389871638E-01  0.00000000000E+00 0. -1.
     999901    1    3    3    0    0 -0.39938346983E-01  0.81594088643E-02  0.11553282051E+00  0.88848718625E+00  0.88000000000E+00 0. -1.
        -11    1    4    4    0    0  0.21962461792E-01 -0.44535254429E-03 -0.39076827239E-01  0.44830877918E-01  0.51100000000E-03 0. -1.
         11    1    4    4    0    0  0.21625287971E-01  0.12836065678E-01 -0.84560356124E-01  0.88222064195E-01  0.51100000000E-03 0.  1.
</event>
<event>
 8    1  0.1122465E+005  0.1043930E+01  0.7957747E-01            NaN
         13   -1    0    0    0    0  0.00000000000E+00  0.00000000000E+00  0.74505805969E-08  0.10566000000E+00  0.10566000000E+00 0.  1.
     999900   -1    0    0    0    0 -0.00000000000E+00 -0.00000000000E+00 -0.74505805969E-08  0.93827000000E+00  0.93827000000E+00 0.  1.
     999902    2    1    2    0    0 -0.54861733563E-02 -0.23067119530E-01  0.32651710973E-02  0.10199956848E+01  0.10197148354E+01 0.  0.
     999903    2    3    3    0    0 -0.44912534452E-01 -0.98780276087E-01 -0.72315840704E-01  0.13264039555E+00  0.24273751673E-01 0.  0.
         14    1    1    2    0    0  0.54861733563E-02  0.23067119530E-01 -0.32651710973E-02  0.23934315194E-01  0.00000000000E+00 0.  1.
     999901    1    3    3    0    0  0.39426361095E-01  0.75713156557E-01  0.75581011802E-01  0.88735528926E+00  0.88000000000E+00 0. -1.
        -11    1    4    4    0    0 -0.26806590188E-01 -0.44256991430E-01 -0.46824690852E-01  0.69786011222E-01  0.51100000000E-03 0. -1.
         11    1    4    4    0    0 -0.18105944264E-01 -0.54523284657E-01 -0.25491149853E-01  0.62854384328E-01  0.51100000000E-03 0.  1.
</event>
<event>
 8    1  0.1122465E+005  0.1043930E+01  0.7957747E-01            NaN
         13   -1    0    0    0    0  0.00000000000E+00  0.00000000000E+00  0.74505805969E-08  0.10566000000E+00  0.10566000000E+00 0. -1.
     999900   -1    0    0    0    0 -0.00000000000E+00 -0.00000000000E+00 -0.74505805969E-08  0.93827000000E+00  0.93827000000E+00 0.  1.
     999902    2    1    2    0    0 -0.13267026911E-01 -0.16314643455E-01  0.10990530453E-01  0.10202029405E+01  0.10199269907E+01 0.  0.
     999903    2    3    3    0    0 -0.16299602265E-01 -0.11944296790E+00 -0.50379761408E-01  0.13205263757E+00  0.19169744812E-01 0.  0.
         14    1    1    2    0    0  0.13267026911E-01  0.16314643455E-01 -0.10990530453E-01  0.23727059527E-01  0.00000000000E+00 0.  1.
     999901    1    3    3    0    0  0.30325753535E-02  0.10312832444E+00  0.61370291861E-01  0.88815030290E+00  0.88000000000E+00 0. -1.
        -11    1    4    4    0    0 -0.14889599405E-02 -0.10172417144E-01  0.11091743548E-02  0.10353089443E-01  0.51100000000E-03 0. -1.
         11    1    4    4    0    0 -0.14810642324E-01 -0.10927055076E+00 -0.51488935763E-01  0.12169954813E+00  0.51100000000E-03 0.  1.
</event>
<event>
 8    1  0.1122465E+005  0.1043930E+01  0.7957747E-01            NaN
         13   -1    0    0    0    0  0.00000000000E+00  0.00000000000E+00  0.74505805969E-08  0.10566000000E+00  0.10566000000E+00 0.  1.
     999900   -1    0    0    0    0 -0.00000000000E+00 -0.00000000000E+00 -0.74505805969E-08  0.93827000000E+00  0.93827000000E+00 0. -1.
     999902    2    1    2    0    0  0.58984829045E-02  0.13132769679E-01  0.21026828353E-01  0.10184468830E+01  0.10181280196E+01 0.  0.
     999903    2    3    3    0    0  0.23142949313E-02 -0.60431704787E-01  0.11390245037E+00  0.13049955381E+00  0.19975445917E-01 0.  0.
         14    1    1    2    0    0 -0.58984829045E-02 -0.13132769679E-01 -0.21026828353E-01  0.25483116972E-01  0.00000000000E+00 0. -1.
     999901    1    3    3    0    0  0.35841879732E-02  0.73564474466E-01 -0.92875622014E-01  0.88794732922E+00  0.88000000000E+00 0. -1.
        -11    1    4    4    0    0 -0.41133407370E-03 -0.27038557696E-01  0.71572693699E-01  0.76512511410E-01  0.51100000000E-03 0.  1.
         11    1    4    4    0    0  0.27256290050E-02 -0.33393147091E-01  0.42329756669E-01  0.53987042397E-01  0.51100000000E-03 0. -1.
</event>
<event>
 8    1  0.1122465E+005  0.1043930E+01  0.7957747E-01            NaN
         13   -1    0    0    0    0  0.00000000000E+00  0.00000000000E+00  0.74505805969E-08  0.10566000000E+00  0.10566000000E+00 0.  1.
     999900   -1    0    0    0    0 -0.00000000000E+00 -0.00000000000E+00 -0.74505805969E-08  0.93827000000E+00  0.93827000000E+00 0. -1.
     999902    2    1    2    0    0 -0.10265529321E-01  0.21647949735E-01  0.20414753448E-01  0.10124533900E+01  0.10119639766E+01 0.  0.
     999903    2    3    3    0    0  0.16975787808E-03 -0.89852201278E-01  0.81979559012E-01  0.12322259644E+00  0.19741157145E-01 0.  0.
         14    1    1    2    0    0  0.10265529321E-01 -0.21647949735E-01 -0.20414753448E-01  0.31476610020E-01  0.00000000000E+00 0.  1.
     999901    1    3    3    0    0 -0.10435287199E-01  0.11150015101E+00 -0.61564805564E-01  0.88923079354E+00  0.88000000000E+00 0.  1.
        -11    1    4    4    0    0 -0.74094737149E-03 -0.34722036002E-01  0.19279199339E-01  0.39725526243E-01  0.51100000000E-03 0.  1.
         11    1    4    4    0    0  0.91070524957E-03 -0.55130165277E-01  0.62700359673E-01  0.83497070198E-01  0.51100000000E-03 0. -1.
</event>
<event>
 8    1  0.1122465E+005  0.1043930E+01  0.7957747E-01            NaN
         13   -1    0    0    0    0  0.00000000000E+00  0.00000000000E+00  0.74505805969E-08  0.10566000000E+00  0.10566000000E+00 0.  1.
     999900   -1    0    0    0    0 -0.00000000000E+00 -0.00000000000E+00 -0.74505805969E-08  0.93827000000E+00  0.93827000000E+00 0. -1.
     999902    2    1    2    0    0  0.68868806121E-02 -0.11252173665E-01 -0.19743307513E-01  0.10201847115E+01  0.10199083325E+01 0.  0.
     999903    2    3    3    0    0  0.75786958531E-01 -0.10492786854E+00 -0.20732561984E-01  0.13253425368E+00  0.19544016832E-01 0.  0.
         14    1    1    2    0    0 -0.68868806121E-02  0.11252173665E-01  0.19743307513E-01  0.23745288550E-01  0.00000000000E+00 0. -1.
     999901    1    3    3    0    0 -0.68900077918E-01  0.93675694873E-01  0.98925447108E-03  0.88765045777E+00  0.88000000000E+00 0.  1.
        -11    1    4    4    0    0  0.62162114266E-01 -0.95874473622E-01 -0.20936871093E-01  0.11616650479E+00  0.51100000000E-03 0. -1.
         11    1    4    4    0    0  0.13624844265E-01 -0.90533949162E-02  0.20430910909E-03  0.16367748897E-01  0.51100000000E-03 0.  1.
</event>
<event>
 8    1  0.1122465E+005  0.1043930E+01  0.7957747E-01            NaN
         13   -1    0    0    0    0  0.00000000000E+00  0.00000000000E+00  0.74505805969E-08  0.10566000000E+00  0.10566000000E+00 0. -1.
     999900   -1    0    0    0    0 -0.00000000000E+00 -0.00000000000E+00 -0.74505805969E-08  0.93827000000E+00  0.93827000000E+00 0. -1.
     999902    2    1    2    0    0 -0.22943989292E-01 -0.47801991209E-02  0.37455741561E-02  0.10201959259E+01  0.10199198110E+01 0.  0.
     999903    2    3    3    0    0  0.93349052592E-01  0.84796739229E-01 -0.77556520351E-02  0.12796256085E+00  0.20241893134E-01 0.  0.
         14    1    1    2    0    0  0.22943989292E-01  0.47801991209E-02 -0.37455741561E-02  0.23734074114E-01  0.00000000000E+00 0. -1.
     999901    1    3    3    0    0 -0.11629304188E+00 -0.89576938350E-01  0.11501226191E-01  0.89223336503E+00  0.88000000000E+00 0.  1.
        -11    1    4    4    0    0  0.46052183127E-01  0.55356492133E-01 -0.48841170822E-02  0.72175207051E-01  0.51100000000E-03 0. -1.
         11    1    4    4    0    0  0.47296869465E-01  0.29440247096E-01 -0.28715349530E-02  0.55787353802E-01  0.51100000000E-03 0.  1.
</event>
<event>
 8    1  0.1122465E+005  0.1043930E+01  0.7957747E-01            NaN
         13   -1    0    0    0    0  0.00000000000E+00  0.00000000000E+00  0.74505805969E-08  0.10566000000E+00  0.10566000000E+00 0.  1.
     999900   -1    0    0    0    0 -0.00000000000E+00 -0.00000000000E+00 -0.74505805969E-08  0.93827000000E+00  0.93827000000E+00 0. -1.
     999902    2    1    2    0    0 -0.20437805494E-01 -0.17083820738E-01 -0.41068807456E-02  0.10169776848E+01  0.10166204720E+01 0.  0.
     999903    2    3    3    0    0  0.88706210143E-01 -0.41583660261E-01  0.76876694817E-01  0.12620779433E+00  0.20503380804E-01 0.  0.
         14    1    1    2    0    0  0.20437805494E-01  0.17083820738E-01  0.41068807456E-02  0.26952315186E-01  0.00000000000E+00 0. -1.
     999901    1    3    3    0    0 -0.10914401564E+00  0.24499839522E-01 -0.80983575562E-01  0.89076989049E+00  0.88000000000E+00 0. -1.
        -11    1    4    4    0    0  0.36267438025E-01 -0.80697787646E-02  0.21670757868E-01  0.43015476956E-01  0.51100000000E-03 0.  1.
         11    1    4    4    0    0  0.52438772118E-01 -0.33513881496E-01  0.55205936949E-01  0.83192317371E-01  0.51100000000E-03 0. -1.
</event>
<event>
 8    1  0.1122465E+005  0.1043930E+01  0.7957747E-01            NaN
         13   -1    0    0    0    0  0.00000000000E+00  0.00000000000E+00  0.74505805969E-08  0.10566000000E+00  0.10566000000E+00 0. -1.
     999900   -1    0    0    0    0 -0.00000000000E+00 -0.00000000000E+00 -0.74505805969E-08  0.93827000000E+00  0.93827000000E+00 0.  1.
     999902    2    1    2    0    0 -0.93896358012E-02 -0.18092168509E-01  0.93230625387E-02  0.10215154664E+01  0.10212695221E+01 0.  0.
     999903    2    3    3    0    0  0.10773534130E+00  0.40846500496E-01 -0.55518001157E-01  0.12944125955E+00  0.19936169480E-01 0.  0.
         14    1    1    2    0    0  0.93896358012E-02  0.18092168509E-01 -0.93230625387E-02  0.22414533609E-01  0.00000000000E+00 0.  1.
     999901    1    3    3    0    0 -0.11712497710E+00 -0.58938669005E-01  0.64841063695E-01  0.89207420684E+00  0.88000000000E+00 0. -1.
        -11    1    4    4    0    0  0.29773111153E-01  0.68571632748E-02 -0.23558319896E-01  0.38583861823E-01  0.51100000000E-03 0.  1.
         11    1    4    4    0    0  0.77962230150E-01  0.33989337222E-01 -0.31959681261E-01  0.90857397729E-01  0.51100000000E-03 0. -1.
</event>
<event>
 8    1  0.1122465E+005  0.1043930E+01  0.7957747E-01            NaN
         13   -1    0    0    0    0  0.00000000000E+00  0.00000000000E+00  0.74505805969E-08  0.10566000000E+00  0.10566000000E+00 0.  1.
     999900   -1    0    0    0    0 -0.00000000000E+00 -0.00000000000E+00 -0.74505805969E-08  0.93827000000E+00  0.93827000000E+00 0. -1.
     999902    2    1    2    0    0 -0.82132594388E-03  0.78426904982E-02 -0.22233939342E-01  0.10203391028E+01  0.10200663480E+01 0.  0.
     999903    2    3    3    0    0  0.10671560039E+00  0.59171431055E-01  0.40569498215E-01  0.13009020398E+00  0.19700237722E-01 0.  0.
         14    1    1    2    0    0  0.82132594388E-03 -0.78426904982E-02  0.22233939342E-01  0.23590897169E-01  0.00000000000E+00 0.  1.
     999901    1    3    3    0    0 -0.10753692634E+00 -0.51328740557E-01 -0.62803437557E-01  0.89024889885E+00  0.88000000000E+00 0. -1.
        -11    1    4    4    0    0  0.39616188868E-01  0.11395161737E-01  0.14070081647E-01  0.43560537760E-01  0.51100000000E-03 0. -1.
         11    1    4    4    0    0  0.67099411526E-01  0.47776269318E-01  0.26499416568E-01  0.86529666222E-01  0.51100000000E-03 0.  1.
</event>
<event>
 8    1  0.1122465E+005  0.1043930E+01  0.7957747E-01            NaN
         13   -1    0    0    0    0  0.00000000000E+00  0.00000000000E+00  0.74505805969E-08  0.10566000000E+00  0.10566000000E+00 0. -1.
     999900   -1    0    0    0    0 -0.00000000000E+00 -0.00000000000E+00 -0.74505805969E-08  0.93827000000E+00  0.93827000000E+00 0. -1.
     999902    2    1    2    0    0  0.24504000592E-01  0.63935477272E-02 -0.10673571568E-01  0.10164482128E+01  0.10160766313E+01 0.  0.
     999903    2    3    3    0    0 -0.96043619787E-01  0.62913934971E-01  0.44525775235E-01  0.12472333884E+00  0.19769331707E-01 0.  0.
         14    1    1    2    0    0 -0.24504000592E-01 -0.63935477272E-02  0.10673571568E-01  0.27481787197E-01  0.00000000000E+00 0. -1.
     999901    1    3    3    0    0  0.12054762038E+00 -0.56520387244E-01 -0.55199346803E-01  0.89172487396E+00  0.88000000000E+00 0.  1.
        -11    1    4    4    0    0 -0.13146916006E-01  0.17594676345E-01  0.99493694006E-02  0.24117734318E-01  0.51100000000E-03 0.  1.
         11    1    4    4    0    0 -0.82896703781E-01  0.45319258626E-01  0.34576405834E-01  0.10060560452E+00  0.51100000000E-03 0. -1.
</event>
<event>
 8    1  0.1122465E+005  0.1043930E+01  0.7957747E-01            NaN
         13   -1    0    0    0    0  0.00000000000E+00  0.00000000000E+00  0.74505805969E-08  0.10566000000E+00  0.10566000000E+00 0. -1.
     999900   -1    0    0    0    0 -0.00000000000E+00 -0.00000000000E+00 -0.74505805969E-08  0.93827000000E+00  0.93827000000E+00 0.  1.
     999902    2    1    2    0    0 -0.23697187662E-01  0.28311047206E-02 -0.46649238577E-03  0.10200597367E+01  0.10197804062E+01 0.  0.
     999903    2    3    3    0    0  0.69423454912E-02 -0.63278911483E-01  0.11143278578E+00  0.12998627694E+00  0.20657919686E-01 0.  0.
         14    1    1    2    0    0  0.23697187662E-01 -0.28311047206E-02  0.46649238577E-03  0.23870263346E-01  0.00000000000E+00 0.  1.
     999901    1    3    3    0    0 -0.30639533154E-01  0.66110016203E-01 -0.11189927817E+00  0.89007345972E+00  0.88000000000E+00 0.  1.
        -11    1    4    4    0    0  0.17608214299E-02 -0.31367794396E-01  0.74763567185E-01  0.81098033988E-01  0.51100000000E-03 0.  1.
         11    1    4    4    0    0  0.51815240614E-02 -0.31911117087E-01  0.36669218598E-01  0.48888242952E-01  0.51100000000E-03 0. -1.
</event>
<event>
 8    1  0.1122465E+005  0.1043930E+01  0.7957747E-01            NaN
         13   -1    0    0    0    0  0.00000000000E+00  0.00000000000E+00  0.74505805969E-08  0.10566000000E+00  0.10566000000E+00 0. -1.
     999900   -1    0    0    0    0 -0.00000000000E+00 -0.00000000000E+00 -0.74505805969E-08  0.93827000000E+00  0.93827000000E+00 0.  1.
     999902    2    1    2    0    0 -0.62247696488E-02  0.21852118464E-01 -0.75135413619E-02  0.10199985115E+01  0.10197177292E+01 0.  0.
     999903    2    3    3    0    0 -0.12609572673E+00 -0.22447305076E-01 -0.16567133455E-01  0.13072158454E+00  0.20239786306E-01 0.  0.
         14    1    1    2    0    0  0.62247696488E-02 -0.21852118464E-01  0.75135413619E-02  0.23931488510E-01  0.00000000000E+00 0.  1.
     999901    1    3    3    0    0  0.11987095708E+00  0.44299423539E-01  0.90535920935E-02  0.88927692695E+00  0.88000000000E+00 0.  1.
        -11    1    4    4    0    0 -0.34220161313E-01 -0.15022841356E-01 -0.22913927024E-02  0.37446185443E-01  0.51100000000E-03 0. -1.
         11    1    4    4    0    0 -0.91875565413E-01 -0.74244637195E-02 -0.14275740753E-01  0.93275399096E-01  0.51100000000E-03 0.  1.
</event>
<event>
 8    1  0.1122465E+005  0.1043930E+01  0.7957747E-01            NaN
         13   -1    0    0    0    0  0.00000000000E+00  0.00000000000E+00  0.74505805969E-08  0.10566000000E+00  0.10566000000E+00 0.  1.
     999900   -1    0    0    0    0 -0.00000000000E+00 -0.00000000000E+00 -0.74505805969E-08  0.93827000000E+00  0.93827000000E+00 0. -1.
     999902    2    1    2    0    0  0.22433227223E-01  0.46086215258E-02  0.23270251270E-03  0.10210270913E+01  0.10207701886E+01 0.  0.
     999903    2    3    3    0    0 -0.29377495697E-01 -0.45594228905E-01  0.11691250160E+00  0.13039874418E+00  0.19835031852E-01 0.  0.
         14    1    1    2    0    0 -0.22433227223E-01 -0.46086215258E-02 -0.23270251270E-03  0.22902908690E-01  0.00000000000E+00 0.  1.
     999901    1    3    3    0    0  0.51810722921E-01  0.50202850430E-01 -0.11667979909E+00  0.89062834713E+00  0.88000000000E+00 0. -1.
        -11    1    4    4    0    0  0.21686689666E-02 -0.95598438738E-02  0.18086513763E-01  0.20578552940E-01  0.51100000000E-03 0.  1.
         11    1    4    4    0    0 -0.31546164664E-01 -0.36034385031E-01  0.98825987841E-01  0.10982019124E+00  0.51100000000E-03 0. -1.
</event>
<event>
 8    1  0.1122465E+005  0.1043930E+01  0.7957747E-01            NaN
         13   -1    0    0    0    0  0.00000000000E+00  0.00000000000E+00  0.74505805969E-08  0.10566000000E+00  0.10566000000E+00 0.  1.
     999900   -1    0    0    0    0 -0.00000000000E+00 -0.00000000000E+00 -0.74505805969E-08  0.93827000000E+00  0.93827000000E+00 0. -1.
     999902    2    1    2    0    0 -0.47363595998E-02  0.11289858466E-01 -0.21263280953E-01  0.10193938812E+01  0.10190985546E+01 0.  0.
     999903    2    3    3    0    0 -0.99595712297E-01  0.78362649606E-01 -0.21986861734E-01  0.13175793128E+00  0.28578306554E-01 0.  0.
         14    1    1    2    0    0  0.47363595998E-02 -0.11289858466E-01  0.21263280953E-01  0.24536118750E-01  0.00000000000E+00 0.  1.
     999901    1    3    3    0    0  0.94859352698E-01 -0.67072791141E-01  0.72358078064E-03  0.88763594997E+00  0.88000000000E+00 0. -1.
        -11    1    4    4    0    0 -0.48631605014E-01  0.21247584916E-01 -0.46955604689E-02  0.53280411786E-01  0.51100000000E-03 0. -1.
         11    1    4    4    0    0 -0.50964107284E-01  0.57115064690E-01 -0.17291301265E-01  0.78477519496E-01  0.51100000000E-03 0.  1.
</event>
<event>
 8    1  0.1122465E+005  0.1043930E+01  0.7957747E-01            NaN
         13   -1    0    0    0    0  0.00000000000E+00  0.00000000000E+00  0.74505805969E-08  0.10566000000E+00  0.10566000000E+00 0. -1.
     999900   -1    0    0    0    0 -0.00000000000E+00 -0.00000000000E+00 -0.74505805969E-08  0.93827000000E+00  0.93827000000E+00 0. -1.
     999902    2    1    2    0    0 -0.30462503735E-01 -0.59588024200E-02 -0.13277375902E-01  0.10101696657E+01  0.10096053652E+01 0.  0.
     999903    2    3    3    0    0 -0.92858472733E-01 -0.80587995591E-01 -0.20122962217E-02  0.12473775109E+00  0.20936480578E-01 0.  0.
         14    1    1    2    0    0  0.30462503735E-01  0.59588024200E-02  0.13277375902E-01  0.33760334283E-01  0.00000000000E+00 0. -1.
     999901    1    3    3    0    0  0.62395968999E-01  0.74629193171E-01 -0.11265079680E-01  0.88543191463E+00  0.88000000000E+00 0.  1.
        -11    1    4    4    0    0 -0.77204016570E-01 -0.63235624069E-01  0.61281029830E-02  0.99985094355E-01  0.51100000000E-03 0. -1.
         11    1    4    4    0    0 -0.15654456163E-01 -0.17352371523E-01 -0.81403992048E-02  0.24752656735E-01  0.51100000000E-03 0.  1.
</event>
<event>
 8    1  0.1122465E+005  0.1043930E+01  0.7957747E-01            NaN
         13   -1    0    0    0    0  0.00000000000E+00  0.00000000000E+00  0.74505805969E-08  0.10566000000E+00  0.10566000000E+00 0. -1.
     999900   -1    0    0    0    0 -0.00000000000E+00 -0.00000000000E+00 -0.74505805969E-08  0.93827000000E+00  0.93827000000E+00 0. -1.
     999902    2    1    2    0    0  0.10471342992E-01  0.12570535928E-01  0.17162258495E-01  0.10202190212E+01  0.10199434498E+01 0.  0.
     999903    2    3    3    0    0 -0.45728036870E-01 -0.97771839724E-01  0.69529517865E-01  0.13000773170E+00  0.20427198706E-01 0.  0.
         14    1    1    2    0    0 -0.10471342992E-01 -0.12570535928E-01 -0.17162258495E-01  0.23710978770E-01  0.00000000000E+00 0.  1.
     999901    1    3    3    0    0  0.56199379862E-01  0.11034237565E+00 -0.52367259370E-01  0.89021128953E+00  0.88000000000E+00 0. -1.
        -11    1    4    4    0    0 -0.38635125027E-02 -0.65380646588E-02  0.12281712718E-01  0.14449034799E-01  0.51100000000E-03 0. -1.
         11    1    4    4    0    0 -0.41864524367E-01 -0.91233775066E-01  0.57247805147E-01  0.11555869690E+00  0.51100000000E-03 0.  1.
</event>
<event>
 8    1  0.1122465E+005  0.1043930E+01  0.7957747E-01            NaN
         13   -1    0    0    0    0  0.00000000000E+00  0.00000000000E+00  0.74505805969E-08  0.10566000000E+00  0.10566000000E+00 0.  1.
     999900   -1    0    0    0    0 -0.00000000000E+00 -0.00000000000E+00 -0.74505805969E-08  0.93827000000E+00  0.93827000000E+00 0. -1.
     999902    2    1    2    0    0  0.73154650937E-02  0.19241038262E-01  0.11731728229E-01  0.10202368147E+01  0.10199616615E+01 0.  0.
     999903    2    3    3    0    0 -0.40373896651E-01  0.12188404981E+00 -0.23373069864E-01  0.13229413079E+00  0.21671721579E-01 0.  0.
         14    1    1    2    0    0 -0.73154650937E-02 -0.19241038262E-01 -0.11731728229E-01  0.23693185311E-01  0.00000000000E+00 0.  1.
     999901    1    3    3    0    0  0.47689361744E-01 -0.10264301155E+00  0.35104798093E-01  0.88794268390E+00  0.88000000000E+00 0. -1.
        -11    1    4    4    0    0 -0.78690362114E-02  0.48006267220E-01 -0.16138330560E-01  0.51256514294E-01  0.51100000000E-03 0.  1.
         11    1    4    4    0    0 -0.32504860439E-01  0.73877782595E-01 -0.72347393032E-02  0.81037616494E-01  0.51100000000E-03 0. -1.
</event>
<event>
 8    1  0.1122465E+005  0.1043930E+01  0.7957747E-01            NaN
         13   -1    0    0    0    0  0.00000000000E+00  0.00000000000E+00  0.74505805969E-08  0.10566000000E+00  0.10566000000E+00 0.  1.
     999900   -1    0    0    0    0 -0.00000000000E+00 -0.00000000000E+00 -0.74505805969E-08  0.93827000000E+00  0.93827000000E+00 0. -1.
     999902    2    1    2    0    0  0.17487257771E-01 -0.17263792139E-02 -0.18504721039E-01  0.10184111977E+01  0.10180914293E+01 0.  0.
     999903    2    3    3    0    0  0.82562700127E-01  0.84604918581E-01 -0.53021148901E-01  0.13112359497E+00  0.20188195261E-01 0.  0.
         14    1    1    2    0    0 -0.17487257771E-01  0.17263792139E-02  0.18504721039E-01  0.25518802289E-01  0.00000000000E+00 0. -1.
     999901    1    3    3    0    0 -0.65075442356E-01 -0.86331297795E-01  0.34516427862E-01  0.88728760274E+00  0.88000000000E+00 0.  1.
        -11    1    4    4    0    0  0.54375922936E-01  0.54346436850E-01 -0.44726647707E-01  0.88943860549E-01  0.51100000000E-03 0.  1.
         11    1    4    4    0    0  0.28186777191E-01  0.30258481731E-01 -0.82945011947E-02  0.42179734425E-01  0.51100000000E-03 0. -1.
</event>
<event>
 8    1  0.1122465E+005  0.1043930E+01  0.7957747E-01            NaN
         13   -1    0    0    0    0  0.00000000000E+00  0.00000000000E+00  0.74505805969E-08  0.10566000000E+00  0.10566000000E+00 0. -1.
     999900   -1    0    0    0    0 -0.00000000000E+00 -0.00000000000E+00 -0.74505805969E-08  0.93827000000E+00  0.93827000000E+00 0. -1.
     999902    2    1    2    0    0  0.85859607696E-02 -0.21517978045E-01 -0.20068499739E-02  0.10206755478E+01  0.10204106057E+01 0.  0.
     999903    2    3    3    0    0  0.12604919083E+00  0.22212344675E-01  0.22637996967E-01  0.13145267356E+00  0.19635165261E-01 0.  0.
         14    1    1    2    0    0 -0.85859607696E-02  0.21517978045E-01  0.20068499739E-02  0.23254452226E-01  0.00000000000E+00 0. -1.
     999901    1    3    3    0    0 -0.11746323006E+00 -0.43730322720E-01 -0.24644846940E-01  0.88922287421E+00  0.88000000000E+00 0. -1.
        -11    1    4    4    0    0  0.36744719996E-01  0.91624875505E-02 -0.19038625538E-02  0.37921121282E-01  0.51100000000E-03 0.  1.
         11    1    4    4    0    0  0.89304470836E-01  0.13049857124E-01  0.24541859520E-01  0.93531552280E-01  0.51100000000E-03 0. -1.
</event>
<event>
 8    1  0.1122465E+005  0.1043930E+01  0.7957747E-01            NaN
         13   -1    0    0    0    0  0.00000000000E+00  0.00000000000E+00  0.74505805969E-08  0.10566000000E+00  0.10566000000E+00 0.  1.
     999900   -1    0    0    0    0 -0.00000000000E+00 -0.00000000000E+00 -0.74505805969E-08  0.93827000000E+00  0.93827000000E+00 0.  1.
     999902    2    1    2    0    0 -0.14283911313E-01 -0.12761035169E-01 -0.16423412986E-01  0.10186990144E+01  0.10183865078E+01 0.  0.
     999903    2    3    3    0    0 -0.10341314397E+00  0.16711208934E-01 -0.77401095091E-01  0.13160775020E+00  0.18871341786E-01 0.  0.
         14    1    1    2    0    0  0.14283911313E-01  0.12761035169E-01  0.16423412986E-01  0.25230985615E-01  0.00000000000E+00 0.  1.
     999901    1    3    3    0    0  0.89129232656E-01 -0.29472244103E-01  0.60977682105E-01  0.88709126419E+00  0.88000000000E+00 0. -1.
        -11    1    4    4    0    0 -0.59250146361E-01  0.16147766443E-03 -0.41721263034E-01  0.72467446685E-01  0.51100000000E-03 0. -1.
         11    1    4    4    0    0 -0.44162997608E-01  0.16549731269E-01 -0.35679832056E-01  0.59140303511E-01  0.51100000000E-03 0.  1.
</event>
<event>
 8    1  0.1122465E+005  0.1043930E+01  0.7957747E-01            NaN
         13   -1    0    0    0    0  0.00000000000E+00  0.00000000000E+00  0.74505805969E-08  0.10566000000E+00  0.10566000000E+00 0. -1.
     999900   -1    0    0    0    0 -0.00000000000E+00 -0.00000000000E+00 -0.74505805969E-08  0.93827000000E+00  0.93827000000E+00 0.  1.
     999902    2    1    2    0    0 -0.57114361302E-02  0.12563452893E-02 -0.16232889022E-01  0.10266758529E+01  0.10265308575E+01 0.  0.
     999903    2    3    3    0    0 -0.11752313498E+00  0.34399245454E-01  0.56033247154E-01  0.13604534462E+00  0.19329140265E-01 0.  0.
         14    1    1    2    0    0  0.57114361302E-02 -0.12563452893E-02  0.16232889022E-01  0.17254147101E-01  0.00000000000E+00 0. -1.
     999901    1    3    3    0    0  0.11181169885E+00 -0.33142900165E-01 -0.72266136176E-01  0.89063050827E+00  0.88000000000E+00 0.  1.
        -11    1    4    4    0    0 -0.41510664835E-01  0.21516285694E-01  0.18342859757E-01  0.50227556880E-01  0.51100000000E-03 0. -1.
         11    1    4    4    0    0 -0.76012470148E-01  0.12882959760E-01  0.37690387398E-01  0.85817787745E-01  0.51100000000E-03 0.  1.
</event>
<event>
 8    1  0.1122465E+005  0.1043930E+01  0.7957747E-01            NaN
         13   -1    0    0    0    0  0.00000000000E+00  0.00000000000E+00  0.74505805969E-08  0.10566000000E+00  0.10566000000E+00 0.  1.
     999900   -1    0    0    0    0 -0.00000000000E+00 -0.00000000000E+00 -0.74505805969E-08  0.93827000000E+00  0.93827000000E+00 0.  1.
     999902    2    1    2    0    0  0.20196526308E-01 -0.75204955638E-02  0.95379147135E-02  0.10203624514E+01  0.10200902426E+01 0.  0.
     999903    2    3    3    0    0 -0.30991210677E-01 -0.41732973566E-01 -0.11669779136E+00  0.12922490225E+00  0.19457765322E-01 0.  0.
         14    1    1    2    0    0 -0.20196526308E-01  0.75204955638E-02 -0.95379147135E-02  0.23567548568E-01  0.00000000000E+00 0.  1.
     999901    1    3    3    0    0  0.51187736985E-01  0.34212478002E-01  0.12623570608E+00  0.89113754918E+00  0.88000000000E+00 0. -1.
        -11    1    4    4    0    0 -0.53772855522E-02 -0.18311104493E-01 -0.57662285362E-01  0.60740530306E-01  0.51100000000E-03 0. -1.
         11    1    4    4    0    0 -0.25613925125E-01 -0.23421869073E-01 -0.59035506001E-01  0.68484371947E-01  0.51100000000E-03 0.  1.
</event>
<event>
 8    1  0.1132650E+005  0.1043930E+01  0.7957747E-01            NaN
         13   -1    0    0    0    0  0.00000000000E+00  0.00000000000E+00  0.74505805969E-08  0.10566000000E+00  0.10566000000E+00 0.  1.
     999900   -1    0    0    0    0 -0.00000000000E+00 -0.00000000000E+00 -0.74505805969E-08  0.93827000000E+00  0.93827000000E+00 0.  1.
     999902    2    1    2    0    0  0.24502787702E-01  0.45550404746E-02  0.16163681082E-02  0.10189550597E+01  0.10186489415E+01 0.  0.
     999903    2    3    3    0    0  0.56554178205E-01 -0.76815969717E-01 -0.86523935753E-01  0.13023843098E+00  0.19405905556E-01 0.  0.
         14    1    1    2    0    0 -0.24502787702E-01 -0.45550404746E-02 -0.16163681082E-02  0.24974940335E-01  0.00000000000E+00 0.  1.
     999901    1    3    3    0    0 -0.32051390503E-01  0.81371010191E-01  0.88140303861E-01  0.88871662868E+00  0.88000000000E+00 0. -1.
        -11    1    4    4    0    0  0.14451774842E-01 -0.34227153690E-01 -0.38136430146E-01  0.53244720593E-01  0.51100000000E-03 0. -1.
         11    1    4    4    0    0  0.42102403363E-01 -0.42588816026E-01 -0.48387505608E-01  0.76993710388E-01  0.51100000000E-03 0.  1.
</event>
<event>
 8    1  0.1122465E+005  0.1043930E+01  0.7957747E-01            NaN
         13   -1    0    0    0    0  0.00000000000E+00  0.00000000000E+00  0.74505805969E-08  0.10566000000E+00  0.10566000000E+00 0.  1.
     999900   -1    0    0    0    0 -0.00000000000E+00 -0.00000000000E+00 -0.74505805969E-08  0.93827000000E+00  0.93827000000E+00 0. -1.
     999902    2    1    2    0    0  0.32745260184E-02 -0.67878140063E-02 -0.22710635996E-01  0.10200015666E+01  0.10197208568E+01 0.  0.
     999903    2    3    3    0    0  0.50031984308E-01  0.62990357871E-01  0.97546185831E-01  0.12785978614E+00  0.19023193804E-01 0.  0.
         14    1    1    2    0    0 -0.32745260184E-02  0.67878140063E-02  0.22710635996E-01  0.23928433442E-01  0.00000000000E+00 0.  1.
     999901    1    3    3    0    0 -0.46757458289E-01 -0.69778171877E-01 -0.12025682183E+00  0.89214178042E+00  0.88000000000E+00 0.  1.
        -11    1    4    4    0    0  0.40491691064E-01  0.54501259980E-01  0.70144704907E-01  0.97624306052E-01  0.51100000000E-03 0.  1.
         11    1    4    4    0    0  0.95402932437E-02  0.84890978907E-02  0.27401480924E-01  0.30235480086E-01  0.51100000000E-03 0. -1.
</event>
<event>
 8    1  0.1122465E+005  0.1043930E+01  0.7957747E-01            NaN
         13   -1    0    0    0    0  0.00000000000E+00  0.00000000000E+00  0.74505805969E-08  0.10566000000E+00  0.10566000000E+00 0.  1.
     999900   -1    0    0    0    0 -0.00000000000E+00 -0.00000000000E+00 -0.74505805969E-08  0.93827000000E+00  0.93827000000E+00 0.  1.
     999902    2    1    2    0    0  0.94835873483E-02 -0.10337719552E-01  0.19440433640E-01  0.10199563200E+01  0.10196745350E+01 0.  0.
     999903    2    3    3    0    0  0.54759318221E-03  0.56038304253E-01 -0.11272885573E+00  0.12756943661E+00  0.20629465363E-01 0.  0.
         14    1    1    2    0    0 -0.94835873483E-02  0.10337719552E-01 -0.19440433640E-01  0.23973680040E-01  0.00000000000E+00 0. -1.
     999901    1    3    3    0    0  0.89359941661E-02 -0.66376023804E-01  0.13216928937E+00  0.89238688335E+00  0.88000000000E+00 0. -1.
        -11    1    4    4    0    0  0.74236028899E-02  0.49013061777E-01 -0.98437566827E-01  0.11021617753E+00  0.51100000000E-03 0. -1.
         11    1    4    4    0    0 -0.68760097077E-02  0.70252424759E-02 -0.14291288900E-01  0.17353259082E-01  0.51100000000E-03 0.  1.
</event>
<event>
 8    1  0.1122465E+005  0.1043930E+01  0.7957747E-01            NaN
         13   -1    0    0    0    0  0.00000000000E+00  0.00000000000E+00  0.74505805969E-08  0.10566000000E+00  0.10566000000E+00 0.  1.
     999900   -1    0    0    0    0 -0.00000000000E+00 -0.00000000000E+00 -0.74505805969E-08  0.93827000000E+00  0.93827000000E+00 0.  1.
     999902    2    1    2    0    0  0.16627570090E-01 -0.91231509074E-02 -0.14274863879E-01  0.10201922725E+01  0.10199160716E+01 0.  0.
     999903    2    3    3    0    0 -0.88839340546E-01 -0.78128299289E-01  0.47376820913E-01  0.12907729112E+00  0.20492055662E-01 0.  0.
         14    1    1    2    0    0 -0.16627570090E-01  0.91231509074E-02  0.14274863879E-01  0.23737727531E-01  0.00000000000E+00 0.  1.
     999901    1    3    3    0    0  0.10546691064E+00  0.69005148382E-01 -0.61651684792E-01  0.89111498135E+00  0.88000000000E+00 0.  1.
        -11    1    4    4    0    0 -0.54070956049E-01 -0.59527414872E-01  0.35373167730E-01  0.87856152463E-01  0.51100000000E-03 0. -1.
         11    1    4    4    0    0 -0.34768384497E-01 -0.18600884418E-01  0.12003653183E-01  0.41221138660E-01  0.51100000000E-03 0.  1.
</event>
<event>
 8    1  0.1122465E+005  0.1043930E+01  0.7957747E-01            NaN
         13   -1    0    0    0    0  0.00000000000E+00  0.00000000000E+00  0.74505805969E-08  0.10566000000E+00  0.10566000000E+00 0.  1.
     999900   -1    0    0    0    0 -0.00000000000E+00 -0.00000000000E+00 -0.74505805969E-08  0.93827000000E+00  0.93827000000E+00 0.  1.
     999902    2    1    2    0    0 -0.22707708800E-01 -0.14479780238E-02 -0.82725320283E-02  0.10197190218E+01  0.10194315632E+01 0.  0.
     999903    2    3    3    0    0 -0.11406325631E+00  0.64727279567E-01 -0.41740423219E-02  0.13250890103E+00  0.18469950260E-01 0.  0.
         14    1    1    2    0    0  0.22707708800E-01  0.14479780238E-02  0.82725320283E-02  0.24210978201E-01  0.00000000000E+00 0.  1.
     999901    1    3    3    0    0  0.91355547510E-01 -0.66175257591E-01 -0.40984897064E-02  0.88721012077E+00  0.88000000000E+00 0. -1.
        -11    1    4    4    0    0 -0.71476848841E-01  0.42504098736E-01 -0.11366864365E-01  0.83934528391E-01  0.51100000000E-03 0.  1.
         11    1    4    4    0    0 -0.42586407468E-01  0.22223180831E-01  0.71928220433E-02  0.48574372639E-01  0.51100000000E-03 0. -1.
</event>
<event>
 8    1  0.1122465E+005  0.1043930E+01  0.7957747E-01            NaN
         13   -1    0    0    0    0  0.00000000000E+00  0.00000000000E+00  0.74505805969E-08  0.10566000000E+00  0.10566000000E+00 0. -1.
     999900   -1    0    0    0    0 -0.00000000000E+00 -0.00000000000E+00 -0.74505805969E-08  0.93827000000E+00  0.93827000000E+00 0.  1.
     999902    2    1    2    0    0 -0.19016521800E-01 -0.12229389710E-01  0.55639613759E-02  0.10206460197E+01  0.10203803966E+01 0.  0.
     999903    2    3    3    0    0 -0.38954918965E-01  0.12247748666E+00 -0.51059140414E-02  0.13010835709E+00  0.19593207374E-01 0.  0.
         14    1    1    2    0    0  0.19016521800E-01  0.12229389710E-01 -0.55639613759E-02  0.23283980335E-01  0.00000000000E+00 0.  1.
     999901    1    3    3    0    0  0.19938397165E-01 -0.13470687637E+00  0.10669875417E-01  0.89053766258E+00  0.88000000000E+00 0. -1.
        -11    1    4    4    0    0 -0.25514225898E-01  0.55136985839E-01  0.37349395459E-02  0.60870960441E-01  0.51100000000E-03 0. -1.
         11    1    4    4    0    0 -0.13440693066E-01  0.67340500826E-01 -0.88408535873E-02  0.69237396649E-01  0.51100000000E-03 0.  1.
</event>
<event>
 8    1  0.1122465E+005  0.1043930E+01  0.7957747E-01            NaN
         13   -1    0    0    0    0  0.00000000000E+00  0.00000000000E+00  0.74505805969E-08  0.10566000000E+00  0.10566000000E+00 0. -1.
     999900   -1    0    0    0    0 -0.00000000000E+00 -0.00000000000E+00 -0.74505805969E-08  0.93827000000E+00  0.93827000000E+00 0.  1.
     999902    2    1    2    0    0 -0.15726645264E-01 -0.10116940104E-01 -0.14568336303E-01  0.10202252268E+01  0.10199498013E+01 0.  0.
     999903    2    3    3    0    0 -0.93295212515E-01 -0.80064429122E-01  0.44437706638E-01  0.13208602212E+00  0.18912905085E-01 0.  0.
         14    1    1    2    0    0  0.15726645264E-01  0.10116940104E-01  0.14568336303E-01  0.23704773169E-01  0.00000000000E+00 0. -1.
     999901    1    3    3    0    0  0.77568567251E-01  0.69947489018E-01 -0.59006042942E-01  0.88813920471E+00  0.88000000000E+00 0.  1.
        -11    1    4    4    0    0 -0.32043283093E-01 -0.39605993072E-01  0.19619589204E-01  0.54594835654E-01  0.51100000000E-03 0. -1.
         11    1    4    4    0    0 -0.61251929422E-01 -0.40458436051E-01  0.24818117435E-01  0.77491186464E-01  0.51100000000E-03 0.  1.
</event>
<event>
 8    1  0.1122465E+005  0.1043930E+01  0.7957747E-01            NaN
         13   -1    0    0    0    0  0.00000000000E+00  0.00000000000E+00  0.74505805969E-08  0.10566000000E+00  0.10566000000E+00 0.  1.
     999900   -1    0    0    0    0 -0.00000000000E+00 -0.00000000000E+00 -0.74505805969E-08  0.93827000000E+00  0.93827000000E+00 0.  1.
     999902    2    1    2    0    0  0.13498472224E-01 -0.16560439076E-01 -0.98784430311E-02  0.10203919344E+01  0.10201204141E+01 0.  0.
     999903    2    3    3    0    0 -0.68967385132E-01  0.51124868458E-01 -0.95512189406E-01  0.12982186025E+00  0.18996965177E-01 0.  0.
         14    1    1    2    0    0 -0.13498472224E-01  0.16560439076E-01  0.98784430311E-02  0.23538065586E-01  0.00000000000E+00 0.  1.
     999901    1    3    3    0    0  0.82465857356E-01 -0.67685307534E-01  0.85633746375E-01  0.89057007417E+00  0.88000000000E+00 0.  1.
        -11    1    4    4    0    0 -0.40369990146E-01  0.29591844182E-01 -0.41504020494E-01  0.65025058129E-01  0.51100000000E-03 0. -1.
         11    1    4    4    0    0 -0.28597394986E-01  0.21533024275E-01 -0.54008168912E-01  0.64796802117E-01  0.51100000000E-03 0.  1.
</event>
<event>
 8    1  0.1122465E+005  0.1043930E+01  0.7957747E-01            NaN
         13   -1    0    0    0    0  0.00000000000E+00  0.00000000000E+00  0.74505805969E-08  0.10566000000E+00  0.10566000000E+00 0.  1.
     999900   -1    0    0    0    0 -0.00000000000E+00 -0.00000000000E+00 -0.74505805969E-08  0.93827000000E+00  0.93827000000E+00 0.  1.
     999902    2    1    2    0    0  0.65200039823E-02 -0.19670685376E-01  0.13583221440E-01  0.10191519811E+01  0.10188507302E+01 0.  0.
     999903    2    3    3    0    0 -0.49442501775E-01  0.83857145925E-01 -0.79093583717E-01  0.12649370153E+00  0.16379244080E-01 0.  0.
         14    1    1    2    0    0 -0.65200039823E-02  0.19670685376E-01 -0.13583221440E-01  0.24778018883E-01  0.00000000000E+00 0.  1.
     999901    1    3    3    0    0  0.55962505757E-01 -0.10352783130E+00  0.92676805157E-01  0.89265827959E+00  0.88000000000E+00 0. -1.
        -11    1    4    4    0    0 -0.26007433947E-01  0.59232880560E-01 -0.53213799001E-01  0.83766880598E-01  0.51100000000E-03 0.  1.
         11    1    4    4    0    0 -0.23435067828E-01  0.24624265365E-01 -0.25879784716E-01  0.42726820930E-01  0.51100000000E-03 0. -1.
</event>
<event>
 8    1  0.1122465E+005  0.1043930E+01  0.7957747E-01            NaN
         13   -1    0    0    0    0  0.00000000000E+00  0.00000000000E+00  0.74505805969E-08  0.10566000000E+00  0.10566000000E+00 0.  1.
     999900   -1    0    0    0    0 -0.00000000000E+00 -0.00000000000E+00 -0.74505805969E-08  0.93827000000E+00  0.93827000000E+00 0. -1.
     999902    2    1    2    0    0  0.89865052174E-02  0.56117953860E-02 -0.23177838462E-01  0.10184454612E+01  0.10181265617E+01 0.  0.
     999903    2    3    3    0    0 -0.33817664928E-01  0.10115874169E+00 -0.73014771418E-01  0.13083905301E+00  0.20272529799E-01 0.  0.
         14    1    1    2    0    0 -0.89865052174E-02 -0.56117953860E-02  0.23177838462E-01  0.25484538827E-01  0.00000000000E+00 0.  1.
     999901    1    3    3    0    0  0.42804170146E-01 -0.95546946307E-01  0.49836932956E-01  0.88760640817E+00  0.88000000000E+00 0.  1.
        -11    1    4    4    0    0 -0.48588648001E-02  0.40048052022E-01 -0.34028737104E-01  0.52779457252E-01  0.51100000000E-03 0.  1.
         11    1    4    4    0    0 -0.28958800128E-01  0.61110689671E-01 -0.38986034313E-01  0.78059595755E-01  0.51100000000E-03 0. -1.
</event>
<event>
 8    1  0.1122465E+005  0.1043930E+01  0.7957747E-01            NaN
         13   -1    0    0    0    0  0.00000000000E+00  0.00000000000E+00  0.74505805969E-08  0.10566000000E+00  0.10566000000E+00 0. -1.
     999900   -1    0    0    0    0 -0.00000000000E+00 -0.00000000000E+00 -0.74505805969E-08  0.93827000000E+00  0.93827000000E+00 0. -1.
     999902    2    1    2    0    0 -0.18676280605E-02  0.76040354193E-02 -0.22260993758E-01  0.10203320926E+01  0.10200591738E+01 0.  0.
     999903    2    3    3    0    0 -0.41821391804E-01  0.56984138495E-01 -0.11155765061E+00  0.13353527783E+00  0.19757028157E-01 0.  0.
         14    1    1    2    0    0  0.18676280605E-02 -0.76040354193E-02  0.22260993758E-01  0.23597907372E-01  0.00000000000E+00 0. -1.
     999901    1    3    3    0    0  0.39953763744E-01 -0.49380103076E-01  0.89296656855E-01  0.88679681480E+00  0.88000000000E+00 0.  1.
        -11    1    4    4    0    0 -0.30455996971E-01  0.30752063501E-01 -0.79941239437E-01  0.90907205681E-01  0.51100000000E-03 0.  1.
         11    1    4    4    0    0 -0.11365394833E-01  0.26232074994E-01 -0.31616411176E-01  0.42628072146E-01  0.51100000000E-03 0. -1.
</event>
<event>
 8    1  0.1122465E+005  0.1043930E+01  0.7957747E-01            NaN
         13   -1    0    0    0    0  0.00000000000E+00  0.00000000000E+00  0.74505805969E-08  0.10566000000E+00  0.10566000000E+00 0. -1.
     999900   -1    0    0    0    0 -0.00000000000E+00 -0.00000000000E+00 -0.74505805969E-08  0.93827000000E+00  0.93827000000E+00 0. -1.
     999902    2    1    2    0    0  0.17286041260E-03  0.67715456393E-02  0.21660748463E-01  0.10212348081E+01  0.10209825961E+01 0.  0.
     999903    2    3    3    0    0 -0.35656320283E-01 -0.23136591329E-01  0.12544392158E+00  0.13390782561E+00  0.19709217721E-01 0.  0.
         14    1    1    2    0    0 -0.17286041260E-03 -0.67715456393E-02 -0.21660748463E-01  0.22695191892E-01  0.00000000000E+00 0.  1.
     999901    1    3    3    0    0  0.35829180696E-01  0.29908136968E-01 -0.10378317312E+00  0.88732698250E+00  0.88000000000E+00 0. -1.
        -11    1    4    4    0    0 -0.17628740387E-01 -0.22524421610E-01  0.70786918553E-01  0.76349007955E-01  0.51100000000E-03 0.  1.
         11    1    4    4    0    0 -0.18027579896E-01 -0.61216971892E-03  0.54657003029E-01  0.57558817654E-01  0.51100000000E-03 0. -1.
</event>
<event>
 8    1  0.1122465E+005  0.1043930E+01  0.7957747E-01            NaN
         13   -1    0    0    0    0  0.00000000000E+00  0.00000000000E+00  0.74505805969E-08  0.10566000000E+00  0.10566000000E+00 0. -1.
     999900   -1    0    0    0    0 -0.00000000000E+00 -0.00000000000E+00 -0.74505805969E-08  0.93827000000E+00  0.93827000000E+00 0.  1.
     999902    2    1    2    0    0  0.75063234716E-02  0.18713403624E-01 -0.14244920258E-01  0.10192428754E+01  0.10189438576E+01 0.  0.
     999903    2    3    3    0    0 -0.40730795038E-01 -0.32467326877E-01  0.11410877914E+00  0.12715489829E+00  0.20842977332E-01 0.  0.
         14    1    1    2    0    0 -0.75063234716E-02 -0.18713403624E-01  0.14244920258E-01  0.24687124588E-01  0.00000000000E+00 0. -1.
     999901    1    3    3    0    0  0.48237118509E-01  0.51180730501E-01 -0.12835369940E+00  0.89208797712E+00  0.88000000000E+00 0.  1.
        -11    1    4    4    0    0 -0.19076983874E-01 -0.25349871392E-01  0.51120737777E-01  0.60167584671E-01  0.51100000000E-03 0. -1.
         11    1    4    4    0    0 -0.21653811164E-01 -0.71174554855E-02  0.62988041360E-01  0.66987313619E-01  0.51100000000E-03 0.  1.
</event>
<event>
 8    1  0.1122465E+005  0.1043930E+01  0.7957747E-01            NaN
         13   -1    0    0    0    0  0.00000000000E+00  0.00000000000E+00  0.74505805969E-08  0.10566000000E+00  0.10566000000E+00 0.  1.
     999900   -1    0    0    0    0 -0.00000000000E+00 -0.00000000000E+00 -0.74505805969E-08  0.93827000000E+00  0.93827000000E+00 0. -1.
     999902    2    1    2    0    0  0.49346361580E-03  0.19296924337E-01 -0.13652011296E-01  0.10202869840E+01  0.10200130085E+01 0.  0.
     999903    2    3    3    0    0 -0.22684089831E-01 -0.11750633620E+00  0.40124639818E-01  0.12779370147E+00  0.19973393221E-01 0.  0.
         14    1    1    2    0    0 -0.49346361580E-03 -0.19296924337E-01  0.13652011296E-01  0.23643016043E-01  0.00000000000E+00 0.  1.
     999901    1    3    3    0    0  0.23177553447E-01  0.13680326054E+00 -0.53776651114E-01  0.89249328249E+00  0.88000000000E+00 0. -1.
        -11    1    4    4    0    0 -0.11217295689E-01 -0.88929157380E-01  0.22926844475E-01  0.92520938568E-01  0.51100000000E-03 0. -1.
         11    1    4    4    0    0 -0.11466794143E-01 -0.28577178819E-01  0.17197795343E-01  0.35272762903E-01  0.51100000000E-03 0.  1.
</event>
<event>
 8    1  0.1122465E+005  0.1043930E+01  0.7957747E-01            NaN
         13   -1    0    0    0    0  0.00000000000E+00  0.00000000000E+00  0.74505805969E-08  0.10566000000E+00  0.10566000000E+00 0.  1.
     999900   -1    0    0    0    0 -0.00000000000E+00 -0.00000000000E+00 -0.74505805969E-08  0.93827000000E+00  0.93827000000E+00 0.  1.
     999902    2    1    2    0    0 -0.20112554302E-02 -0.67891403406E-02  0.22214826689E-01  0.10206139948E+01  0.10203476320E+01 0.  0.
     999903    2    3    3    0    0  0.12700449555E+00 -0.91173690331E-02  0.24746691013E-01  0.13120020188E+00  0.19693297081E-01 0.  0.
         14    1    1    2    0    0  0.20112554302E-02  0.67891403406E-02 -0.22214826689E-01  0.23316005228E-01  0.00000000000E+00 0. -1.
     999901    1    3    3    0    0 -0.12901575098E+00  0.23282286926E-02 -0.25318643233E-02  0.88941379289E+00  0.88000000000E+00 0. -1.
        -11    1    4    4    0    0  0.59699874360E-01 -0.44802380129E-02  0.16587171109E-02  0.59892904377E-01  0.51100000000E-03 0.  1.
         11    1    4    4    0    0  0.67304621187E-01 -0.46371310203E-02  0.23087973902E-01  0.71307297503E-01  0.51100000000E-03 0. -1.
</event>
<event>
 8    1  0.1122465E+005  0.1043930E+01  0.7957747E-01            NaN
         13   -1    0    0    0    0  0.00000000000E+00  0.00000000000E+00  0.74505805969E-08  0.10566000000E+00  0.10566000000E+00 0.  1.
     999900   -1    0    0    0    0 -0.00000000000E+00 -0.00000000000E+00 -0.74505805969E-08  0.93827000000E+00  0.93827000000E+00 0. -1.
     999902    2    1    2    0    0 -0.16444665388E-01 -0.14524603455E-01 -0.60930143672E-02  0.10211590547E+01  0.10209051372E+01 0.  0.
     999903    2    3    3    0    0 -0.14234450582E-01 -0.11096204574E+00 -0.70075833130E-01  0.13357871107E+00  0.20431702925E-01 0.  0.
         14    1    1    2    0    0  0.16444665388E-01  0.14524603455E-01  0.60930143672E-02  0.22770945289E-01  0.00000000000E+00 0. -1.
     999901    1    3    3    0    0 -0.22102148066E-02  0.96437442283E-01  0.63982818762E-01  0.88758034364E+00  0.88000000000E+00 0.  1.
        -11    1    4    4    0    0 -0.18636651302E-01 -0.75495463669E-01 -0.44136908547E-01  0.89415980806E-01  0.51100000000E-03 0.  1.
         11    1    4    4    0    0  0.44022007204E-02 -0.35466582068E-01 -0.25938924582E-01  0.44162730263E-01  0.51100000000E-03 0. -1.
</event>
<event>
 8    1  0.1122465E+005  0.1043930E+01  0.7957747E-01            NaN
         13   -1    0    0    0    0  0.00000000000E+00  0.00000000000E+00  0.74505805969E-08  0.10566000000E+00  0.10566000000E+00 0.  1.
     999900   -1    0    0    0    0 -0.00000000000E+00 -0.00000000000E+00 -0.74505805969E-08  0.93827000000E+00  0.93827000000E+00 0. -1.
     999902    2    1    2    0    0  0.14351891670E-01 -0.18764898554E-01 -0.93846974424E-02  0.10185101110E+01  0.10181928478E+01 0.  0.
     999903    2    3    3    0    0  0.12725799654E+00 -0.24995030358E-01 -0.43774521800E-02  0.13126061079E+00  0.19769588580E-01 0.  0.
         14    1    1    2    0    0 -0.14351891670E-01  0.18764898554E-01  0.93846974424E-02  0.25419889031E-01  0.00000000000E+00 0.  1.
     999901    1    3    3    0    0 -0.11290610487E+00  0.62301318043E-02 -0.50072452625E-02  0.88724950018E+00  0.88000000000E+00 0.  1.
        -11    1    4    4    0    0  0.72254952984E-01 -0.19961191463E-01  0.54370640157E-02  0.75160163527E-01  0.51100000000E-03 0.  1.
         11    1    4    4    0    0  0.55003043554E-01 -0.50338388951E-02 -0.98145161957E-02  0.56100447266E-01  0.51100000000E-03 0. -1.
</event>
<event>
 8    1  0.1122465E+005  0.1043930E+01  0.7957747E-01            NaN
         13   -1    0    0    0    0  0.00000000000E+00  0.00000000000E+00  0.74505805969E-08  0.10566000000E+00  0.10566000000E+00 0. -1.
     999900   -1    0    0    0    0 -0.00000000000E+00 -0.00000000000E+00 -0.74505805969E-08  0.93827000000E+00  0.93827000000E+00 0. -1.
     999902    2    1    2    0    0  0.30544820160E-02  0.72070442020E-02  0.22835223143E-01  0.10197904316E+01  0.10195046864E+01 0.  0.
     999903    2    3    3    0    0 -0.10631916089E+00 -0.55068919557E-01  0.51107438689E-01  0.13038601987E+00  0.72245426038E-02 0.  0.
         14    1    1    2    0    0 -0.30544820160E-02 -0.72070442020E-02 -0.22835223143E-01  0.24139568400E-01  0.00000000000E+00 0.  1.
     999901    1    3    3    0    0  0.10937364291E+00  0.62275963759E-01 -0.28272215545E-01  0.88940441173E+00  0.88000000000E+00 0. -1.
        -11    1    4    4    0    0 -0.20379781155E-01 -0.78809913549E-02  0.10815865491E-01  0.24386257851E-01  0.51100000000E-03 0. -1.
         11    1    4    4    0    0 -0.85939379736E-01 -0.47187928202E-01  0.40291573198E-01  0.10599976202E+00  0.51100000000E-03 0.  1.
</event>
<event>
 8    1  0.1122465E+005  0.1043930E+01  0.7957747E-01            NaN
         13   -1    0    0    0    0  0.00000000000E+00  0.00000000000E+00  0.74505805969E-08  0.10566000000E+00  0.10566000000E+00 0. -1.
     999900   -1    0    0    0    0 -0.00000000000E+00 -0.00000000000E+00 -0.74505805969E-08  0.93827000000E+00  0.93827000000E+00 0.  1.
     999902    2    1    2    0    0  0.15550801243E-01  0.81309501094E-02  0.14898050053E-01  0.10209106242E+01  0.10206510720E+01 0.  0.
     999903    2    3    3    0    0 -0.46040076780E-01  0.91608986322E-01  0.81113107921E-01  0.13234635936E+00  0.20599211480E-01 0.  0.
         14    1    1    2    0    0 -0.15550801243E-01 -0.81309501094E-02 -0.14898050053E-01  0.23019375846E-01  0.00000000000E+00 0.  1.
     999901    1    3    3    0    0  0.61590878023E-01 -0.83478036212E-01 -0.66215057869E-01  0.88856426480E+00  0.88000000000E+00 0.  1.
        -11    1    4    4    0    0 -0.27913455224E-01  0.70665209854E-01  0.51465412422E-01  0.91769726288E-01  0.51100000000E-03 0. -1.
         11    1    4    4    0    0 -0.18126621556E-01  0.20943776468E-01  0.29647695499E-01  0.40576633069E-01  0.51100000000E-03 0.  1.
</event>
<event>
 8    1  0.1122465E+005  0.1043930E+01  0.7957747E-01            NaN
         13   -1    0    0    0    0  0.00000000000E+00  0.00000000000E+00  0.74505805969E-08  0.10566000000E+00  0.10566000000E+00 0. -1.
     999900   -1    0    0    0    0 -0.00000000000E+00 -0.00000000000E+00 -0.74505805969E-08  0.93827000000E+00  0.93827000000E+00 0.  1.
     999902    2    1    2    0    0  0.23590301434E-01  0.41659655010E-02 -0.13220236365E-01  0.10165688553E+01  0.10162005734E+01 0.  0.
     999903    2    3    3    0    0  0.53834656052E-01 -0.17347563047E-01  0.11245539387E+00  0.12686558064E+00  0.15797208740E-01 0.  0.
         14    1    1    2    0    0 -0.23590301434E-01 -0.41659655010E-02  0.13220236365E-01  0.27361144710E-01  0.00000000000E+00 0. -1.
     999901    1    3    3    0    0 -0.30244354618E-01  0.21513528548E-01 -0.12567563023E+00  0.88970327465E+00  0.88000000000E+00 0.  1.
        -11    1    4    4    0    0  0.81579097147E-02 -0.72174268816E-03  0.71583417717E-02  0.10889232358E-01  0.51100000000E-03 0.  1.
         11    1    4    4    0    0  0.45676746338E-01 -0.16625820359E-01  0.10529705210E+00  0.11597634828E+00  0.51100000000E-03 0. -1.
</event>
<event>
 8    1  0.1122465E+005  0.1043930E+01  0.7957747E-01            NaN
         13   -1    0    0    0    0  0.00000000000E+00  0.00000000000E+00  0.74505805969E-08  0.10566000000E+00  0.10566000000E+00 0.  1.
     999900   -1    0    0    0    0 -0.00000000000E+00 -0.00000000000E+00 -0.74505805969E-08  0.93827000000E+00  0.93827000000E+00 0. -1.
     999902    2    1    2    0    0 -0.95613579089E-02  0.67969804019E-02  0.20081948645E-01  0.10206726749E+01  0.10204076667E+01 0.  0.
     999903    2    3    3    0    0  0.12380613413E+00  0.22237164608E-01 -0.23154533818E-01  0.12944056116E+00  0.19906684758E-01 0.  0.
         14    1    1    2    0    0  0.95613579089E-02 -0.67969804019E-02 -0.20081948645E-01  0.23257325062E-01  0.00000000000E+00 0. -1.
     999901    1    3    3    0    0 -0.13336749204E+00 -0.15440184206E-01  0.43236482462E-01  0.89123211378E+00  0.88000000000E+00 0.  1.
        -11    1    4    4    0    0  0.71233987322E-01  0.18735270462E-01 -0.21465544853E-01  0.76722369918E-01  0.51100000000E-03 0.  1.
         11    1    4    4    0    0  0.52572146808E-01  0.35018941457E-02 -0.16889889644E-02  0.52718191238E-01  0.51100000000E-03 0. -1.
</event>
<event>
 8    1  0.1122465E+005  0.1043930E+01  0.7957747E-01            NaN
         13   -1    0    0    0    0  0.00000000000E+00  0.00000000000E+00  0.74505805969E-08  0.10566000000E+00  0.10566000000E+00 0. -1.
     999900   -1    0    0    0    0 -0.00000000000E+00 -0.00000000000E+00 -0.74505805969E-08  0.93827000000E+00  0.93827000000E+00 0.  1.
     999902    2    1    2    0    0  0.58685140317E-02  0.22258489301E-01 -0.13686361820E-02  0.10208702305E+01  0.10206097563E+01 0.  0.
     999903    2    3    3    0    0 -0.28072956480E-01  0.89961349272E-01 -0.92169588332E-01  0.13296228847E+00  0.17395456109E-01 0.  0.
         14    1    1    2    0    0 -0.58685140317E-02 -0.22258489301E-01  0.13686361820E-02  0.23059769468E-01  0.00000000000E+00 0.  1.
     999901    1    3    3    0    0  0.33941470512E-01 -0.67702859970E-01  0.90800952150E-01  0.88790794206E+00  0.88000000000E+00 0. -1.
        -11    1    4    4    0    0 -0.72294879971E-02  0.52155823055E-01 -0.50322725455E-01  0.72836345278E-01  0.51100000000E-03 0. -1.
         11    1    4    4    0    0 -0.20843468483E-01  0.37805526217E-01 -0.41846862877E-01  0.60125943190E-01  0.51100000000E-03 0.  1.
</event>
<event>
 8    1  0.1122465E+005  0.1043930E+01  0.7957747E-01            NaN
         13   -1    0    0    0    0  0.00000000000E+00  0.00000000000E+00  0.74505805969E-08  0.10566000000E+00  0.10566000000E+00 0.  1.
     999900   -1    0    0    0    0 -0.00000000000E+00 -0.00000000000E+00 -0.74505805969E-08  0.93827000000E+00  0.93827000000E+00 0.  1.
     999902    2    1    2    0    0  0.11599032605E-01 -0.19888042003E-01  0.58588635563E-02  0.10201729368E+01  0.10198962804E+01 0.  0.
     999903    2    3    3    0    0  0.55828197165E-01  0.22602227317E-01  0.11494803305E+00  0.13131856798E+00  0.20096460274E-01 0.  0.
         14    1    1    2    0    0 -0.11599032605E-01  0.19888042003E-01 -0.58588635563E-02  0.23757063250E-01  0.00000000000E+00 0.  1.
     999901    1    3    3    0    0 -0.44229164560E-01 -0.42490269319E-01 -0.10908916949E+00  0.88885436877E+00  0.88000000000E+00 0.  1.
        -11    1    4    4    0    0  0.22681120016E-01  0.21355036948E-02  0.58029641333E-01  0.62343355503E-01  0.51100000000E-03 0.  1.
         11    1    4    4    0    0  0.33147077149E-01  0.20466723622E-01  0.56918391716E-01  0.68975212475E-01  0.51100000000E-03 0. -1.
</event>
<event>
 8    1  0.1122465E+005  0.1043930E+01  0.7957747E-01            NaN
         13   -1    0    0    0    0  0.00000000000E+00  0.00000000000E+00  0.74505805969E-08  0.10566000000E+00  0.10566000000E+00 0.  1.
     999900   -1    0    0    0    0 -0.00000000000E+00 -0.00000000000E+00 -0.74505805969E-08  0.93827000000E+00  0.93827000000E+00 0. -1.
     999902    2    1    2    0    0  0.90505543401E-02 -0.58110161905E-02 -0.21021776198E-01  0.10203165395E+01  0.10200432565E+01 0.  0.
     999903    2    3    3    0    0  0.18951526513E-02 -0.73870262263E-01  0.10387164919E+00  0.12886736625E+00  0.18896331115E-01 0.  0.
         14    1    1    2    0    0 -0.90505543401E-02  0.58110161905E-02  0.21021776198E-01  0.23613460516E-01  0.00000000000E+00 0.  1.
     999901    1    3    3    0    0  0.71554016887E-02  0.68059246072E-01 -0.12489342539E+00  0.89144917323E+00  0.88000000000E+00 0.  1.
        -11    1    4    4    0    0  0.95758109748E-02 -0.55515320863E-01  0.78354394378E-01  0.96505539974E-01  0.51100000000E-03 0.  1.
         11    1    4    4    0    0 -0.76806583234E-02 -0.18354941400E-01  0.25517254810E-01  0.32361826279E-01  0.51100000000E-03 0. -1.
</event>
<event>
 8    1  0.1122465E+005  0.1043930E+01  0.7957747E-01            NaN
         13   -1    0    0    0    0  0.00000000000E+00  0.00000000000E+00  0.74505805969E-08  0.10566000000E+00  0.10566000000E+00 0. -1.
     999900   -1    0    0    0    0 -0.00000000000E+00 -0.00000000000E+00 -0.74505805969E-08  0.93827000000E+00  0.93827000000E+00 0.  1.
     999902    2    1    2    0    0 -0.21165151790E-01  0.71646414159E-02  0.17242265182E-01  0.10157060484E+01  0.10153138358E+01 0.  0.
     999903    2    3    3    0    0  0.14798284707E-01 -0.87875542437E-01 -0.84067045064E-01  0.12408416570E+00  0.19710705805E-01 0.  0.
         14    1    1    2    0    0  0.21165151790E-01 -0.71646414159E-02 -0.17242265182E-01  0.28223951629E-01  0.00000000000E+00 0. -1.
     999901    1    3    3    0    0 -0.35963436497E-01  0.95040183852E-01  0.10130931025E+00  0.89162188267E+00  0.88000000000E+00 0.  1.
        -11    1    4    4    0    0  0.13633138911E-01 -0.26325133442E-01 -0.29323261178E-01  0.41701197758E-01  0.51100000000E-03 0. -1.
         11    1    4    4    0    0  0.11651457954E-02 -0.61550408995E-01 -0.54743783886E-01  0.82382967944E-01  0.51100000000E-03 0.  1.
</event>
<event>
 8    1  0.1122465E+005  0.1043930E+01  0.7957747E-01            NaN
         13   -1    0    0    0    0  0.00000000000E+00  0.00000000000E+00  0.74505805969E-08  0.10566000000E+00  0.10566000000E+00 0. -1.
     999900   -1    0    0    0    0 -0.00000000000E+00 -0.00000000000E+00 -0.74505805969E-08  0.93827000000E+00  0.93827000000E+00 0. -1.
     999902    2    1    2    0    0  0.16206828550E-02  0.23740661249E-01 -0.91331240423E-02  0.10184415798E+01  0.10181225820E+01 0.  0.
     999903    2    3    3    0    0  0.74789099773E-01 -0.99239957948E-01 -0.15822123371E-01  0.12685726374E+00  0.20011173818E-01 0.  0.
         14    1    1    2    0    0 -0.16206828550E-02 -0.23740661249E-01  0.91331240423E-02  0.25488420199E-01  0.00000000000E+00 0. -1.
     999901    1    3    3    0    0 -0.73168416918E-01  0.12298061920E+00  0.66889993291E-02  0.89158431606E+00  0.88000000000E+00 0. -1.
        -11    1    4    4    0    0  0.22234609027E-01 -0.44416114615E-01 -0.23799454009E-02  0.49730215536E-01  0.51100000000E-03 0. -1.
         11    1    4    4    0    0  0.52554490746E-01 -0.54823843333E-01 -0.13442177970E-01  0.77127048205E-01  0.51100000000E-03 0.  1.
</event>
<event>
 8    1  0.1122465E+005  0.1043930E+01  0.7957747E-01            NaN
         13   -1    0    0    0    0  0.00000000000E+00  0.00000000000E+00  0.74505805969E-08  0.10566000000E+00  0.10566000000E+00 0. -1.
     999900   -1    0    0    0    0 -0.00000000000E+00 -0.00000000000E+00 -0.74505805969E-08  0.93827000000E+00  0.93827000000E+00 0.  1.
     999902    2    1    2    0    0 -0.15719534444E-01 -0.61413993898E-02  0.18200985873E-01  0.10191087100E+01  0.10188063930E+01 0.  0.
     999903    2    3    3    0    0 -0.59407024419E-01 -0.50977958392E-01 -0.10024742916E+00  0.12896886661E+00  0.21341853433E-01 0.  0.
         14    1    1    2    0    0  0.15719534444E-01  0.61413993898E-02 -0.18200985873E-01  0.24821289982E-01  0.00000000000E+00 0.  1.
     999901    1    3    3    0    0  0.43687489975E-01  0.44836559002E-01  0.11844841504E+00  0.89013984341E+00  0.88000000000E+00 0. -1.
        -11    1    4    4    0    0 -0.20639359940E-01 -0.30820641673E-01 -0.40153014827E-01  0.54666450886E-01  0.51100000000E-03 0. -1.
         11    1    4    4    0    0 -0.38767664479E-01 -0.20157316720E-01 -0.60094414337E-01  0.74302415721E-01  0.51100000000E-03 0.  1.
</event>
<event>
 8    1  0.1122465E+005  0.1043930E+01  0.7957747E-01            NaN
         13   -1    0    0    0    0  0.00000000000E+00  0.00000000000E+00  0.74505805969E-08  0.10566000000E+00  0.10566000000E+00 0.  1.
     999900   -1    0    0    0    0 -0.00000000000E+00 -0.00000000000E+00 -0.74505805969E-08  0.93827000000E+00  0.93827000000E+00 0. -1.
     999902    2    1    2    0    0  0.14329507344E-01  0.48528761833E-02 -0.18214792672E-01  0.10202516584E+01  0.10199768540E+01 0.  0.
     999903    2    3    3    0    0 -0.60720898565E-01 -0.17779575669E-01  0.10909875371E+00  0.12764114403E+00  0.19661707796E-01 0.  0.
         14    1    1    2    0    0 -0.14329507344E-01 -0.48528761833E-02  0.18214792672E-01  0.23678341582E-01  0.00000000000E+00 0.  1.
     999901    1    3    3    0    0  0.75050405909E-01  0.22632451853E-01 -0.12731354639E+00  0.89261051439E+00  0.88000000000E+00 0. -1.
        -11    1    4    4    0    0 -0.32507242462E-01 -0.19530027441E-01  0.65090186360E-01  0.75333500288E-01  0.51100000000E-03 0. -1.
         11    1    4    4    0    0 -0.28213656103E-01  0.17504517711E-02  0.44008567355E-01  0.52307643741E-01  0.51100000000E-03 0.  1.
</event>
<event>
 8    1  0.1122465E+005  0.1043930E+01  0.7957747E-01            NaN
         13   -1    0    0    0    0  0.00000000000E+00  0.00000000000E+00  0.74505805969E-08  0.10566000000E+00  0.10566000000E+00 0. -1.
     999900   -1    0    0    0    0 -0.00000000000E+00 -0.00000000000E+00 -0.74505805969E-08  0.93827000000E+00  0.93827000000E+00 0. -1.
     999902    2    1    2    0    0  0.20772396024E-01 -0.96287376045E-02  0.78585115572E-02  0.10197233640E+01  0.10194360097E+01 0.  0.
     999903    2    3    3    0    0  0.11567472384E+00  0.57939476012E-01  0.17056229457E-01  0.13199789213E+00  0.19872190300E-01 0.  0.
         14    1    1    2    0    0 -0.20772396024E-01  0.96287376045E-02 -0.78585115572E-02  0.24206636039E-01  0.00000000000E+00 0. -1.
     999901    1    3    3    0    0 -0.94902327821E-01 -0.67568213616E-01 -0.91977178997E-02  0.88772547183E+00  0.88000000000E+00 0. -1.
        -11    1    4    4    0    0  0.38806082554E-01  0.11726438579E-01  0.11461632824E-01  0.42131360683E-01  0.51100000000E-03 0. -1.
         11    1    4    4    0    0  0.76868641290E-01  0.46213037432E-01  0.55945966334E-02  0.89866531451E-01  0.51100000000E-03 0.  1.
</event>
<event>
 8    1  0.1122465E+005  0.1043930E+01  0.7957747E-01            NaN
         13   -1    0    0    0    0  0.00000000000E+00  0.00000000000E+00  0.74505805969E-08  0.10566000000E+00  0.10566000000E+00 0.  1.
     999900   -1    0    0    0    0 -0.00000000000E+00 -0.00000000000E+00 -0.74505805969E-08  0.93827000000E+00  0.93827000000E+00 0. -1.
     999902    2    1    2    0    0 -0.12291221723E-01  0.11015644284E-01 -0.18759275432E-01  0.10189434243E+01  0.10186370173E+01 0.  0.
     999903    2    3    3    0    0  0.85683094638E-01 -0.78678014602E-01  0.45891386532E-01  0.12662978706E+00  0.19931405488E-01 0.  0.
         14    1    1    2    0    0  0.12291221723E-01 -0.11015644284E-01  0.18759275432E-01  0.24986575700E-01  0.00000000000E+00 0.  1.
     999901    1    3    3    0    0 -0.97974316361E-01  0.89693658887E-01 -0.64650661964E-01  0.89231363724E+00  0.88000000000E+00 0.  1.
        -11    1    4    4    0    0  0.18758308742E-01 -0.28630063387E-01  0.98649030643E-02  0.35624880489E-01  0.51100000000E-03 0. -1.
         11    1    4    4    0    0  0.66924785896E-01 -0.50047951216E-01  0.36026483468E-01  0.91004906572E-01  0.51100000000E-03 0.  1.
</event>
<event>
 8    1  0.1122465E+005  0.1043930E+01  0.7957747E-01            NaN
         13   -1    0    0    0    0  0.00000000000E+00  0.00000000000E+00  0.74505805969E-08  0.10566000000E+00  0.10566000000E+00 0.  1.
     999900   -1    0    0    0    0 -0.00000000000E+00 -0.00000000000E+00 -0.74505805969E-08  0.93827000000E+00  0.93827000000E+00 0. -1.
     999902    2    1    2    0    0 -0.99635356955E-02 -0.21004463306E-01  0.12960312706E-02  0.10206461167E+01  0.10203804959E+01 0.  0.
     999903    2    3    3    0    0  0.19761533643E-01  0.12386765571E+00  0.16981401872E-01  0.12816780246E+00  0.20122207518E-01 0.  0.
         14    1    1    2    0    0  0.99635356955E-02  0.21004463306E-01 -0.12960312706E-02  0.23283883254E-01  0.00000000000E+00 0.  1.
     999901    1    3    3    0    0 -0.29725069338E-01 -0.14487211902E+00 -0.15685370602E-01  0.89247831428E+00  0.88000000000E+00 0.  1.
        -11    1    4    4    0    0  0.14012635750E-01  0.55910663837E-01  0.16526998785E-01  0.59964648763E-01  0.51100000000E-03 0. -1.
         11    1    4    4    0    0  0.57488978924E-02  0.67956991873E-01  0.45440308724E-03  0.68203153700E-01  0.51100000000E-03 0.  1.
</event>
<event>
 8    1  0.1122465E+005  0.1043930E+01  0.7957747E-01            NaN
         13   -1    0    0    0    0  0.00000000000E+00  0.00000000000E+00  0.74505805969E-08  0.10566000000E+00  0.10566000000E+00 0. -1.
     999900   -1    0    0    0    0 -0.00000000000E+00 -0.00000000000E+00 -0.74505805969E-08  0.93827000000E+00  0.93827000000E+00 0. -1.
     999902    2    1    2    0    0  0.18140300402E-01 -0.64905322114E-03 -0.14327315468E-01  0.10208050408E+01  0.10205430748E+01 0.  0.
     999903    2    3    3    0    0 -0.49804848031E-02  0.11516318669E+00 -0.60666807681E-01  0.13170752414E+00  0.19469092529E-01 0.  0.
         14    1    1    2    0    0 -0.18140300402E-01  0.64905322114E-03  0.14327315468E-01  0.23124959185E-01  0.00000000000E+00 0. -1.
     999901    1    3    3    0    0  0.23120785205E-01 -0.11581223991E+00  0.46339492213E-01  0.88909751668E+00  0.88000000000E+00 0. -1.
        -11    1    4    4    0    0 -0.11563340498E-01  0.92730866467E-01 -0.46690430221E-01  0.10446521830E+00  0.51100000000E-03 0.  1.
         11    1    4    4    0    0  0.65828556945E-02  0.22432320220E-01 -0.13976377460E-01  0.27242305839E-01  0.51100000000E-03 0. -1.
</event>
<event>
 8    1  0.1122465E+005  0.1043930E+01  0.7957747E-01            NaN
         13   -1    0    0    0    0  0.00000000000E+00  0.00000000000E+00  0.74505805969E-08  0.10566000000E+00  0.10566000000E+00 0.  1.
     999900   -1    0    0    0    0 -0.00000000000E+00 -0.00000000000E+00 -0.74505805969E-08  0.93827000000E+00  0.93827000000E+00 0.  1.
     999902    2    1    2    0    0  0.22295885742E-01  0.86186813477E-02 -0.86274490848E-02  0.10185169902E+01  0.10181999009E+01 0.  0.
     999903    2    3    3    0    0 -0.15476433250E-01 -0.82835743725E-01  0.93404064430E-01  0.12711299106E+00  0.18223962757E-01 0.  0.
         14    1    1    2    0    0 -0.22295885742E-01 -0.86186813477E-02  0.86274490848E-02  0.25413009796E-01  0.00000000000E+00 0. -1.
     999901    1    3    3    0    0  0.37772318991E-01  0.91454425072E-01 -0.10203151351E+00  0.89140399915E+00  0.88000000000E+00 0.  1.
        -11    1    4    4    0    0  0.30177142867E-02 -0.11163560817E-01  0.78735551249E-02  0.13999488596E-01  0.51100000000E-03 0.  1.
         11    1    4    4    0    0 -0.18494147536E-01 -0.71672182907E-01  0.85530509305E-01  0.11311350246E+00  0.51100000000E-03 0. -1.
</event>
<event>
 8    1  0.1122465E+005  0.1043930E+01  0.7957747E-01            NaN
         13   -1    0    0    0    0  0.00000000000E+00  0.00000000000E+00  0.74505805969E-08  0.10566000000E+00  0.10566000000E+00 0. -1.
     999900   -1    0    0    0    0 -0.00000000000E+00 -0.00000000000E+00 -0.74505805969E-08  0.93827000000E+00  0.93827000000E+00 0.  1.
     999902    2    1    2    0    0  0.25077591786E-01  0.46720903714E-02  0.97254886517E-02  0.10166298321E+01  0.10162632121E+01 0.  0.
     999903    2    3    3    0    0 -0.87238099879E-01  0.26338109947E-01 -0.82665505476E-01  0.12443011970E+00  0.18576511699E-01 0.  0.
         14    1    1    2    0    0 -0.25077591786E-01 -0.46720903714E-02 -0.97254886517E-02  0.27300167907E-01  0.00000000000E+00 0.  1.
     999901    1    3    3    0    0  0.11231569167E+00 -0.21666019575E-01  0.92390994128E-01  0.89219971239E+00  0.88000000000E+00 0.  1.
        -11    1    4    4    0    0 -0.58563346084E-01  0.15651087425E-01 -0.65867053654E-01  0.89517327486E-01  0.51100000000E-03 0. -1.
         11    1    4    4    0    0 -0.28674753795E-01  0.10687022522E-01 -0.16798451822E-01  0.34912792214E-01  0.51100000000E-03 0.  1.
</event>
<event>
 8    1  0.1122465E+005  0.1043930E+01  0.7957747E-01            NaN
         13   -1    0    0    0    0  0.00000000000E+00  0.00000000000E+00  0.74505805969E-08  0.10566000000E+00  0.10566000000E+00 0.  1.
     999900   -1    0    0    0    0 -0.00000000000E+00 -0.00000000000E+00 -0.74505805969E-08  0.93827000000E+00  0.93827000000E+00 0. -1.
     999902    2    1    2    0    0  0.12501790086E-01  0.20056928313E-01  0.30807941865E-02  0.10200958560E+01  0.10198173802E+01 0.  0.
     999903    2    3    3    0    0  0.11286681269E+00 -0.36496404096E-01 -0.51742863473E-01  0.13089562509E+00  0.19632519611E-01 0.  0.
         14    1    1    2    0    0 -0.12501790086E-01 -0.20056928313E-01 -0.30807941865E-02  0.23834144028E-01  0.00000000000E+00 0. -1.
     999901    1    3    3    0    0 -0.10036502261E+00  0.56553332409E-01  0.54823657659E-01  0.88920023089E+00  0.88000000000E+00 0. -1.
        -11    1    4    4    0    0  0.47436335518E-01 -0.11542142742E-01 -0.11621154973E-01  0.50187043650E-01  0.51100000000E-03 0.  1.
         11    1    4    4    0    0  0.65430477177E-01 -0.24954261354E-01 -0.40121708500E-01  0.80708581435E-01  0.51100000000E-03 0. -1.
</event>
<event>
 8    1  0.1122465E+005  0.1043930E+01  0.7957747E-01            NaN
         13   -1    0    0    0    0  0.00000000000E+00  0.00000000000E+00  0.74505805969E-08  0.10566000000E+00  0.10566000000E+00 0.  1.
     999900   -1    0    0    0    0 -0.00000000000E+00 -0.00000000000E+00 -0.74505805969E-08  0.93827000000E+00  0.93827000000E+00 0. -1.
     999902    2    1    2    0    0  0.14383554408E-02  0.95427307642E-02  0.17653880194E-01  0.10238105551E+01  0.10236128471E+01 0.  0.
     999903    2    3    3    0    0  0.43611897828E-01 -0.10986341568E+00  0.59346380985E-01  0.13376858975E+00  0.20001873123E-01 0.  0.
         14    1    1    2    0    0 -0.14383554408E-02 -0.95427307642E-02 -0.17653880194E-01  0.20119444890E-01  0.00000000000E+00 0. -1.
     999901    1    3    3    0    0 -0.42173542387E-01  0.11940614645E+00 -0.41692500791E-01  0.89004196536E+00  0.88000000000E+00 0. -1.
        -11    1    4    4    0    0  0.18551464841E-01 -0.45161285534E-01  0.13694686007E-01  0.50710000046E-01  0.51100000000E-03 0. -1.
         11    1    4    4    0    0  0.25060432987E-01 -0.64702130150E-01  0.45651694978E-01  0.83058589699E-01  0.51100000000E-03 0.  1.
</event>
<event>
 8    1  0.1122465E+005  0.1043930E+01  0.7957747E-01            NaN
         13   -1    0    0    0    0  0.00000000000E+00  0.00000000000E+00  0.74505805969E-08  0.10566000000E+00  0.10566000000E+00 0. -1.
     999900   -1    0    0    0    0 -0.00000000000E+00 -0.00000000000E+00 -0.74505805969E-08  0.93827000000E+00  0.93827000000E+00 0. -1.
     999902    2    1    2    0    0  0.23656233374E-01 -0.23961875025E-02  0.32799556093E-02  0.10199275584E+01  0.10196450889E+01 0.  0.
     999903    2    3    3    0    0  0.97697024862E-01 -0.58417165543E-01  0.65428498079E-01  0.13286339497E+00  0.20359751102E-01 0.  0.
         14    1    1    2    0    0 -0.23656233374E-01  0.23961875025E-02 -0.32799556093E-02  0.24002441559E-01  0.00000000000E+00 0.  1.
     999901    1    3    3    0    0 -0.74040791489E-01  0.56020978040E-01 -0.62148542470E-01  0.88706416347E+00  0.88000000000E+00 0.  1.
        -11    1    4    4    0    0  0.60113871065E-01 -0.39996435965E-01  0.51720358290E-01  0.88818066670E-01  0.51100000000E-03 0. -1.
         11    1    4    4    0    0  0.37583153798E-01 -0.18420729578E-01  0.13708139789E-01  0.44045328300E-01  0.51100000000E-03 0.  1.
</event>
<event>
 8    1  0.1143129E+005  0.1043930E+01  0.7957747E-01            NaN
         13   -1    0    0    0    0  0.00000000000E+00  0.00000000000E+00  0.74505805969E-08  0.10566000000E+00  0.10566000000E+00 0. -1.
     999900   -1    0    0    0    0 -0.00000000000E+00 -0.00000000000E+00 -0.74505805969E-08  0.93827000000E+00  0.93827000000E+00 0. -1.
     999902    2    1    2    0    0 -0.22248519319E-02 -0.15207359228E-01  0.17876705388E-01  0.10203547940E+01  0.10200824062E+01 0.  0.
     999903    2    3    3    0    0 -0.10869603759E+00  0.35862830982E-03  0.71266844325E-01  0.13219438044E+00  0.24112940850E-01 0.  0.
         14    1    1    2    0    0  0.22248519319E-02  0.15207359228E-01 -0.17876705388E-01  0.23575205966E-01  0.00000000000E+00 0.  1.
     999901    1    3    3    0    0  0.10647118566E+00 -0.15565987538E-01 -0.53390138937E-01  0.88816041360E+00  0.88000000000E+00 0. -1.
        -11    1    4    4    0    0 -0.87486359092E-01  0.97118156726E-02  0.58934486784E-01  0.10593260709E+00  0.51100000000E-03 0. -1.
         11    1    4    4    0    0 -0.21209678501E-01 -0.93531873628E-02  0.12332357541E-01  0.26261773350E-01  0.51100000000E-03 0.  1.
</event>
<event>
 8    1  0.1122465E+005  0.1043930E+01  0.7957747E-01            NaN
         13   -1    0    0    0    0  0.00000000000E+00  0.00000000000E+00  0.74505805969E-08  0.10566000000E+00  0.10566000000E+00 0.  1.
     999900   -1    0    0    0    0 -0.00000000000E+00 -0.00000000000E+00 -0.74505805969E-08  0.93827000000E+00  0.93827000000E+00 0. -1.
     999902    2    1    2    0    0  0.17156924674E-01  0.12371895265E-01 -0.10043663144E-01  0.10205142142E+01  0.10202455402E+01 0.  0.
     999903    2    3    3    0    0  0.63028653038E-01 -0.40951450541E-01 -0.10711903422E+00  0.13238628288E+00  0.20050137052E-01 0.  0.
         14    1    1    2    0    0 -0.17156924674E-01 -0.12371895265E-01  0.10043663144E-01  0.23415785831E-01  0.00000000000E+00 0.  1.
     999901    1    3    3    0    0 -0.45871728364E-01  0.53323345806E-01  0.97075371080E-01  0.88812793129E+00  0.88000000000E+00 0.  1.
        -11    1    4    4    0    0  0.32252258392E-01 -0.27349723369E-01 -0.45104675657E-01  0.61829672705E-01  0.51100000000E-03 0.  1.
         11    1    4    4    0    0  0.30776394646E-01 -0.13601727172E-01 -0.62014358567E-01  0.70556610172E-01  0.51100000000E-03 0. -1.
</event>
<event>
 8    1  0.1122465E+005  0.1043930E+01  0.7957747E-01            NaN
         13   -1    0    0    0    0  0.00000000000E+00  0.00000000000E+00  0.74505805969E-08  0.10566000000E+00  0.10566000000E+00 0. -1.
     999900   -1    0    0    0    0 -0.00000000000E+00 -0.00000000000E+00 -0.74505805969E-08  0.93827000000E+00  0.93827000000E+00 0.  1.
     999902    2    1    2    0    0 -0.49797328333E-02 -0.14704339106E-01  0.16324413682E-01  0.10214021992E+01  0.10211537351E+01 0.  0.
     999903    2    3    3    0    0 -0.10862416915E+00 -0.34663975412E-01 -0.62545460758E-01  0.13159266150E+00  0.20097078971E-01 0.  0.
         14    1    1    2    0    0  0.49797328333E-02  0.14704339106E-01 -0.16324413682E-01  0.22527800818E-01  0.00000000000E+00 0. -1.
     999901    1    3    3    0    0  0.10364443632E+00  0.19959636307E-01  0.78869874440E-01  0.88980953769E+00  0.88000000000E+00 0. -1.
        -11    1    4    4    0    0 -0.50273282578E-01 -0.57483940397E-02 -0.25420187747E-01  0.56629445003E-01  0.51100000000E-03 0. -1.
         11    1    4    4    0    0 -0.58350886573E-01 -0.28915581373E-01 -0.37125273011E-01  0.74963216494E-01  0.51100000000E-03 0.  1.
</event>
<event>
 8    1  0.1122465E+005  0.1043930E+01  0.7957747E-01            NaN
         13   -1    0    0    0    0  0.00000000000E+00  0.00000000000E+00  0.74505805969E-08  0.10566000000E+00  0.10566000000E+00 0.  1.
     999900   -1    0    0    0    0 -0.00000000000E+00 -0.00000000000E+00 -0.74505805969E-08  0.93827000000E+00  0.93827000000E+00 0.  1.
     999902    2    1    2    0    0 -0.41660228149E-02 -0.19499313800E-01  0.12029909606E-01  0.10206427136E+01  0.10203770142E+01 0.  0.
     999903    2    3    3    0    0  0.27536858929E-01 -0.45436822940E-01  0.12045236524E+00  0.13304299748E+00  0.19206337700E-01 0.  0.
         14    1    1    2    0    0  0.41660228149E-02  0.19499313800E-01 -0.12029909606E-01  0.23287286444E-01  0.00000000000E+00 0. -1.
     999901    1    3    3    0    0 -0.31702881744E-01  0.25937509140E-01 -0.10842245564E+00  0.88759971608E+00  0.88000000000E+00 0.  1.
        -11    1    4    4    0    0  0.27098482545E-01 -0.46995065316E-01  0.11909628676E+00  0.13087035784E+00  0.51100000000E-03 0.  1.
         11    1    4    4    0    0  0.43837638429E-03  0.15582423760E-02  0.13560784798E-02  0.21726396387E-02  0.51100000000E-03 0. -1.
</event>
<event>
 8    1  0.1122465E+005  0.1043930E+01  0.7957747E-01            NaN
         13   -1    0    0    0    0  0.00000000000E+00  0.00000000000E+00  0.74505805969E-08  0.10566000000E+00  0.10566000000E+00 0.  1.
     999900   -1    0    0    0    0 -0.00000000000E+00 -0.00000000000E+00 -0.74505805969E-08  0.93827000000E+00  0.93827000000E+00 0.  1.
     999902    2    1    2    0    0  0.11818198418E-01  0.18876329786E-01  0.12785893226E-01  0.10182499551E+01  0.10179260810E+01 0.  0.
     999903    2    3    3    0    0  0.77508243095E-01  0.76853371509E-01 -0.68082245474E-01  0.13020931685E+00  0.20132202728E-01 0.  0.
         14    1    1    2    0    0 -0.11818198418E-01 -0.18876329786E-01 -0.12785893226E-01  0.25680044891E-01  0.00000000000E+00 0.  1.
     999901    1    3    3    0    0 -0.65690044677E-01 -0.57977041723E-01  0.80868138700E-01  0.88804063826E+00  0.88000000000E+00 0. -1.
        -11    1    4    4    0    0  0.47267644623E-01  0.58033619538E-01 -0.51909244885E-01  0.91087661351E-01  0.51100000000E-03 0. -1.
         11    1    4    4    0    0  0.30240598472E-01  0.18819751971E-01 -0.16173000589E-01  0.39121655502E-01  0.51100000000E-03 0.  1.
</event>
<event>
 8    1  0.1122465E+005  0.1043930E+01  0.7957747E-01            NaN
         13   -1    0    0    0    0  0.00000000000E+00  0.00000000000E+00  0.74505805969E-08  0.10566000000E+00  0.10566000000E+00 0.  1.
     999900   -1    0    0    0    0 -0.00000000000E+00 -0.00000000000E+00 -0.74505805969E-08  0.93827000000E+00  0.93827000000E+00 0.  1.
     999902    2    1    2    0    0  0.13678138025E-01  0.17006995049E-01  0.49522141623E-02  0.10215502376E+01  0.10213050642E+01 0.  0.
     999903    2    3    3    0    0  0.70484663866E-01 -0.82298833581E-01 -0.71043766342E-01  0.13089653495E+00  0.18587637724E-01 0.  0.
         14    1    1    2    0    0 -0.13678138025E-01 -0.17006995049E-01 -0.49522141623E-02  0.22379762410E-01  0.00000000000E+00 0. -1.
     999901    1    3    3    0    0 -0.56806525841E-01  0.99305828630E-01  0.75995980504E-01  0.89065370264E+00  0.88000000000E+00 0. -1.
        -11    1    4    4    0    0  0.73143613737E-02 -0.18780866150E-01 -0.10116185742E-01  0.22557019985E-01  0.51100000000E-03 0. -1.
         11    1    4    4    0    0  0.63170302492E-01 -0.63517967431E-01 -0.60927580599E-01  0.10833951496E+00  0.51100000000E-03 0.  1.
</event>
<event>
 8    1  0.1122465E+005  0.1043930E+01  0.7957747E-01            NaN
         13   -1    0    0    0    0  0.00000000000E+00  0.00000000000E+00  0.74505805969E-08  0.10566000000E+00  0.10566000000E+00 0.  1.
     999900   -1    0    0    0    0 -0.00000000000E+00 -0.00000000000E+00 -0.74505805969E-08  0.93827000000E+00  0.93827000000E+00 0.  1.
     999902    2    1    2    0    0 -0.12572348040E-01  0.15227734919E-01  0.14185670877E-01  0.10196157839E+01  0.10193258388E+01 0.  0.
     999903    2    3    3    0    0  0.84924372589E-02  0.30299913859E-01  0.12667064979E+00  0.13207774740E+00  0.20220572948E-01 0.  0.
         14    1    1    2    0    0  0.12572348040E-01 -0.15227734919E-01 -0.14185670877E-01  0.24314216093E-01  0.00000000000E+00 0. -1.
     999901    1    3    3    0    0 -0.21064785299E-01 -0.15072178941E-01 -0.11248497891E+00  0.88753803650E+00  0.88000000000E+00 0.  1.
        -11    1    4    4    0    0  0.13801399589E-01  0.23208589958E-01  0.76470066896E-01  0.81099010663E-01  0.51100000000E-03 0. -1.
         11    1    4    4    0    0 -0.53089623298E-02  0.70913239011E-02  0.50200582895E-01  0.50978736741E-01  0.51100000000E-03 0.  1.
</event>
<event>
 8    1  0.1122465E+005  0.1043930E+01  0.7957747E-01            NaN
         13   -1    0    0    0    0  0.00000000000E+00  0.00000000000E+00  0.74505805969E-08  0.10566000000E+00  0.10566000000E+00 0. -1.
     999900   -1    0    0    0    0 -0.00000000000E+00 -0.00000000000E+00 -0.74505805969E-08  0.93827000000E+00  0.93827000000E+00 0. -1.
     999902    2    1    2    0    0 -0.14019674229E-01 -0.13357486787E-01  0.14121435480E-01  0.10199635931E+01  0.10196819811E+01 0.  0.
     999903    2    3    3    0    0 -0.46623524491E-01 -0.45177254822E-01  0.11437782141E+00  0.13310010215E+00  0.20460053085E-01 0.  0.
         14    1    1    2    0    0  0.14019674229E-01  0.13357486787E-01 -0.14121435480E-01  0.23966406880E-01  0.00000000000E+00 0. -1.
     999901    1    3    3    0    0  0.32603850262E-01  0.31819768036E-01 -0.10025638593E+00  0.88686349097E+00  0.88000000000E+00 0. -1.
        -11    1    4    4    0    0 -0.40040696480E-01 -0.35954463462E-01  0.76307440434E-01  0.93375946603E-01  0.51100000000E-03 0.  1.
         11    1    4    4    0    0 -0.65828280104E-02 -0.92227913604E-02  0.38070380981E-01  0.39724155549E-01  0.51100000000E-03 0. -1.
</event>
<event>
 8    1  0.1122465E+005  0.1043930E+01  0.7957747E-01            NaN
         13   -1    0    0    0    0  0.00000000000E+00  0.00000000000E+00  0.74505805969E-08  0.10566000000E+00  0.10566000000E+00 0. -1.
     999900   -1    0    0    0    0 -0.00000000000E+00 -0.00000000000E+00 -0.74505805969E-08  0.93827000000E+00  0.93827000000E+00 0. -1.
     999902    2    1    2    0    0  0.57083608897E-03  0.10510453140E-01  0.21154935186E-01  0.10203010609E+01  0.10200274154E+01 0.  0.
     999903    2    3    3    0    0 -0.11736036224E-01 -0.25862283299E-01 -0.12299114801E+00  0.12774712510E+00  0.19644674540E-01 0.  0.
         14    1    1    2    0    0 -0.57083608897E-03 -0.10510453140E-01 -0.21154935186E-01  0.23628939074E-01  0.00000000000E+00 0.  1.
     999901    1    3    3    0    0  0.12306872313E-01  0.36372736438E-01  0.14414608320E+00  0.89255393583E+00  0.88000000000E+00 0.  1.
        -11    1    4    4    0    0  0.35626456908E-02 -0.50391342435E-02 -0.94237580489E-02  0.11276242947E-01  0.51100000000E-03 0.  1.
         11    1    4    4    0    0 -0.15298681915E-01 -0.20823149055E-01 -0.11356738996E+00  0.11647088215E+00  0.51100000000E-03 0. -1.
</event>
<event>
 8    1  0.1122465E+005  0.1043930E+01  0.7957747E-01            NaN
         13   -1    0    0    0    0  0.00000000000E+00  0.00000000000E+00  0.74505805969E-08  0.10566000000E+00  0.10566000000E+00 0.  1.
     999900   -1    0    0    0    0 -0.00000000000E+00 -0.00000000000E+00 -0.74505805969E-08  0.93827000000E+00  0.93827000000E+00 0. -1.
     999902    2    1    2    0    0 -0.19228732802E-01 -0.11803417254E-01  0.15641558788E-01  0.10164759805E+01  0.10161051598E+01 0.  0.
     999903    2    3    3    0    0  0.26104532051E-01 -0.43258040724E-01 -0.11295213734E+00  0.12541995708E+00  0.20476220906E-01 0.  0.
         14    1    1    2    0    0  0.19228732802E-01  0.11803417254E-01 -0.15641558788E-01  0.27454019475E-01  0.00000000000E+00 0. -1.
     999901    1    3    3    0    0 -0.45333264852E-01  0.31454623470E-01  0.12859369613E+00  0.89105602345E+00  0.88000000000E+00 0.  1.
        -11    1    4    4    0    0  0.81682931743E-02 -0.66098100324E-03 -0.19636108146E-01  0.21283697362E-01  0.51100000000E-03 0. -1.
         11    1    4    4    0    0  0.17936238877E-01 -0.42597059721E-01 -0.93316029194E-01  0.10413625971E+00  0.51100000000E-03 0.  1.
</event>
<event>
 8    1  0.1122465E+005  0.1043930E+01  0.7957747E-01            NaN
         13   -1    0    0    0    0  0.00000000000E+00  0.00000000000E+00  0.74505805969E-08  0.10566000000E+00  0.10566000000E+00 0. -1.
     999900   -1    0    0    0    0 -0.00000000000E+00 -0.00000000000E+00 -0.74505805969E-08  0.93827000000E+00  0.93827000000E+00 0. -1.
     999902    2    1    2    0    0 -0.78764231797E-02  0.13320809737E-01  0.16660736006E-01  0.10211909996E+01  0.10209378020E+01 0.  0.
     999903    2    3    3    0    0 -0.12063317825E+00  0.36592468786E-01  0.38781940018E-01  0.13341568818E+00  0.20108070887E-01 0.  0.
         14    1    1    2    0    0  0.78764231797E-02 -0.13320809737E-01 -0.16660736006E-01  0.22739000383E-01  0.00000000000E+00 0.  1.
     999901    1    3    3    0    0  0.11275675507E+00 -0.23271659049E-01 -0.22121204012E-01  0.88777531144E+00  0.88000000000E+00 0. -1.
        -11    1    4    4    0    0 -0.35800522347E-01  0.50387329561E-02  0.37130808743E-02  0.36347136348E-01  0.51100000000E-03 0. -1.
         11    1    4    4    0    0 -0.84832655903E-01  0.31553735830E-01  0.35068859143E-01  0.97068551833E-01  0.51100000000E-03 0.  1.
</event>
<event>
 8    1  0.1122465E+005  0.1043930E+01  0.7957747E-01            NaN
         13   -1    0    0    0    0  0.00000000000E+00  0.00000000000E+00  0.74505805969E-08  0.10566000000E+00  0.10566000000E+00 0.  1.
     999900   -1    0    0    0    0 -0.00000000000E+00 -0.00000000000E+00 -0.74505805969E-08  0.93827000000E+00  0.93827000000E+00 0.  1.
     999902    2    1    2    0    0 -0.98434990044E-02 -0.12526516852E-01  0.12365106335E-01  0.10237630976E+01  0.10235644465E+01 0.  0.
     999903    2    3    3    0    0  0.86727031398E-01  0.91718075362E-01 -0.30296805926E-01  0.13134344235E+00  0.19985496629E-01 0.  0.
         14    1    1    2    0    0  0.98434990044E-02  0.12526516852E-01 -0.12365106335E-01  0.20166902384E-01  0.00000000000E+00 0. -1.
     999901    1    3    3    0    0 -0.96570530403E-01 -0.10424459221E+00  0.42661912261E-01  0.89241965527E+00  0.88000000000E+00 0. -1.
        -11    1    4    4    0    0  0.34519144180E-01  0.44775587993E-01 -0.21900418534E-01  0.60632615381E-01  0.51100000000E-03 0.  1.
         11    1    4    4    0    0  0.52207887219E-01  0.46942487369E-01 -0.83963873920E-02  0.70710826968E-01  0.51100000000E-03 0. -1.
</event>
<event>
 8    1  0.1122465E+005  0.1043930E+01  0.7957747E-01            NaN
         13   -1    0    0    0    0  0.00000000000E+00  0.00000000000E+00  0.74505805969E-08  0.10566000000E+00  0.10566000000E+00 0. -1.
     999900   -1    0    0    0    0 -0.00000000000E+00 -0.00000000000E+00 -0.74505805969E-08  0.93827000000E+00  0.93827000000E+00 0. -1.
     999902    2    1    2    0    0  0.16070474318E-01 -0.10405135325E-01  0.13157318063E-01  0.10206998040E+01  0.10204354208E+01 0.  0.
     999903    2    3    3    0    0 -0.11706160881E+00 -0.15453037681E-01  0.50414996990E-01  0.12989243568E+00  0.19701682504E-01 0.  0.
         14    1    1    2    0    0 -0.16070474318E-01  0.10405135325E-01 -0.13157318063E-01  0.23230195965E-01  0.00000000000E+00 0. -1.
     999901    1    3    3    0    0  0.13313208313E+00  0.50479023557E-02 -0.37257678927E-01  0.89080736836E+00  0.88000000000E+00 0. -1.
        -11    1    4    4    0    0 -0.82576277428E-01 -0.83404251328E-02  0.25756683047E-01  0.86902658923E-01  0.51100000000E-03 0.  1.
         11    1    4    4    0    0 -0.34485331386E-01 -0.71126125483E-02  0.24658313943E-01  0.42989776757E-01  0.51100000000E-03 0. -1.
</event>
<event>
 8    1  0.1122465E+005  0.1043930E+01  0.7957747E-01            NaN
         13   -1    0    0    0    0  0.00000000000E+00  0.00000000000E+00  0.74505805969E-08  0.10566000000E+00  0.10566000000E+00 0.  1.
     999900   -1    0    0    0    0 -0.00000000000E+00 -0.00000000000E+00 -0.74505805969E-08  0.93827000000E+00  0.93827000000E+00 0.  1.
     999902    2    1    2    0    0 -0.54205770959E-02  0.79520706320E-02  0.24703726436E-01  0.10174178861E+01  0.10170723980E+01 0.  0.
     999903    2    3    3    0    0 -0.10176663140E+00  0.76802503381E-01  0.96101183717E-02  0.12935777481E+00  0.19647079572E-01 0.  0.
         14    1    1    2    0    0  0.54205770959E-02 -0.79520706320E-02 -0.24703726436E-01  0.26512113896E-01  0.00000000000E+00 0. -1.
     999901    1    3    3    0    0  0.96346054307E-01 -0.68850432749E-01  0.15093608065E-01  0.88806011130E+00  0.88000000000E+00 0. -1.
        -11    1    4    4    0    0 -0.44894437725E-01  0.22881761170E-01  0.75861268972E-02  0.50959748578E-01  0.51100000000E-03 0.  1.
         11    1    4    4    0    0 -0.56872193678E-01  0.53920742211E-01  0.20239914745E-02  0.78398026230E-01  0.51100000000E-03 0. -1.
</event>
<event>
 8    1  0.1122465E+005  0.1043930E+01  0.7957747E-01            NaN
         13   -1    0    0    0    0  0.00000000000E+00  0.00000000000E+00  0.74505805969E-08  0.10566000000E+00  0.10566000000E+00 0. -1.
     999900   -1    0    0    0    0 -0.00000000000E+00 -0.00000000000E+00 -0.74505805969E-08  0.93827000000E+00  0.93827000000E+00 0. -1.
     999902    2    1    2    0    0 -0.39049220151E-02  0.12554403798E-01  0.15616092579E-01  0.10235161856E+01  0.10233125907E+01 0.  0.
     999903    2    3    3    0    0 -0.97203208944E-01 -0.12437796344E-01 -0.86867332378E-01  0.13231921927E+00  0.18954676134E-01 0.  0.
         14    1    1    2    0    0  0.39049220151E-02 -0.12554403798E-01 -0.15616092579E-01  0.20413814394E-01  0.00000000000E+00 0.  1.
     999901    1    3    3    0    0  0.93298286929E-01  0.24992200142E-01  0.10248342496E+00  0.89119696633E+00  0.88000000000E+00 0.  1.
        -11    1    4    4    0    0 -0.82309725227E-01 -0.13834813478E-01 -0.80799451680E-01  0.11616843566E+00  0.51100000000E-03 0.  1.
         11    1    4    4    0    0 -0.14893483717E-01  0.13970171347E-02 -0.60678806974E-02  0.16150783612E-01  0.51100000000E-03 0. -1.
</event>
<event>
 8    1  0.1122465E+005  0.1043930E+01  0.7957747E-01            NaN
         13   -1    0    0    0    0  0.00000000000E+00  0.00000000000E+00  0.74505805969E-08  0.10566000000E+00  0.10566000000E+00 0.  1.
     999900   -1    0    0    0    0 -0.00000000000E+00 -0.00000000000E+00 -0.74505805969E-08  0.93827000000E+00  0.93827000000E+00 0.  1.
     999902    2    1    2    0    0  0.11265410399E-01  0.19797012931E-01 -0.47121213739E-02  0.10206698349E+01  0.10204047612E+01 0.  0.
     999903    2    3    3    0    0 -0.92396554948E-03 -0.28353431750E-01  0.12529631323E+00  0.12973255357E+00  0.18072037520E-01 0.  0.
         14    1    1    2    0    0 -0.11265410399E-01 -0.19797012931E-01  0.47121213739E-02  0.23260165096E-01  0.00000000000E+00 0.  1.
     999901    1    3    3    0    0  0.12189375948E-01  0.48150444681E-01 -0.13000843461E+00  0.89093728134E+00  0.88000000000E+00 0.  1.
        -11    1    4    4    0    0 -0.65214329321E-02 -0.71858463953E-02  0.61940332954E-01  0.62697938111E-01  0.51100000000E-03 0. -1.
         11    1    4    4    0    0  0.55974673826E-02 -0.21167585355E-01  0.63355980281E-01  0.67034615455E-01  0.51100000000E-03 0.  1.
</event>
<event>
 8    1  0.1122465E+005  0.1043930E+01  0.7957747E-01            NaN
         13   -1    0    0    0    0  0.00000000000E+00  0.00000000000E+00  0.74505805969E-08  0.10566000000E+00  0.10566000000E+00 0.  1.
     999900   -1    0    0    0    0 -0.00000000000E+00 -0.00000000000E+00 -0.74505805969E-08  0.93827000000E+00  0.93827000000E+00 0. -1.
     999902    2    1    2    0    0  0.12689350825E-02 -0.97600873294E-03  0.23408858110E-01  0.10204664660E+01  0.10201966824E+01 0.  0.
     999903    2    3    3    0    0 -0.12241143841E+00  0.37158085701E-01  0.19483240861E-01  0.13099108444E+00  0.20341679914E-01 0.  0.
         14    1    1    2    0    0 -0.12689350825E-02  0.97600873294E-03 -0.23408858110E-01  0.23463533991E-01  0.00000000000E+00 0. -1.
     999901    1    3    3    0    0  0.12368037349E+00 -0.38134094434E-01  0.39256172496E-02  0.88947538157E+00  0.88000000000E+00 0. -1.
        -11    1    4    4    0    0 -0.10991463560E+00  0.33009661456E-01  0.10937930292E-01  0.11528557719E+00  0.51100000000E-03 0.  1.
         11    1    4    4    0    0 -0.12496802810E-01  0.41484242447E-02  0.85453105685E-02  0.15705507248E-01  0.51100000000E-03 0. -1.
</event>
<event>
 8    1  0.1122465E+005  0.1043930E+01  0.7957747E-01            NaN
         13   -1    0    0    0    0  0.00000000000E+00  0.00000000000E+00  0.74505805969E-08  0.10566000000E+00  0.10566000000E+00 0. -1.
     999900   -1    0    0    0    0 -0.00000000000E+00 -0.00000000000E+00 -0.74505805969E-08  0.93827000000E+00  0.93827000000E+00 0.  1.
     999902    2    1    2    0    0 -0.14660009216E-01 -0.52426240194E-02 -0.17407360388E-01  0.10205758318E+01  0.10203085863E+01 0.  0.
     999903    2    3    3    0    0 -0.60356852458E-01 -0.53357167966E-01  0.10045332733E+00  0.13024198849E+00  0.19549106943E-01 0.  0.
         14    1    1    2    0    0  0.14660009216E-01  0.52426240194E-02  0.17407360388E-01  0.23354168204E-01  0.00000000000E+00 0. -1.
     999901    1    3    3    0    0  0.45696843242E-01  0.48114543947E-01 -0.11786068772E+00  0.89033384330E+00  0.88000000000E+00 0.  1.
        -11    1    4    4    0    0 -0.44374046658E-01 -0.40844521798E-01  0.60512135662E-01  0.85436003307E-01  0.51100000000E-03 0. -1.
         11    1    4    4    0    0 -0.15982805801E-01 -0.12512646168E-01  0.39941191670E-01  0.44805985185E-01  0.51100000000E-03 0.  1.
</event>
<event>
 8    1  0.1122465E+005  0.1043930E+01  0.7957747E-01            NaN
         13   -1    0    0    0    0  0.00000000000E+00  0.00000000000E+00  0.74505805969E-08  0.10566000000E+00  0.10566000000E+00 0.  1.
     999900   -1    0    0    0    0 -0.00000000000E+00 -0.00000000000E+00 -0.74505805969E-08  0.93827000000E+00  0.93827000000E+00 0. -1.
     999902    2    1    2    0    0 -0.16331676605E-01  0.15976915470E-01 -0.61425479125E-02  0.10202716741E+01  0.10199973395E+01 0.  0.
     999903    2    3    3    0    0 -0.90204994259E-01 -0.24680108350E-01  0.89533066990E-01  0.13107873446E+00  0.20479643702E-01 0.  0.
         14    1    1    2    0    0  0.16331676605E-01 -0.15976915470E-01  0.61425479125E-02  0.23658325882E-01  0.00000000000E+00 0. -1.
     999901    1    3    3    0    0  0.73873317654E-01  0.40657023821E-01 -0.95675614903E-01  0.88919293966E+00  0.88000000000E+00 0.  1.
        -11    1    4    4    0    0 -0.27175952924E-01 -0.10647281291E-01  0.40853887576E-01  0.50211535201E-01  0.51100000000E-03 0.  1.
         11    1    4    4    0    0 -0.63029041335E-01 -0.14032827059E-01  0.48679179414E-01  0.80867199261E-01  0.51100000000E-03 0. -1.
</event>
<event>
 8    1  0.1122465E+005  0.1043930E+01  0.7957747E-01            NaN
         13   -1    0    0    0    0  0.00000000000E+00  0.00000000000E+00  0.74505805969E-08  0.10566000000E+00  0.10566000000E+00 0.  1.
     999900   -1    0    0    0    0 -0.00000000000E+00 -0.00000000000E+00 -0.74505805969E-08  0.93827000000E+00  0.93827000000E+00 0. -1.
     999902    2    1    2    0    0 -0.11154521077E-01 -0.19456539539E-01 -0.59764469344E-02  0.10207201273E+01  0.10204562118E+01 0.  0.
     999903    2    3    3    0    0 -0.97419132165E-01  0.19838152869E-01 -0.84618772995E-01  0.13214245969E+00  0.20426778740E-01 0.  0.
         14    1    1    2    0    0  0.11154521077E-01  0.19456539539E-01  0.59764469344E-02  0.23209872667E-01  0.00000000000E+00 0.  1.
     999901    1    3    3    0    0  0.86264611088E-01 -0.39294692408E-01  0.78642326061E-01  0.88857766764E+00  0.88000000000E+00 0.  1.
        -11    1    4    4    0    0 -0.69168881803E-01  0.52607409454E-02 -0.62875876722E-01  0.93625031908E-01  0.51100000000E-03 0.  1.
         11    1    4    4    0    0 -0.28250250362E-01  0.14577411924E-01 -0.21742896273E-01  0.38517427786E-01  0.51100000000E-03 0. -1.
</event>
<event>
 8    1  0.1122465E+005  0.1043930E+01  0.7957747E-01            NaN
         13   -1    0    0    0    0  0.00000000000E+00  0.00000000000E+00  0.74505805969E-08  0.10566000000E+00  0.10566000000E+00 0.  1.
     999900   -1    0    0    0    0 -0.00000000000E+00 -0.00000000000E+00 -0.74505805969E-08  0.93827000000E+00  0.93827000000E+00 0.  1.
     999902    2    1    2    0    0  0.21980089984E-01  0.57046718146E-02 -0.17646175318E-02  0.10211532243E+01  0.10208991752E+01 0.  0.
     999903    2    3    3    0    0  0.67775365263E-01  0.93113297914E-01 -0.64351732675E-01  0.13342881767E+00  0.19962903104E-01 0.  0.
         14    1    1    2    0    0 -0.21980089984E-01 -0.57046718146E-02  0.17646175318E-02  0.22776775699E-01  0.00000000000E+00 0. -1.
     999901    1    3    3    0    0 -0.45795275279E-01 -0.87408626099E-01  0.62587115143E-01  0.88772440664E+00  0.88000000000E+00 0. -1.
        -11    1    4    4    0    0  0.26529212659E-01  0.51663008800E-01 -0.37066468777E-01  0.68898837662E-01  0.51100000000E-03 0. -1.
         11    1    4    4    0    0  0.41246152604E-01  0.41450289114E-01 -0.27285263898E-01  0.64529980003E-01  0.51100000000E-03 0.  1.
</event>
<event>
 8    1  0.1122465E+005  0.1043930E+01  0.7957747E-01            NaN
         13   -1    0    0    0    0  0.00000000000E+00  0.00000000000E+00  0.74505805969E-08  0.10566000000E+00  0.10566000000E+00 0.  1.
     999900   -1    0    0    0    0 -0.00000000000E+00 -0.00000000000E+00 -0.74505805969E-08  0.93827000000E+00  0.93827000000E+00 0. -1.
     999902    2    1    2    0    0  0.19463625476E-01 -0.10290534530E-01 -0.81834713025E-02  0.10204417685E+01  0.10201714100E+01 0.  0.
     999903    2    3    3    0    0  0.44184078704E-02 -0.13027717923E+00  0.80174543583E-02  0.13202428583E+00  0.19351142590E-01 0.  0.
         14    1    1    2    0    0 -0.19463625476E-01  0.10290534530E-01  0.81834713025E-02  0.23488231525E-01  0.00000000000E+00 0. -1.
     999901    1    3    3    0    0  0.15045217606E-01  0.11998664470E+00 -0.16200925661E-01  0.88841748265E+00  0.88000000000E+00 0. -1.
        -11    1    4    4    0    0  0.10159474380E-01 -0.41217227609E-01  0.43046925696E-03  0.42456109057E-01  0.51100000000E-03 0. -1.
         11    1    4    4    0    0 -0.57410665100E-02 -0.89059951616E-01  0.75869851014E-02  0.89568176773E-01  0.51100000000E-03 0.  1.
</event>
<event>
 8    1  0.1122465E+005  0.1043930E+01  0.7957747E-01            NaN
         13   -1    0    0    0    0  0.00000000000E+00  0.00000000000E+00  0.74505805969E-08  0.10566000000E+00  0.10566000000E+00 0.  1.
     999900   -1    0    0    0    0 -0.00000000000E+00 -0.00000000000E+00 -0.74505805969E-08  0.93827000000E+00  0.93827000000E+00 0. -1.
     999902    2    1    2    0    0  0.24871693642E-01  0.12311609067E-01  0.17967688973E-02  0.10161198357E+01  0.10157391964E+01 0.  0.
     999903    2    3    3    0    0  0.62452205158E-01 -0.10872410243E+00 -0.37034550792E-02  0.12702355810E+00  0.20001508784E-01 0.  0.
         14    1    1    2    0    0 -0.24871693642E-01 -0.12311609067E-01 -0.17967688973E-02  0.27810164346E-01  0.00000000000E+00 0. -1.
     999901    1    3    3    0    0 -0.37580511516E-01  0.12103571150E+00  0.55002239765E-02  0.88909627756E+00  0.88000000000E+00 0.  1.
        -11    1    4    4    0    0  0.31686996112E-01 -0.71719745061E-01 -0.73894499932E-02  0.78756921261E-01  0.51100000000E-03 0.  1.
         11    1    4    4    0    0  0.30765209046E-01 -0.37004357369E-01  0.36859949139E-02  0.48266636836E-01  0.51100000000E-03 0. -1.
</event>
<event>
 8    1  0.1122465E+005  0.1043930E+01  0.7957747E-01            NaN
         13   -1    0    0    0    0  0.00000000000E+00  0.00000000000E+00  0.74505805969E-08  0.10566000000E+00  0.10566000000E+00 0.  1.
     999900   -1    0    0    0    0 -0.00000000000E+00 -0.00000000000E+00 -0.74505805969E-08  0.93827000000E+00  0.93827000000E+00 0.  1.
     999902    2    1    2    0    0 -0.12511647001E-01 -0.10503985370E-01  0.16547157730E-01  0.10206773991E+01  0.10204124997E+01 0.  0.
     999903    2    3    3    0    0 -0.13095314254E+00  0.42982685576E-03 -0.12596635739E-02  0.13249666356E+00  0.20121352055E-01 0.  0.
         14    1    1    2    0    0  0.12511647001E-01  0.10503985370E-01 -0.16547157730E-01  0.23252600893E-01  0.00000000000E+00 0. -1.
     999901    1    3    3    0    0  0.11844149554E+00 -0.10933812225E-01  0.17806821304E-01  0.88818073555E+00  0.88000000000E+00 0.  1.
        -11    1    4    4    0    0 -0.11006659306E+00 -0.65867954468E-02 -0.36696330161E-02  0.11032573639E+00  0.51100000000E-03 0. -1.
         11    1    4    4    0    0 -0.20886549485E-01  0.70166223025E-02  0.24099694423E-02  0.22170927172E-01  0.51100000000E-03 0.  1.
</event>
<event>
 8    1  0.1122465E+005  0.1043930E+01  0.7957747E-01            NaN
         13   -1    0    0    0    0  0.00000000000E+00  0.00000000000E+00  0.74505805969E-08  0.10566000000E+00  0.10566000000E+00 0. -1.
     999900   -1    0    0    0    0 -0.00000000000E+00 -0.00000000000E+00 -0.74505805969E-08  0.93827000000E+00  0.93827000000E+00 0.  1.
     999902    2    1    2    0    0  0.25652863499E-02 -0.24683633514E-01  0.46448994501E-02  0.10186824744E+01  0.10183695528E+01 0.  0.
     999903    2    3    3    0    0 -0.11888996108E+00  0.11551816765E-01 -0.42499952681E-01  0.12835274781E+00  0.19997864330E-01 0.  0.
         14    1    1    2    0    0 -0.25652863499E-02  0.24683633514E-01 -0.46448994501E-02  0.25247525590E-01  0.00000000000E+00 0.  1.
     999901    1    3    3    0    0  0.12145524742E+00 -0.36235450278E-01  0.47144852131E-01  0.89032972660E+00  0.88000000000E+00 0. -1.
        -11    1    4    4    0    0 -0.61560922308E-01  0.10411823671E-01 -0.12649389213E-01  0.63705740683E-01  0.51100000000E-03 0. -1.
         11    1    4    4    0    0 -0.57329038768E-01  0.11399930934E-02 -0.29850563468E-01  0.64647007128E-01  0.51100000000E-03 0.  1.
</event>
<event>
 8    1  0.1122465E+005  0.1043930E+01  0.7957747E-01            NaN
         13   -1    0    0    0    0  0.00000000000E+00  0.00000000000E+00  0.74505805969E-08  0.10566000000E+00  0.10566000000E+00 0.  1.
     999900   -1    0    0    0    0 -0.00000000000E+00 -0.00000000000E+00 -0.74505805969E-08  0.93827000000E+00  0.93827000000E+00 0.  1.
     999902    2    1    2    0    0  0.44412636977E-02  0.19098523965E-01  0.13813863277E-01  0.10199445615E+01  0.10196624968E+01 0.  0.
     999903    2    3    3    0    0 -0.12340024639E+00  0.37660342594E-01  0.55548397022E-02  0.13047494186E+00  0.18626110599E-01 0.  0.
         14    1    1    2    0    0 -0.44412636977E-02 -0.19098523965E-01 -0.13813863277E-01  0.23985438489E-01  0.00000000000E+00 0. -1.
     999901    1    3    3    0    0  0.12784151009E+00 -0.18561818628E-01  0.82590235744E-02  0.88946961965E+00  0.88000000000E+00 0. -1.
        -11    1    4    4    0    0 -0.16245425158E-01  0.82176819829E-02  0.65163830137E-02  0.19343435691E-01  0.51100000000E-03 0.  1.
         11    1    4    4    0    0 -0.10715482123E+00  0.29442660611E-01 -0.96154331156E-03  0.11113150617E+00  0.51100000000E-03 0. -1.
</event>
<event>
 8    1  0.1122465E+005  0.1043930E+01  0.7957747E-01            NaN
         13   -1    0    0    0    0  0.00000000000E+00  0.00000000000E+00  0.74505805969E-08  0.10566000000E+00  0.10566000000E+00 0. -1.
     999900   -1    0    0    0    0 -0.00000000000E+00 -0.00000000000E+00 -0.74505805969E-08  0.93827000000E+00  0.93827000000E+00 0. -1.
     999902    2    1    2    0    0  0.23720461819E-01 -0.18186654689E-03  0.19146832252E-02  0.10201316934E+01  0.10198540643E+01 0.  0.
     999903    2    3    3    0    0 -0.64383778951E-01  0.79511969773E-02 -0.10940171666E+00  0.12871717433E+00  0.19770757034E-01 0.  0.
         14    1    1    2    0    0 -0.23720461819E-01  0.18186654689E-03 -0.19146832252E-02  0.23798306583E-01  0.00000000000E+00 0.  1.
     999901    1    3    3    0    0  0.88104240770E-01 -0.81330635242E-02  0.11131639988E+00  0.89141451909E+00  0.88000000000E+00 0.  1.
        -11    1    4    4    0    0 -0.53399816009E-01 -0.13416007922E-02 -0.86660404136E-01  0.10180190081E+00  0.51100000000E-03 0. -1.
         11    1    4    4    0    0 -0.10983962942E-01  0.92927977695E-02 -0.22741312520E-01  0.26915273516E-01  0.51100000000E-03 0.  1.
</event>
<event>
 8    1  0.1122465E+005  0.1043930E+01  0.7957747E-01            NaN
         13   -1    0    0    0    0  0.00000000000E+00  0.00000000000E+00  0.74505805969E-08  0.10566000000E+00  0.10566000000E+00 0.  1.
     999900   -1    0    0    0    0 -0.00000000000E+00 -0.00000000000E+00 -0.74505805969E-08  0.93827000000E+00  0.93827000000E+00 0. -1.
     999902    2    1    2    0    0 -0.21209292800E-01  0.12602472399E-01  0.94473424273E-02  0.10175120385E+01  0.10171690321E+01 0.  0.
     999903    2    3    3    0    0  0.10269905910E+00  0.45348115034E-01  0.56988961093E-01  0.12695841164E+00  0.16344672627E-01 0.  0.
         14    1    1    2    0    0  0.21209292800E-01 -0.12602472399E-01 -0.94473424273E-02  0.26417961515E-01  0.00000000000E+00 0.  1.
     999901    1    3    3    0    0 -0.12390835190E+00 -0.32745642635E-01 -0.47541618665E-01  0.89055362684E+00  0.88000000000E+00 0. -1.
        -11    1    4    4    0    0  0.25909818523E-01  0.14520679544E-01  0.78710381568E-02  0.30730818294E-01  0.51100000000E-03 0.  1.
         11    1    4    4    0    0  0.76789240573E-01  0.30827435490E-01  0.49117922936E-01  0.96227593347E-01  0.51100000000E-03 0. -1.
</event>
<event>
 8    1  0.1122465E+005  0.1043930E+01  0.7957747E-01            NaN
         13   -1    0    0    0    0  0.00000000000E+00  0.00000000000E+00  0.74505805969E-08  0.10566000000E+00  0.10566000000E+00 0.  1.
     999900   -1    0    0    0    0 -0.00000000000E+00 -0.00000000000E+00 -0.74505805969E-08  0.93827000000E+00  0.93827000000E+00 0. -1.
     999902    2    1    2    0    0 -0.30998132184E-03  0.19787962004E-01 -0.82517942311E-02  0.10224881802E+01  0.10222633354E+01 0.  0.
     999903    2    3    3    0    0  0.53450662974E-01  0.61460389301E-01 -0.10514171288E+00  0.13456112553E+00  0.20434380125E-01 0.  0.
         14    1    1    2    0    0  0.30998132184E-03 -0.19787962004E-01  0.82517942311E-02  0.21441819809E-01  0.00000000000E+00 0.  1.
     999901    1    3    3    0    0 -0.53760644295E-01 -0.41672427297E-01  0.96889918644E-01  0.88792705467E+00  0.88000000000E+00 0. -1.
        -11    1    4    4    0    0  0.26041331700E-01  0.44834511226E-01 -0.67478724533E-01  0.85099493179E-01  0.51100000000E-03 0. -1.
         11    1    4    4    0    0  0.27409331273E-01  0.16625878075E-01 -0.37662988342E-01  0.49461632347E-01  0.51100000000E-03 0.  1.
</event>
<event>
 8    1  0.1122465E+005  0.1043930E+01  0.7957747E-01            NaN
         13   -1    0    0    0    0  0.00000000000E+00  0.00000000000E+00  0.74505805969E-08  0.10566000000E+00  0.10566000000E+00 0. -1.
     999900   -1    0    0    0    0 -0.00000000000E+00 -0.00000000000E+00 -0.74505805969E-08  0.93827000000E+00  0.93827000000E+00 0.  1.
     999902    2    1    2    0    0  0.63103311225E-02 -0.30287980087E-02  0.22647337938E-01  0.10202256584E+01  0.10199502430E+01 0.  0.
     999903    2    3    3    0    0  0.12886655455E+00 -0.15217572735E-01  0.81590822615E-03  0.13138078695E+00  0.20544636084E-01 0.  0.
         14    1    1    2    0    0 -0.63103311225E-02  0.30287980087E-02 -0.22647337938E-01  0.23704341626E-01  0.00000000000E+00 0.  1.
     999901    1    3    3    0    0 -0.12255622343E+00  0.12188774726E-01  0.21831429712E-01  0.88884487142E+00  0.88000000000E+00 0.  1.
        -11    1    4    4    0    0  0.88500964745E-01 -0.81166682826E-03  0.13038080654E-02  0.88515764699E-01  0.51100000000E-03 0.  1.
         11    1    4    4    0    0  0.40365589807E-01 -0.14405905907E-01 -0.48789983928E-03  0.42865022252E-01  0.51100000000E-03 0. -1.
</event>
<event>
 8    1  0.1122465E+005  0.1043930E+01  0.7957747E-01            NaN
         13   -1    0    0    0    0  0.00000000000E+00  0.00000000000E+00  0.74505805969E-08  0.10566000000E+00  0.10566000000E+00 0.  1.
     999900   -1    0    0    0    0 -0.00000000000E+00 -0.00000000000E+00 -0.74505805969E-08  0.93827000000E+00  0.93827000000E+00 0. -1.
     999902    2    1    2    0    0 -0.14406342665E-01 -0.75262146955E-02  0.19190011330E-01  0.10187815776E+01  0.10184711383E+01 0.  0.
     999903    2    3    3    0    0  0.59498943700E-01 -0.11232722141E+00  0.10579942130E-01  0.12944509700E+00  0.22058308846E-01 0.  0.
         14    1    1    2    0    0  0.14406342665E-01  0.75262146955E-02 -0.19190011330E-01  0.25148422445E-01  0.00000000000E+00 0. -1.
     999901    1    3    3    0    0 -0.73905286366E-01  0.10480100672E+00  0.86100691991E-02  0.88933648056E+00  0.88000000000E+00 0. -1.
        -11    1    4    4    0    0  0.22491887929E-01 -0.29671262521E-01 -0.49358577500E-02  0.37561851058E-01  0.51100000000E-03 0. -1.
         11    1    4    4    0    0  0.37007055771E-01 -0.82655958891E-01  0.15515799880E-01  0.91883245938E-01  0.51100000000E-03 0.  1.
</event>
<event>
 8    1  0.1122465E+005  0.1043930E+01  0.7957747E-01            NaN
         13   -1    0    0    0    0  0.00000000000E+00  0.00000000000E+00  0.74505805969E-08  0.10566000000E+00  0.10566000000E+00 0.  1.
     999900   -1    0    0    0    0 -0.00000000000E+00 -0.00000000000E+00 -0.74505805969E-08  0.93827000000E+00  0.93827000000E+00 0.  1.
     999902    2    1    2    0    0 -0.44844709816E-02  0.22835145278E-01  0.22820937548E-03  0.10206575609E+01  0.10203922042E+01 0.  0.
     999903    2    3    3    0    0  0.23970159362E-02 -0.56212173181E-02 -0.12885816122E+00  0.13075845964E+00  0.21354280223E-01 0.  0.
         14    1    1    2    0    0  0.44844709816E-02 -0.22835145278E-01 -0.22820937548E-03  0.23272439051E-01  0.00000000000E+00 0.  1.
     999901    1    3    3    0    0 -0.68814869178E-02  0.28456362596E-01  0.12908637060E+00  0.88989910131E+00  0.88000000000E+00 0. -1.
        -11    1    4    4    0    0 -0.66754156351E-02 -0.61584429203E-02 -0.10189473894E+00  0.10229998308E+00  0.51100000000E-03 0. -1.
         11    1    4    4    0    0  0.90724315713E-02  0.53722560223E-03 -0.26963422286E-01  0.28458476564E-01  0.51100000000E-03 0.  1.
</event>
<event>
 8    1  0.1122465E+005  0.1043930E+01  0.7957747E-01            NaN
         13   -1    0    0    0    0  0.00000000000E+00  0.00000000000E+00  0.74505805969E-08  0.10566000000E+00  0.10566000000E+00 0.  1.
     999900   -1    0    0    0    0 -0.00000000000E+00 -0.00000000000E+00 -0.74505805969E-08  0.93827000000E+00  0.93827000000E+00 0. -1.
     999902    2    1    2    0    0 -0.18630145822E-01 -0.14786200656E-01  0.91621856786E-02  0.10184415769E+01  0.10181225790E+01 0.  0.
     999903    2    3    3    0    0 -0.37034013679E-01 -0.67074838810E-01  0.10485728354E+00  0.13151973384E+00  0.20780719591E-01 0.  0.
         14    1    1    2    0    0  0.18630145822E-01  0.14786200656E-01 -0.91621856786E-02  0.25488423050E-01  0.00000000000E+00 0. -1.
     999901    1    3    3    0    0  0.18403867857E-01  0.52288638154E-01 -0.95695097863E-01  0.88692184311E+00  0.88000000000E+00 0. -1.
        -11    1    4    4    0    0  0.19470382325E-03 -0.85255765866E-02  0.21050006935E-01  0.22717554417E-01  0.51100000000E-03 0.  1.
         11    1    4    4    0    0 -0.37228717502E-01 -0.58549262223E-01  0.83807276607E-01  0.10880217942E+00  0.51100000000E-03 0. -1.
</event>
<event>
 8    1  0.1122465E+005  0.1043930E+01  0.7957747E-01            NaN
         13   -1    0    0    0    0  0.00000000000E+00  0.00000000000E+00  0.74505805969E-08  0.10566000000E+00  0.10566000000E+00 0. -1.
     999900   -1    0    0    0    0 -0.00000000000E+00 -0.00000000000E+00 -0.74505805969E-08  0.93827000000E+00  0.93827000000E+00 0. -1.
     999902    2    1    2    0    0 -0.12145329167E-01  0.44087305094E-04 -0.20468283880E-01  0.10201295460E+01  0.10198518662E+01 0.  0.
     999903    2    3    3    0    0  0.82987573469E-01  0.91987910387E-01 -0.34615080908E-01  0.13012726084E+00  0.19651645754E-01 0.  0.
         14    1    1    2    0    0  0.12145329167E-01 -0.44087305094E-04  0.20468283880E-01  0.23800453972E-01  0.00000000000E+00 0. -1.
     999901    1    3    3    0    0 -0.95132902636E-01 -0.91943823082E-01  0.14146797028E-01  0.89000228518E+00  0.88000000000E+00 0.  1.
        -11    1    4    4    0    0  0.21405937990E-01  0.23680321054E-01 -0.18058304293E-01  0.36678812159E-01  0.51100000000E-03 0. -1.
         11    1    4    4    0    0  0.61581635479E-01  0.68307589334E-01 -0.16556776615E-01  0.93448448685E-01  0.51100000000E-03 0.  1.
</event>
<event>
 8    1  0.1122465E+005  0.1043930E+01  0.7957747E-01            NaN
         13   -1    0    0    0    0  0.00000000000E+00  0.00000000000E+00  0.74505805969E-08  0.10566000000E+00  0.10566000000E+00 0.  1.
     999900   -1    0    0    0    0 -0.00000000000E+00 -0.00000000000E+00 -0.74505805969E-08  0.93827000000E+00  0.93827000000E+00 0.  1.
     999902    2    1    2    0    0 -0.22140685668E-03 -0.42273821958E-02 -0.23638708380E-01  0.10199152480E+01  0.10196324851E+01 0.  0.
     999903    2    3    3    0    0 -0.81555587951E-03 -0.88810145629E-01  0.90734614116E-01  0.12849174941E+00  0.19734547622E-01 0.  0.
         14    1    1    2    0    0  0.22140685668E-03  0.42273821958E-02  0.23638708380E-01  0.24014752031E-01  0.00000000000E+00 0.  1.
     999901    1    3    3    0    0  0.59414902283E-03  0.84582763433E-01 -0.11437332250E+00  0.89142349856E+00  0.88000000000E+00 0.  1.
        -11    1    4    4    0    0 -0.90248895471E-02 -0.63404682656E-01  0.68107724365E-01  0.93490778439E-01  0.51100000000E-03 0. -1.
         11    1    4    4    0    0  0.82093336676E-02 -0.25405462973E-01  0.22626889751E-01  0.35000970971E-01  0.51100000000E-03 0.  1.
</event>
<event>
 8    1  0.1122465E+005  0.1043930E+01  0.7957747E-01            NaN
         13   -1    0    0    0    0  0.00000000000E+00  0.00000000000E+00  0.74505805969E-08  0.10566000000E+00  0.10566000000E+00 0. -1.
     999900   -1    0    0    0    0 -0.00000000000E+00 -0.00000000000E+00 -0.74505805969E-08  0.93827000000E+00  0.93827000000E+00 0.  1.
     999902    2    1    2    0    0 -0.20641077931E-01 -0.15524403199E-01  0.40503276314E-02  0.10177868107E+01  0.10174509942E+01 0.  0.
     999903    2    3    3    0    0 -0.46393749925E-01 -0.10500966088E+00  0.60237601601E-01  0.13109192450E+00  0.19419451913E-01 0.  0.
         14    1    1    2    0    0  0.20641077931E-01  0.15524403199E-01 -0.40503276314E-02  0.26143189300E-01  0.00000000000E+00 0. -1.
     999901    1    3    3    0    0  0.25752671994E-01  0.89485257680E-01 -0.56187273970E-01  0.88669488620E+00  0.88000000000E+00 0. -1.
        -11    1    4    4    0    0 -0.12523050828E-01 -0.46037219612E-01  0.17780784657E-01  0.50918266032E-01  0.51100000000E-03 0. -1.
         11    1    4    4    0    0 -0.33870699097E-01 -0.58972441267E-01  0.42456816943E-01  0.80173658469E-01  0.51100000000E-03 0.  1.
</event>
<event>
 8    1  0.1122465E+005  0.1043930E+01  0.7957747E-01            NaN
         13   -1    0    0    0    0  0.00000000000E+00  0.00000000000E+00  0.74505805969E-08  0.10566000000E+00  0.10566000000E+00 0. -1.
     999900   -1    0    0    0    0 -0.00000000000E+00 -0.00000000000E+00 -0.74505805969E-08  0.93827000000E+00  0.93827000000E+00 0.  1.
     999902    2    1    2    0    0 -0.12297168744E-01 -0.15684674952E-01 -0.12488863321E-01  0.10204097727E+01  0.10201386685E+01 0.  0.
     999903    2    3    3    0    0  0.11289452321E+00 -0.55909469875E-01  0.23610380461E-01  0.12990758329E+00  0.21153910721E-01 0.  0.
         14    1    1    2    0    0  0.12297168744E-01  0.15684674952E-01  0.12488863321E-01  0.23520227348E-01  0.00000000000E+00 0. -1.
     999901    1    3    3    0    0 -0.12519169195E+00  0.40224794923E-01 -0.36099243782E-01  0.89050218936E+00  0.88000000000E+00 0. -1.
        -11    1    4    4    0    0  0.18978535065E-01 -0.18386177999E-01  0.76992088022E-02  0.27527718246E-01  0.51100000000E-03 0. -1.
         11    1    4    4    0    0  0.93915988140E-01 -0.37523291875E-01  0.15911171659E-01  0.10237986504E+00  0.51100000000E-03 0.  1.
</event>
<event>
 8    1  0.1122465E+005  0.1043930E+01  0.7957747E-01            NaN
         13   -1    0    0    0    0  0.00000000000E+00  0.00000000000E+00  0.74505805969E-08  0.10566000000E+00  0.10566000000E+00 0. -1.
     999900   -1    0    0    0    0 -0.00000000000E+00 -0.00000000000E+00 -0.74505805969E-08  0.93827000000E+00  0.93827000000E+00 0.  1.
     999902    2    1    2    0    0 -0.29345506568E-02 -0.10416416540E-01 -0.21166612003E-01  0.10201573522E+01  0.10198803285E+01 0.  0.
     999903    2    3    3    0    0  0.41320451307E-01 -0.46651706050E-01  0.11056680331E+00  0.12851549912E+00  0.20185493464E-01 0.  0.
         14    1    1    2    0    0  0.29345506568E-02  0.10416416540E-01  0.21166612003E-01  0.23772647828E-01  0.00000000000E+00 0. -1.
     999901    1    3    3    0    0 -0.44255001964E-01  0.36235289511E-01 -0.13173341531E+00  0.89164185305E+00  0.88000000000E+00 0. -1.
        -11    1    4    4    0    0  0.12331547548E-01 -0.28981323448E-01  0.55812527848E-01  0.64088092182E-01  0.51100000000E-03 0.  1.
         11    1    4    4    0    0  0.28988903759E-01 -0.17670382603E-01  0.54754275461E-01  0.64427406938E-01  0.51100000000E-03 0. -1.
</event>
<event>
 8    1  0.1122465E+005  0.1043930E+01  0.7957747E-01            NaN
         13   -1    0    0    0    0  0.00000000000E+00  0.00000000000E+00  0.74505805969E-08  0.10566000000E+00  0.10566000000E+00 0. -1.
     999900   -1    0    0    0    0 -0.00000000000E+00 -0.00000000000E+00 -0.74505805969E-08  0.93827000000E+00  0.93827000000E+00 0. -1.
     999902    2    1    2    0    0  0.12605073002E-01 -0.79147734770E-02 -0.18042502347E-01  0.10205406136E+01  0.10202725521E+01 0.  0.
     999903    2    3    3    0    0 -0.78550192273E-01 -0.10172928593E+00 -0.15642470088E-01  0.13086864862E+00  0.19050879281E-01 0.  0.
         14    1    1    2    0    0 -0.12605073002E-01  0.79147734770E-02  0.18042502347E-01  0.23389386386E-01  0.00000000000E+00 0. -1.
     999901    1    3    3    0    0  0.91155265275E-01  0.93814512448E-01 -0.24000322586E-02  0.88967196499E+00  0.88000000000E+00 0. -1.
        -11    1    4    4    0    0 -0.14385696279E-01 -0.31413368961E-01 -0.11043350008E-02  0.34572079540E-01  0.51100000000E-03 0.  1.
         11    1    4    4    0    0 -0.64164495994E-01 -0.70315916964E-01 -0.14538135087E-01  0.96296569084E-01  0.51100000000E-03 0. -1.
</event>
<event>
 7    1  0.1122465E+005  0.1043930E+01  0.7957747E-01            NaN
         13   -1    0    0    0    0  0.00000000000E+00  0.00000000000E+00  0.74505805969E-08  0.10566000000E+00  0.10566000000E+00 0.  1.
     999900   -1    0    0    0    0 -0.00000000000E+00 -0.00000000000E+00 -0.74505805969E-08  0.93827000000E+00  0.93827000000E+00 0. -1.
     999903    2    1    2    0    0  0.96516059131E-01  0.53733333790E-01  0.27617367739E-01  0.11563046080E+00  0.20126192711E-01 0.  0.
         14    1    1    2    0    0  0.12341357958E-01 -0.20996654502E-03 -0.37961775671E-01  0.39918036203E-01  0.00000000000E+00 0. -1.
     999901    1    1    2    0    0 -0.10885741709E+00 -0.53523367245E-01  0.10344407932E-01  0.88838150300E+00  0.88000000000E+00 0.  1.
        -11    1    3    3    0    0  0.84104829077E-01  0.38820569262E-01  0.25671568773E-01  0.96124655715E-01  0.51100000000E-03 0.  1.
         11    1    3    3    0    0  0.12411230053E-01  0.14912764528E-01  0.19457989659E-02  0.19505805083E-01  0.51100000000E-03 0. -1.
</event>
<event>
 8    1  0.1122465E+005  0.1043930E+01  0.7957747E-01            NaN
         13   -1    0    0    0    0  0.00000000000E+00  0.00000000000E+00  0.74505805969E-08  0.10566000000E+00  0.10566000000E+00 0. -1.
     999900   -1    0    0    0    0 -0.00000000000E+00 -0.00000000000E+00 -0.74505805969E-08  0.93827000000E+00  0.93827000000E+00 0. -1.
     999902    2    1    2    0    0 -0.18027842901E-01 -0.77116838917E-02  0.13662752038E-01  0.10200313812E+01  0.10197513788E+01 0.  0.
     999903    2    3    3    0    0 -0.18162753851E-01 -0.12059817708E+00 -0.42971931439E-01  0.13101458386E+00  0.21081469391E-01 0.  0.
         14    1    1    2    0    0  0.18027842901E-01  0.77116838917E-02 -0.13662752038E-01  0.23898618817E-01  0.00000000000E+00 0.  1.
     999901    1    3    3    0    0  0.13491094988E-03  0.11288649318E+00  0.56634683477E-01  0.88901679732E+00  0.88000000000E+00 0.  1.
        -11    1    4    4    0    0 -0.19230385005E-01 -0.70804596334E-01 -0.31817484036E-01  0.79973195389E-01  0.51100000000E-03 0.  1.
         11    1    4    4    0    0  0.10676311548E-02 -0.49793580743E-01 -0.11154447403E-01  0.51041388474E-01  0.51100000000E-03 0. -1.
</event>
<event>
 8    1  0.1122465E+005  0.1043930E+01  0.7957747E-01            NaN
         13   -1    0    0    0    0  0.00000000000E+00  0.00000000000E+00  0.74505805969E-08  0.10566000000E+00  0.10566000000E+00 0.  1.
     999900   -1    0    0    0    0 -0.00000000000E+00 -0.00000000000E+00 -0.74505805969E-08  0.93827000000E+00  0.93827000000E+00 0. -1.
     999902    2    1    2    0    0  0.58284578175E-02  0.21628682812E-01  0.72246019939E-02  0.10203935237E+01  0.10201220405E+01 0.  0.
     999903    2    3    3    0    0 -0.99197655379E-01  0.59596550772E-01  0.59499016555E-01  0.13179650716E+00  0.20934723149E-01 0.  0.
         14    1    1    2    0    0 -0.58284578175E-02 -0.21628682812E-01 -0.72246019939E-02  0.23536476259E-01  0.00000000000E+00 0. -1.
     999901    1    3    3    0    0  0.10502611320E+00 -0.37967867960E-01 -0.52274414561E-01  0.88859701658E+00  0.88000000000E+00 0.  1.
        -11    1    4    4    0    0 -0.27236418990E-01  0.19130038539E-01  0.71747981647E-02  0.34051721595E-01  0.51100000000E-03 0. -1.
         11    1    4    4    0    0 -0.71961236388E-01  0.40466512234E-01  0.52324218390E-01  0.97744785570E-01  0.51100000000E-03 0.  1.
</event>
<event>
 7    1  0.1122465E+005  0.1043930E+01  0.7957747E-01            NaN
         13   -1    0    0    0    0  0.00000000000E+00  0.00000000000E+00  0.74505805969E-08  0.10566000000E+00  0.10566000000E+00 0. -1.
     999900   -1    0    0    0    0 -0.00000000000E+00 -0.00000000000E+00 -0.74505805969E-08  0.93827000000E+00  0.93827000000E+00 0. -1.
     999903    2    1    2    0    0  0.71564261482E-02  0.80615390828E-01 -0.43514191461E-01  0.94098766732E-01  0.20274056536E-01 0.  0.
         14    1    1    2    0    0  0.16980329275E-02  0.88237045495E-02  0.64383356665E-01  0.65007366454E-01  0.00000000000E+00 0. -1.
     999901    1    1    2    0    0 -0.88544590757E-02 -0.89439095378E-01 -0.20869165204E-01  0.88482386681E+00  0.88000000000E+00 0. -1.
        -11    1    3    3    0    0 -0.21876324316E-03  0.24537807686E-01 -0.23828207718E-01  0.34208134522E-01  0.51100000000E-03 0. -1.
         11    1    3    3    0    0  0.73751893914E-02  0.56077583143E-01 -0.19685983742E-01  0.59890632211E-01  0.51100000000E-03 0.  1.
</event>
<event>
 8    1  0.1122465E+005  0.1043930E+01  0.7957747E-01            NaN
         13   -1    0    0    0    0  0.00000000000E+00  0.00000000000E+00  0.74505805969E-08  0.10566000000E+00  0.10566000000E+00 0. -1.
     999900   -1    0    0    0    0 -0.00000000000E+00 -0.00000000000E+00 -0.74505805969E-08  0.93827000000E+00  0.93827000000E+00 0.  1.
     999902    2    1    2    0    0 -0.90268901887E-02  0.21686115997E-01  0.43171255952E-02  0.10200467434E+01  0.10197671051E+01 0.  0.
     999903    2    3    3    0    0 -0.66110625034E-01  0.52233950380E-01 -0.99228108401E-01  0.13161366292E+00  0.19414902917E-01 0.  0.
         14    1    1    2    0    0  0.90268901887E-02 -0.21686115997E-01 -0.43171255952E-02  0.23883256623E-01  0.00000000000E+00 0.  1.
     999901    1    3    3    0    0  0.57083734845E-01 -0.30547834382E-01  0.10354523400E+00  0.88843308046E+00  0.88000000000E+00 0. -1.
        -11    1    4    4    0    0  0.10720119712E-02  0.23734188442E-02 -0.45355283545E-02  0.52549467296E-02  0.51100000000E-03 0. -1.
         11    1    4    4    0    0 -0.67182637005E-01  0.49860531535E-01 -0.94692580047E-01  0.12635871619E+00  0.51100000000E-03 0.  1.
</event>
<event>
 8    1  0.1122465E+005  0.1043930E+01  0.7957747E-01            NaN
         13   -1    0    0    0    0  0.00000000000E+00  0.00000000000E+00  0.74505805969E-08  0.10566000000E+00  0.10566000000E+00 0. -1.
     999900   -1    0    0    0    0 -0.00000000000E+00 -0.00000000000E+00 -0.74505805969E-08  0.93827000000E+00  0.93827000000E+00 0. -1.
     999902    2    1    2    0    0  0.14632560880E-01 -0.11579710719E-01  0.75966422105E-02  0.10237827791E+01  0.10235845193E+01 0.  0.
     999903    2    3    3    0    0 -0.76235288880E-01  0.89851238571E-01 -0.53755667659E-01  0.13119703556E+00  0.20926681318E-01 0.  0.
         14    1    1    2    0    0 -0.14632560880E-01  0.11579710719E-01 -0.75966422105E-02  0.20147220928E-01  0.00000000000E+00 0.  1.
     999901    1    3    3    0    0  0.90867849760E-01 -0.10143094929E+00  0.61352309869E-01  0.89258574351E+00  0.88000000000E+00 0. -1.
        -11    1    4    4    0    0 -0.51992264442E-01  0.66848925588E-01 -0.47800441763E-01  0.97247713432E-01  0.51100000000E-03 0.  1.
         11    1    4    4    0    0 -0.24243024438E-01  0.23002312983E-01 -0.59552258957E-02  0.33949322128E-01  0.51100000000E-03 0. -1.
</event>
<event>
 8    1  0.1122465E+005  0.1043930E+01  0.7957747E-01            NaN
         13   -1    0    0    0    0  0.00000000000E+00  0.00000000000E+00  0.74505805969E-08  0.10566000000E+00  0.10566000000E+00 0. -1.
     999900   -1    0    0    0    0 -0.00000000000E+00 -0.00000000000E+00 -0.74505805969E-08  0.93827000000E+00  0.93827000000E+00 0. -1.
     999902    2    1    2    0    0  0.19351447772E-01  0.11875472873E-01  0.14141436875E-01  0.10171814370E+01  0.10168296761E+01 0.  0.
     999903    2    3    3    0    0  0.89813987075E-01  0.93380673096E-01 -0.67759260638E-02  0.13036375381E+00  0.12739417224E-01 0.  0.
         14    1    1    2    0    0 -0.19351447772E-01 -0.11875472873E-01 -0.14141436875E-01  0.26748563022E-01  0.00000000000E+00 0.  1.
     999901    1    3    3    0    0 -0.70462539303E-01 -0.81505200223E-01  0.20917362939E-01  0.88681768317E+00  0.88000000000E+00 0.  1.
        -11    1    4    4    0    0  0.51332901630E-01  0.44230331428E-01 -0.38266198722E-02  0.67869677682E-01  0.51100000000E-03 0.  1.
         11    1    4    4    0    0  0.38481085446E-01  0.49150341667E-01 -0.29493061915E-02  0.62494076128E-01  0.51100000000E-03 0. -1.
</event>
<event>
 8    1  0.1122465E+005  0.1043930E+01  0.7957747E-01            NaN
         13   -1    0    0    0    0  0.00000000000E+00  0.00000000000E+00  0.74505805969E-08  0.10566000000E+00  0.10566000000E+00 0. -1.
     999900   -1    0    0    0    0 -0.00000000000E+00 -0.00000000000E+00 -0.74505805969E-08  0.93827000000E+00  0.93827000000E+00 0.  1.
     999902    2    1    2    0    0  0.61062352113E-02  0.22224266283E-01  0.14139153888E-01  0.10168907731E+01  0.10165312216E+01 0.  0.
     999903    2    3    3    0    0 -0.87566242282E-01 -0.86132444753E-01  0.13500493125E-01  0.12531008813E+00  0.20825706391E-01 0.  0.
         14    1    1    2    0    0 -0.61062352113E-02 -0.22224266283E-01 -0.14139153888E-01  0.27039226929E-01  0.00000000000E+00 0.  1.
     999901    1    3    3    0    0  0.93672477494E-01  0.10835671104E+00  0.63866076280E-03  0.89158068494E+00  0.88000000000E+00 0.  1.
        -11    1    4    4    0    0 -0.28818310965E-01 -0.40176092194E-01  0.11131365655E-01  0.50683151571E-01  0.51100000000E-03 0. -1.
         11    1    4    4    0    0 -0.58747931317E-01 -0.45956352560E-01  0.23691274701E-02  0.74626936562E-01  0.51100000000E-03 0.  1.
</event>
<event>
 8    1  0.1122465E+005  0.1043930E+01  0.7957747E-01            NaN
         13   -1    0    0    0    0  0.00000000000E+00  0.00000000000E+00  0.74505805969E-08  0.10566000000E+00  0.10566000000E+00 0.  1.
     999900   -1    0    0    0    0 -0.00000000000E+00 -0.00000000000E+00 -0.74505805969E-08  0.93827000000E+00  0.93827000000E+00 0.  1.
     999902    2    1    2    0    0  0.14042763158E-01 -0.66128481705E-02  0.20454589060E-01  0.10182527889E+01  0.10179289871E+01 0.  0.
     999903    2    3    3    0    0  0.11151429657E+00  0.60842805704E-01 -0.15896443934E-01  0.12956141237E+00  0.19904203038E-01 0.  0.
         14    1    1    2    0    0 -0.14042763158E-01  0.66128481705E-02 -0.20454589060E-01  0.25677211135E-01  0.00000000000E+00 0. -1.
     999901    1    3    3    0    0 -0.97471533414E-01 -0.67455653874E-01  0.36351032993E-01  0.88869137650E+00  0.88000000000E+00 0. -1.
        -11    1    4    4    0    0  0.82126918235E-01  0.36178744941E-01 -0.16181301004E-01  0.91191161345E-01  0.51100000000E-03 0.  1.
         11    1    4    4    0    0  0.29387378337E-01  0.24664060762E-01  0.28485707068E-03  0.38370251021E-01  0.51100000000E-03 0. -1.
</event>
<event>
 8    1  0.1122465E+005  0.1043930E+01  0.7957747E-01            NaN
         13   -1    0    0    0    0  0.00000000000E+00  0.00000000000E+00  0.74505805969E-08  0.10566000000E+00  0.10566000000E+00 0.  1.
     999900   -1    0    0    0    0 -0.00000000000E+00 -0.00000000000E+00 -0.74505805969E-08  0.93827000000E+00  0.93827000000E+00 0. -1.
     999902    2    1    2    0    0  0.58936347593E-02  0.13411855443E-01 -0.17091797222E-01  0.10214190620E+01  0.10211709739E+01 0.  0.
     999903    2    3    3    0    0 -0.12766716289E-01 -0.46654682911E-01 -0.12221551029E+00  0.13293316297E+00  0.19873257937E-01 0.  0.
         14    1    1    2    0    0 -0.58936347593E-02 -0.13411855443E-01  0.17091797222E-01  0.22510937994E-01  0.00000000000E+00 0.  1.
     999901    1    3    3    0    0  0.18660351049E-01  0.60066538354E-01  0.10512371306E+00  0.88848589903E+00  0.88000000000E+00 0.  1.
        -11    1    4    4    0    0 -0.57363509553E-02 -0.36001315811E-01 -0.67191511272E-01  0.76445802831E-01  0.51100000000E-03 0.  1.
         11    1    4    4    0    0 -0.70303653340E-02 -0.10653367100E-01 -0.55023999015E-01  0.56487360142E-01  0.51100000000E-03 0. -1.
</event>
<event>
 8    1  0.1122465E+005  0.1043930E+01  0.7957747E-01            NaN
         13   -1    0    0    0    0  0.00000000000E+00  0.00000000000E+00  0.74505805969E-08  0.10566000000E+00  0.10566000000E+00 0.  1.
     999900   -1    0    0    0    0 -0.00000000000E+00 -0.00000000000E+00 -0.74505805969E-08  0.93827000000E+00  0.93827000000E+00 0. -1.
     999902    2    1    2    0    0 -0.22576376916E-01 -0.34423044309E-02  0.18332269751E-03  0.10210919646E+01  0.10208365316E+01 0.  0.
     999903    2    3    3    0    0 -0.35280730342E-01  0.27507429838E-01 -0.12254659259E+00  0.13194522824E+00  0.19760750740E-01 0.  0.
         14    1    1    2    0    0  0.22576376916E-01  0.34423044309E-02 -0.18332269751E-03  0.22838035416E-01  0.00000000000E+00 0. -1.
     999901    1    3    3    0    0  0.12704353426E-01 -0.30949734269E-01  0.12272991529E+00  0.88914673635E+00  0.88000000000E+00 0.  1.
        -11    1    4    4    0    0 -0.14269240804E-01  0.82145133773E-02 -0.72404975712E-01  0.74255175523E-01  0.51100000000E-03 0.  1.
         11    1    4    4    0    0 -0.21011489538E-01  0.19292916461E-01 -0.50141616877E-01  0.57690052715E-01  0.51100000000E-03 0. -1.
</event>
<event>
 8    1  0.1122465E+005  0.1043930E+01  0.7957747E-01            NaN
         13   -1    0    0    0    0  0.00000000000E+00  0.00000000000E+00  0.74505805969E-08  0.10566000000E+00  0.10566000000E+00 0. -1.
     999900   -1    0    0    0    0 -0.00000000000E+00 -0.00000000000E+00 -0.74505805969E-08  0.93827000000E+00  0.93827000000E+00 0. -1.
     999902    2    1    2    0    0  0.22348507034E-01  0.40616866131E-03  0.80509044418E-02  0.10201721002E+01  0.10198954242E+01 0.  0.
     999903    2    3    3    0    0  0.57890653582E-01 -0.34172490722E-01 -0.11050289380E+00  0.13083868077E+00  0.19717605188E-01 0.  0.
         14    1    1    2    0    0 -0.22348507034E-01 -0.40616866131E-03 -0.80509044418E-02  0.23757899781E-01  0.00000000000E+00 0. -1.
     999901    1    3    3    0    0 -0.35542146548E-01  0.34578659383E-01  0.11855379824E+00  0.88933341945E+00  0.88000000000E+00 0.  1.
        -11    1    4    4    0    0  0.25120721821E-01 -0.71649720739E-02 -0.55555129996E-01  0.61392353592E-01  0.51100000000E-03 0.  1.
         11    1    4    4    0    0  0.32769931761E-01 -0.27007518648E-01 -0.54947763803E-01  0.69446327182E-01  0.51100000000E-03 0. -1.
</event>
<event>
 8    1  0.1122465E+005  0.1043930E+01  0.7957747E-01            NaN
         13   -1    0    0    0    0  0.00000000000E+00  0.00000000000E+00  0.74505805969E-08  0.10566000000E+00  0.10566000000E+00 0. -1.
     999900   -1    0    0    0    0 -0.00000000000E+00 -0.00000000000E+00 -0.74505805969E-08  0.93827000000E+00  0.93827000000E+00 0.  1.
     999902    2    1    2    0    0 -0.21624694709E-01  0.53800426904E-02 -0.70357317722E-02  0.10205617779E+01  0.10202942070E+01 0.  0.
     999903    2    3    3    0    0  0.88459622906E-01 -0.90751899836E-01  0.47115111737E-02  0.12843067487E+00  0.20278749971E-01 0.  0.
         14    1    1    2    0    0  0.21624694709E-01 -0.53800426904E-02  0.70357317722E-02  0.23368222058E-01  0.00000000000E+00 0. -1.
     999901    1    3    3    0    0 -0.11008431762E+00  0.96131942526E-01 -0.11747242946E-01  0.89213110308E+00  0.88000000000E+00 0. -1.
        -11    1    4    4    0    0  0.48560712699E-01 -0.41118076070E-01  0.10463372235E-01  0.64487070619E-01  0.51100000000E-03 0. -1.
         11    1    4    4    0    0  0.39898910208E-01 -0.49633823766E-01 -0.57518610614E-02  0.63943604246E-01  0.51100000000E-03 0.  1.
</event>
<event>
 8    1  0.1122465E+005  0.1043930E+01  0.7957747E-01            NaN
         13   -1    0    0    0    0  0.00000000000E+00  0.00000000000E+00  0.74505805969E-08  0.10566000000E+00  0.10566000000E+00 0.  1.
     999900   -1    0    0    0    0 -0.00000000000E+00 -0.00000000000E+00 -0.74505805969E-08  0.93827000000E+00  0.93827000000E+00 0. -1.
     999902    2    1    2    0    0 -0.18646676061E-01  0.84953263650E-02 -0.12090715973E-01  0.10201380999E+01  0.10198606220E+01 0.  0.
     999903    2    3    3    0    0 -0.93083320953E-01 -0.90477295897E-01 -0.49490593076E-02  0.13143826456E+00  0.20021950179E-01 0.  0.
         14    1    1    2    0    0  0.18646676061E-01 -0.84953263650E-02  0.12090715973E-01  0.23791900112E-01  0.00000000000E+00 0. -1.
     999901    1    3    3    0    0  0.74436644891E-01  0.98972622262E-01 -0.71416566658E-02  0.88869983533E+00  0.88000000000E+00 0.  1.
        -11    1    4    4    0    0 -0.79149475713E-01 -0.71566413157E-01 -0.10717403699E-01  0.10724511579E+00  0.51100000000E-03 0.  1.
         11    1    4    4    0    0 -0.13933845239E-01 -0.18910882740E-01  0.57683443915E-02  0.24193148765E-01  0.51100000000E-03 0. -1.
</event>
<event>
 8    1  0.1122465E+005  0.1043930E+01  0.7957747E-01            NaN
         13   -1    0    0    0    0  0.00000000000E+00  0.00000000000E+00  0.74505805969E-08  0.10566000000E+00  0.10566000000E+00 0. -1.
     999900   -1    0    0    0    0 -0.00000000000E+00 -0.00000000000E+00 -0.74505805969E-08  0.93827000000E+00  0.93827000000E+00 0. -1.
     999902    2    1    2    0    0  0.16018386056E-01  0.13314193186E-01  0.10634718712E-01  0.10205429593E+01  0.10202749522E+01 0.  0.
     999903    2    3    3    0    0  0.61407033196E-01  0.45689996988E-01 -0.10478503709E+00  0.13125670502E+00  0.19748900328E-01 0.  0.
         14    1    1    2    0    0 -0.16018386056E-01 -0.13314193186E-01 -0.10634718712E-01  0.23387040730E-01  0.00000000000E+00 0.  1.
     999901    1    3    3    0    0 -0.45388647141E-01 -0.32375803802E-01  0.11541975581E+00  0.88928625425E+00  0.88000000000E+00 0.  1.
        -11    1    4    4    0    0  0.51435134185E-01  0.31323899433E-01 -0.70164154030E-01  0.92466368676E-01  0.51100000000E-03 0. -1.
         11    1    4    4    0    0  0.99718990107E-02  0.14366097555E-01 -0.34620883064E-01  0.38790336348E-01  0.51100000000E-03 0.  1.
</event>
<event>
 8    1  0.1122465E+005  0.1043930E+01  0.7957747E-01            NaN
         13   -1    0    0    0    0  0.00000000000E+00  0.00000000000E+00  0.74505805969E-08  0.10566000000E+00  0.10566000000E+00 0.  1.
     999900   -1    0    0    0    0 -0.00000000000E+00 -0.00000000000E+00 -0.74505805969E-08  0.93827000000E+00  0.93827000000E+00 0.  1.
     999902    2    1    2    0    0  0.23513867828E-01  0.42759403592E-02 -0.22792291128E-02  0.10199220736E+01  0.10196394734E+01 0.  0.
     999903    2    3    3    0    0  0.76825794914E-01  0.75097697959E-01  0.74354869296E-01  0.13215483608E+00  0.19859181961E-01 0.  0.
         14    1    1    2    0    0 -0.23513867828E-01 -0.42759403592E-02  0.22792291128E-02  0.24007926432E-01  0.00000000000E+00 0. -1.
     999901    1    3    3    0    0 -0.53311927086E-01 -0.70821757600E-01 -0.76634098409E-01  0.88776723749E+00  0.88000000000E+00 0.  1.
        -11    1    4    4    0    0  0.40337263405E-01  0.44234511047E-01  0.52399238420E-01  0.79559588326E-01  0.51100000000E-03 0. -1.
         11    1    4    4    0    0  0.36488531510E-01  0.30863186912E-01  0.21955630876E-01  0.52595247754E-01  0.51100000000E-03 0.  1.
</event>
<event>
 8    1  0.1122465E+005  0.1043930E+01  0.7957747E-01            NaN
         13   -1    0    0    0    0  0.00000000000E+00  0.00000000000E+00  0.74505805969E-08  0.10566000000E+00  0.10566000000E+00 0.  1.
     999900   -1    0    0    0    0 -0.00000000000E+00 -0.00000000000E+00 -0.74505805969E-08  0.93827000000E+00  0.93827000000E+00 0.  1.
     999902    2    1    2    0    0  0.97448455439E-02 -0.19959887566E-01  0.90173632509E-02  0.10199576833E+01  0.10196759308E+01 0.  0.
     999903    2    3    3    0    0  0.20098193111E-01  0.12380821493E+00  0.16871772728E-01  0.12819641996E+00  0.20426794327E-01 0.  0.
         14    1    1    2    0    0 -0.97448455439E-02  0.19959887566E-01 -0.90173632509E-02  0.23972316665E-01  0.00000000000E+00 0. -1.
     999901    1    3    3    0    0 -0.10353347567E-01 -0.14376810249E+00 -0.78544094771E-02  0.89176126337E+00  0.88000000000E+00 0.  1.
        -11    1    4    4    0    0  0.22877286117E-01  0.80986070439E-01  0.10443265909E-01  0.84802339290E-01  0.51100000000E-03 0.  1.
         11    1    4    4    0    0 -0.27790930056E-02  0.42822144489E-01  0.64285068188E-02  0.43394080674E-01  0.51100000000E-03 0. -1.
</event>
<event>
 8    1  0.1122465E+005  0.1043930E+01  0.7957747E-01            NaN
         13   -1    0    0    0    0  0.00000000000E+00  0.00000000000E+00  0.74505805969E-08  0.10566000000E+00  0.10566000000E+00 0.  1.
     999900   -1    0    0    0    0 -0.00000000000E+00 -0.00000000000E+00 -0.74505805969E-08  0.93827000000E+00  0.93827000000E+00 0. -1.
     999902    2    1    2    0    0 -0.15204608851E-01 -0.79829639126E-02  0.16471430777E-01  0.10201347090E+01  0.10198571511E+01 0.  0.
     999903    2    3    3    0    0 -0.45072050897E-01  0.11445262581E+00  0.42109367098E-01  0.13078672224E+00  0.14180077242E-01 0.  0.
         14    1    1    2    0    0  0.15204608851E-01  0.79829639126E-02 -0.16471430777E-01  0.23795291025E-01  0.00000000000E+00 0.  1.
     999901    1    3    3    0    0  0.29867442045E-01 -0.12243558972E+00 -0.25637936321E-01  0.88934798673E+00  0.88000000000E+00 0. -1.
        -11    1    4    4    0    0 -0.17549328164E-01  0.52384124155E-01  0.12129771909E-01  0.56563838891E-01  0.51100000000E-03 0. -1.
         11    1    4    4    0    0 -0.27522722732E-01  0.62068501656E-01  0.29979595188E-01  0.74222883351E-01  0.51100000000E-03 0.  1.
</event>
<event>
 8    1  0.1122465E+005  0.1043930E+01  0.7957747E-01            NaN
         13   -1    0    0    0    0  0.00000000000E+00  0.00000000000E+00  0.74505805969E-08  0.10566000000E+00  0.10566000000E+00 0. -1.
     999900   -1    0    0    0    0 -0.00000000000E+00 -0.00000000000E+00 -0.74505805969E-08  0.93827000000E+00  0.93827000000E+00 0.  1.
     999902    2    1    2    0    0  0.86614273094E-02  0.14423259345E-01 -0.15958069371E-01  0.10207414099E+01  0.10204779837E+01 0.  0.
     999903    2    3    3    0    0  0.39919817351E-01  0.78311916264E-01 -0.99069539481E-01  0.13396840405E+00  0.20159652371E-01 0.  0.
         14    1    1    2    0    0 -0.86614273094E-02 -0.14423259345E-01  0.15958069371E-01  0.23188590109E-01  0.00000000000E+00 0. -1.
     999901    1    3    3    0    0 -0.31258390041E-01 -0.63888656918E-01  0.83111470110E-01  0.88677300584E+00  0.88000000000E+00 0. -1.
        -11    1    4    4    0    0  0.13423967651E-01  0.46059087410E-01 -0.59682274377E-01  0.76575958605E-01  0.51100000000E-03 0.  1.
         11    1    4    4    0    0  0.26495849700E-01  0.32252828854E-01 -0.39387265104E-01  0.57392445441E-01  0.51100000000E-03 0. -1.
</event>
<event>
 8    1  0.1122465E+005  0.1043930E+01  0.7957747E-01            NaN
         13   -1    0    0    0    0  0.00000000000E+00  0.00000000000E+00  0.74505805969E-08  0.10566000000E+00  0.10566000000E+00 0.  1.
     999900   -1    0    0    0    0 -0.00000000000E+00 -0.00000000000E+00 -0.74505805969E-08  0.93827000000E+00  0.93827000000E+00 0.  1.
     999902    2    1    2    0    0 -0.21622720883E-01  0.55524863182E-02 -0.58689112820E-02  0.10208471864E+01  0.10205861854E+01 0.  0.
     999903    2    3    3    0    0 -0.21408518310E-01  0.57393339073E-01  0.11419727549E+00  0.13118241299E+00  0.20383515951E-01 0.  0.
         14    1    1    2    0    0  0.21622720883E-01 -0.55524863182E-02  0.58689112820E-02  0.23082813571E-01  0.00000000000E+00 0. -1.
     999901    1    3    3    0    0 -0.21420257315E-03 -0.51840852755E-01 -0.12006618677E+00  0.88966477344E+00  0.88000000000E+00 0.  1.
        -11    1    4    4    0    0 -0.51682507532E-02  0.36136839450E-01  0.52629174341E-01  0.64052112331E-01  0.51100000000E-03 0.  1.
         11    1    4    4    0    0 -0.16240267557E-01  0.21256499623E-01  0.61568101146E-01  0.67130300657E-01  0.51100000000E-03 0. -1.
</event>
<event>
 8    1  0.1122465E+005  0.1043930E+01  0.7957747E-01            NaN
         13   -1    0    0    0    0  0.00000000000E+00  0.00000000000E+00  0.74505805969E-08  0.10566000000E+00  0.10566000000E+00 0.  1.
     999900   -1    0    0    0    0 -0.00000000000E+00 -0.00000000000E+00 -0.74505805969E-08  0.93827000000E+00  0.93827000000E+00 0.  1.
     999902    2    1    2    0    0  0.12082737756E-01 -0.16981710618E-01 -0.52865676801E-02  0.10224283990E+01  0.10222022854E+01 0.  0.
     999903    2    3    3    0    0  0.77863044421E-01 -0.10178583732E+00  0.39143911047E-01  0.13479510982E+00  0.14644640394E-01 0.  0.
         14    1    1    2    0    0 -0.12082737756E-01  0.16981710618E-01  0.52865676801E-02  0.21501600987E-01  0.00000000000E+00 0. -1.
     999901    1    3    3    0    0 -0.65780306665E-01  0.84804126705E-01 -0.44430478727E-01  0.88763328920E+00  0.88000000000E+00 0.  1.
        -11    1    4    4    0    0  0.58810022868E-01 -0.66849743895E-01  0.24019317946E-01  0.92220907630E-01  0.51100000000E-03 0.  1.
         11    1    4    4    0    0  0.19053021553E-01 -0.34936093427E-01  0.15124593100E-01  0.42574202185E-01  0.51100000000E-03 0. -1.
</event>
<event>
 8    1  0.1122465E+005  0.1043930E+01  0.7957747E-01            NaN
         13   -1    0    0    0    0  0.00000000000E+00  0.00000000000E+00  0.74505805969E-08  0.10566000000E+00  0.10566000000E+00 0.  1.
     999900   -1    0    0    0    0 -0.00000000000E+00 -0.00000000000E+00 -0.74505805969E-08  0.93827000000E+00  0.93827000000E+00 0. -1.
     999902    2    1    2    0    0 -0.21060098708E-01 -0.98346020176E-02 -0.26782950509E-02  0.10205329827E+01  0.10202647442E+01 0.  0.
     999903    2    3    3    0    0 -0.82378555799E-01  0.21880780460E-01  0.98329703873E-01  0.13206889534E+00  0.22549222701E-01 0.  0.
         14    1    1    2    0    0  0.21060098708E-01  0.98346020176E-02  0.26782950509E-02  0.23397017306E-01  0.00000000000E+00 0. -1.
     999901    1    3    3    0    0  0.61318457091E-01 -0.31715382478E-01 -0.10100799892E+00  0.88846408735E+00  0.88000000000E+00 0.  1.
        -11    1    4    4    0    0 -0.50994110015E-01  0.55385838511E-02  0.46025449375E-01  0.68917909708E-01  0.51100000000E-03 0. -1.
         11    1    4    4    0    0 -0.31384445783E-01  0.16342196609E-01  0.52304254498E-01  0.63150985635E-01  0.51100000000E-03 0.  1.
</event>
<event>
 8    1  0.1122465E+005  0.1043930E+01  0.7957747E-01            NaN
         13   -1    0    0    0    0  0.00000000000E+00  0.00000000000E+00  0.74505805969E-08  0.10566000000E+00  0.10566000000E+00 0. -1.
     999900   -1    0    0    0    0 -0.00000000000E+00 -0.00000000000E+00 -0.74505805969E-08  0.93827000000E+00  0.93827000000E+00 0.  1.
     999902    2    1    2    0    0  0.39094672039E-02  0.13664434999E-01  0.17857014052E-01  0.10211073431E+01  0.10208522579E+01 0.  0.
     999903    2    3    3    0    0  0.49131689028E-01 -0.10756737448E+00 -0.47999950717E-01  0.12921085762E+00  0.20168974695E-01 0.  0.
         14    1    1    2    0    0 -0.39094672039E-02 -0.13664434999E-01 -0.17857014052E-01  0.22822656911E-01  0.00000000000E+00 0.  1.
     999901    1    3    3    0    0 -0.45222221824E-01  0.12123180948E+00  0.65856964769E-01  0.89189648546E+00  0.88000000000E+00 0. -1.
        -11    1    4    4    0    0  0.33466995078E-01 -0.91225847754E-01 -0.36365748622E-01  0.10375415101E+00  0.51100000000E-03 0.  1.
         11    1    4    4    0    0  0.15664693951E-01 -0.16341526723E-01 -0.11634202096E-01  0.25456706614E-01  0.51100000000E-03 0. -1.
</event>
<event>
 8    1  0.1122465E+005  0.1043930E+01  0.7957747E-01            NaN
         13   -1    0    0    0    0  0.00000000000E+00  0.00000000000E+00  0.74505805969E-08  0.10566000000E+00  0.10566000000E+00 0.  1.
     999900   -1    0    0    0    0 -0.00000000000E+00 -0.00000000000E+00 -0.74505805969E-08  0.93827000000E+00  0.93827000000E+00 0. -1.
     999902    2    1    2    0    0  0.29393580257E-03 -0.21980882264E-01  0.16590540897E-02  0.10218846367E+01  0.10216468140E+01 0.  0.
     999903    2    3    3    0    0  0.12180983472E-01 -0.98334971664E-01  0.88128246964E-01  0.13427651922E+00  0.21105750169E-01 0.  0.
         14    1    1    2    0    0 -0.29393580257E-03  0.21980882264E-01 -0.16590540897E-02  0.22045363318E-01  0.00000000000E+00 0. -1.
     999901    1    3    3    0    0 -0.11887047669E-01  0.76354089400E-01 -0.86469192874E-01  0.88760811746E+00  0.88000000000E+00 0. -1.
        -11    1    4    4    0    0  0.10751253509E-01 -0.96809208593E-01  0.80545036848E-01  0.12639373561E+00  0.51100000000E-03 0. -1.
         11    1    4    4    0    0  0.14297299629E-02 -0.15257630710E-02  0.75832101161E-02  0.78827836061E-02  0.51100000000E-03 0.  1.
</event>
<event>
 8    1  0.1122465E+005  0.1043930E+01  0.7957747E-01            NaN
         13   -1    0    0    0    0  0.00000000000E+00  0.00000000000E+00  0.74505805969E-08  0.10566000000E+00  0.10566000000E+00 0.  1.
     999900   -1    0    0    0    0 -0.00000000000E+00 -0.00000000000E+00 -0.74505805969E-08  0.93827000000E+00  0.93827000000E+00 0. -1.
     999902    2    1    2    0    0 -0.17229355287E-01  0.42460152153E-02 -0.18385367509E-01  0.10183780712E+01  0.10180574614E+01 0.  0.
     999903    2    3    3    0    0  0.53995018147E-01  0.27107126702E-01 -0.11351229262E+00  0.13009620505E+00  0.19741420645E-01 0.  0.
         14    1    1    2    0    0  0.17229355287E-01 -0.42460152153E-02  0.18385367509E-01  0.25551928836E-01  0.00000000000E+00 0.  1.
     999901    1    3    3    0    0 -0.71224373434E-01 -0.22861111487E-01  0.95126925112E-01  0.88828186612E+00  0.88000000000E+00 0. -1.
        -11    1    4    4    0    0  0.58609048525E-02  0.81121089443E-02 -0.32110810702E-01  0.33638100454E-01  0.51100000000E-03 0.  1.
         11    1    4    4    0    0  0.48134113295E-01  0.18995017758E-01 -0.81401481919E-01  0.96458104594E-01  0.51100000000E-03 0. -1.
</event>
<event>
 8    1  0.1122465E+005  0.1043930E+01  0.7957747E-01            NaN
         13   -1    0    0    0    0  0.00000000000E+00  0.00000000000E+00  0.74505805969E-08  0.10566000000E+00  0.10566000000E+00 0. -1.
     999900   -1    0    0    0    0 -0.00000000000E+00 -0.00000000000E+00 -0.74505805969E-08  0.93827000000E+00  0.93827000000E+00 0.  1.
     999902    2    1    2    0    0  0.20969380917E-01 -0.95682987927E-02  0.19948823279E-02  0.10207945978E+01  0.10205323925E+01 0.  0.
     999903    2    3    3    0    0  0.42441319373E-01  0.11363916847E+00 -0.44163088714E-01  0.13075432772E+00  0.20765105623E-01 0.  0.
         14    1    1    2    0    0 -0.20969380917E-01  0.95682987927E-02 -0.19948823279E-02  0.23135402165E-01  0.00000000000E+00 0.  1.
     999901    1    3    3    0    0 -0.21471938456E-01 -0.12320746727E+00  0.46157971042E-01  0.89004027011E+00  0.88000000000E+00 0.  1.
        -11    1    4    4    0    0  0.33156472903E-01  0.84766940036E-01 -0.42281734263E-01  0.10036330002E+00  0.51100000000E-03 0.  1.
         11    1    4    4    0    0  0.92848464697E-02  0.28872228438E-01 -0.18813544518E-02  0.30391027698E-01  0.51100000000E-03 0. -1.
</event>
<event>
 8    1  0.1122465E+005  0.1043930E+01  0.7957747E-01            NaN
         13   -1    0    0    0    0  0.00000000000E+00  0.00000000000E+00  0.74505805969E-08  0.10566000000E+00  0.10566000000E+00 0.  1.
     999900   -1    0    0    0    0 -0.00000000000E+00 -0.00000000000E+00 -0.74505805969E-08  0.93827000000E+00  0.93827000000E+00 0.  1.
     999902    2    1    2    0    0 -0.18864305161E-01 -0.95339573187E-02 -0.12702844040E-01  0.10192698987E+01  0.10189715431E+01 0.  0.
     999903    2    3    3    0    0 -0.97691397587E-01  0.52234583957E-01  0.65233809932E-01  0.13016743818E+00  0.20397330259E-01 0.  0.
         14    1    1    2    0    0  0.18864305161E-01  0.95339573187E-02  0.12702844040E-01  0.24660101340E-01  0.00000000000E+00 0. -1.
     999901    1    3    3    0    0  0.78827092426E-01 -0.61768541275E-01 -0.77936653972E-01  0.88910246048E+00  0.88000000000E+00 0.  1.
        -11    1    4    4    0    0 -0.33943769347E-01  0.19178597125E-01  0.12059288608E-01  0.40812812055E-01  0.51100000000E-03 0.  1.
         11    1    4    4    0    0 -0.63747628241E-01  0.33055986832E-01  0.53174521324E-01  0.89354626129E-01  0.51100000000E-03 0. -1.
</event>
<event>
 8    1  0.1122465E+005  0.1043930E+01  0.7957747E-01            NaN
         13   -1    0    0    0    0  0.00000000000E+00  0.00000000000E+00  0.74505805969E-08  0.10566000000E+00  0.10566000000E+00 0. -1.
     999900   -1    0    0    0    0 -0.00000000000E+00 -0.00000000000E+00 -0.74505805969E-08  0.93827000000E+00  0.93827000000E+00 0.  1.
     999902    2    1    2    0    0  0.23233887087E-01 -0.26901436156E-02  0.68614703042E-02  0.10195552147E+01  0.10192638058E+01 0.  0.
     999903    2    3    3    0    0  0.43842704913E-01  0.89763593526E-01 -0.80898104626E-01  0.13013171613E+00  0.20250301581E-01 0.  0.
         14    1    1    2    0    0 -0.23233887087E-01  0.26901436156E-02 -0.68614703042E-02  0.24374785262E-01  0.00000000000E+00 0.  1.
     999901    1    3    3    0    0 -0.20608817826E-01 -0.92453737142E-01  0.87759574930E-01  0.88942349861E+00  0.88000000000E+00 0. -1.
        -11    1    4    4    0    0  0.10774036952E-01  0.43479933667E-01 -0.40156187539E-01  0.60161158754E-01  0.51100000000E-03 0. -1.
         11    1    4    4    0    0  0.33068667960E-01  0.46283659859E-01 -0.40741917087E-01  0.69970557376E-01  0.51100000000E-03 0.  1.
</event>
<event>
 8    1  0.1122465E+005  0.1043930E+01  0.7957747E-01            NaN
         13   -1    0    0    0    0  0.00000000000E+00  0.00000000000E+00  0.74505805969E-08  0.10566000000E+00  0.10566000000E+00 0. -1.
     999900   -1    0    0    0    0 -0.00000000000E+00 -0.00000000000E+00 -0.74505805969E-08  0.93827000000E+00  0.93827000000E+00 0.  1.
     999902    2    1    2    0    0  0.15168323002E-01  0.15541828729E-01  0.10151747458E-01  0.10199574232E+01  0.10196756644E+01 0.  0.
     999903    2    3    3    0    0 -0.74421447649E-01 -0.84762326501E-01  0.58079088279E-01  0.12845067584E+00  0.20079635531E-01 0.  0.
         14    1    1    2    0    0 -0.15168323002E-01 -0.15541828729E-01 -0.10151747458E-01  0.23972576820E-01  0.00000000000E+00 0. -1.
     999901    1    3    3    0    0  0.89589770652E-01  0.10030415523E+00 -0.47927340821E-01  0.89150674734E+00  0.88000000000E+00 0.  1.
        -11    1    4    4    0    0 -0.32266634221E-01 -0.25806111956E-01  0.14032909397E-01  0.43637996808E-01  0.51100000000E-03 0. -1.
         11    1    4    4    0    0 -0.42154813428E-01 -0.58956214546E-01  0.44046178883E-01  0.84812679028E-01  0.51100000000E-03 0.  1.
</event>
<event>
 8    1  0.1122465E+005  0.1043930E+01  0.7957747E-01            NaN
         13   -1    0    0    0    0  0.00000000000E+00  0.00000000000E+00  0.74505805969E-08  0.10566000000E+00  0.10566000000E+00 0. -1.
     999900   -1    0    0    0    0 -0.00000000000E+00 -0.00000000000E+00 -0.74505805969E-08  0.93827000000E+00  0.93827000000E+00 0. -1.
     999902    2    1    2    0    0  0.67484558988E-02  0.17871849936E-01  0.11910907499E-01  0.10214174614E+01  0.10211693376E+01 0.  0.
     999903    2    3    3    0    0 -0.11513812919E+00 -0.12530615192E-01  0.58060396243E-01  0.13129925305E+00  0.21323206334E-01 0.  0.
         14    1    1    2    0    0 -0.67484558988E-02 -0.17871849936E-01 -0.11910907499E-01  0.22512538609E-01  0.00000000000E+00 0.  1.
     999901    1    3    3    0    0  0.12188658509E+00  0.30402465128E-01 -0.46149488743E-01  0.89011820834E+00  0.88000000000E+00 0.  1.
        -11    1    4    4    0    0 -0.83022087167E-01 -0.75073851624E-02  0.51934839454E-01  0.98216681168E-01  0.51100000000E-03 0.  1.
         11    1    4    4    0    0 -0.32116042025E-01 -0.50232300294E-02  0.61255567893E-02  0.33082571881E-01  0.51100000000E-03 0. -1.
</event>
<event>
 8    1  0.1122465E+005  0.1043930E+01  0.7957747E-01            NaN
         13   -1    0    0    0    0  0.00000000000E+00  0.00000000000E+00  0.74505805969E-08  0.10566000000E+00  0.10566000000E+00 0.  1.
     999900   -1    0    0    0    0 -0.00000000000E+00 -0.00000000000E+00 -0.74505805969E-08  0.93827000000E+00  0.93827000000E+00 0.  1.
     999902    2    1    2    0    0 -0.47235192537E-02 -0.12191820364E-01  0.18331484055E-01  0.10214134411E+01  0.10211652277E+01 0.  0.
     999903    2    3    3    0    0 -0.10980033795E+00 -0.55704317244E-01  0.47912801518E-01  0.13360178901E+00  0.19867468469E-01 0.  0.
         14    1    1    2    0    0  0.47235192537E-02  0.12191820364E-01 -0.18331484055E-01  0.22516558919E-01  0.00000000000E+00 0. -1.
     999901    1    3    3    0    0  0.10507681870E+00  0.43512496881E-01 -0.29581317463E-01  0.88781165207E+00  0.88000000000E+00 0.  1.
        -11    1    4    4    0    0 -0.10612061673E+00 -0.50300513204E-01  0.41856644239E-01  0.12467544550E+00  0.51100000000E-03 0. -1.
         11    1    4    4    0    0 -0.36797212196E-02 -0.54038040402E-02  0.60561572791E-02  0.89263435038E-02  0.51100000000E-03 0.  1.
</event>
<event>
 8    1  0.1122465E+005  0.1043930E+01  0.7957747E-01            NaN
         13   -1    0    0    0    0  0.00000000000E+00  0.00000000000E+00  0.74505805969E-08  0.10566000000E+00  0.10566000000E+00 0. -1.
     999900   -1    0    0    0    0 -0.00000000000E+00 -0.00000000000E+00 -0.74505805969E-08  0.93827000000E+00  0.93827000000E+00 0.  1.
     999902    2    1    2    0    0  0.51687216575E-02  0.13168498764E-01 -0.17926356766E-01  0.10210940785E+01  0.10208386934E+01 0.  0.
     999903    2    3    3    0    0 -0.13889846098E-01 -0.71548157858E-01 -0.10863204178E+00  0.13218032442E+00  0.18938081920E-01 0.  0.
         14    1    1    2    0    0 -0.51687216575E-02 -0.13168498764E-01  0.17926356766E-01  0.22835921488E-01  0.00000000000E+00 0. -1.
     999901    1    3    3    0    0  0.19058567756E-01  0.84716656623E-01  0.90705685010E-01  0.88891375409E+00  0.88000000000E+00 0. -1.
        -11    1    4    4    0    0 -0.30283806050E-02 -0.34857445471E-01 -0.67295656802E-01  0.75849714167E-01  0.51100000000E-03 0. -1.
         11    1    4    4    0    0 -0.10861465493E-01 -0.36690712387E-01 -0.41336384974E-01  0.56330610257E-01  0.51100000000E-03 0.  1.
</event>
<event>
 8    1  0.1122465E+005  0.1043930E+01  0.7957747E-01            NaN
         13   -1    0    0    0    0  0.00000000000E+00  0.00000000000E+00  0.74505805969E-08  0.10566000000E+00  0.10566000000E+00 0. -1.
     999900   -1    0    0    0    0 -0.00000000000E+00 -0.00000000000E+00 -0.74505805969E-08  0.93827000000E+00  0.93827000000E+00 0. -1.
     999902    2    1    2    0    0 -0.13016626119E-01 -0.14681095303E-01  0.13969221874E-01  0.10198446045E+01  0.10195601557E+01 0.  0.
     999903    2    3    3    0    0 -0.45490079282E-01  0.10813402619E+00  0.52131510670E-01  0.12990391016E+00  0.19875022901E-01 0.  0.
         14    1    1    2    0    0  0.13016626119E-01  0.14681095303E-01 -0.13969221874E-01  0.24085395463E-01  0.00000000000E+00 0.  1.
     999901    1    3    3    0    0  0.32473453162E-01 -0.12281512150E+00 -0.38162288796E-01  0.88994069438E+00  0.88000000000E+00 0. -1.
        -11    1    4    4    0    0 -0.30202259934E-02  0.29086452190E-01  0.13117101155E-01  0.32054062609E-01  0.51100000000E-03 0.  1.
         11    1    4    4    0    0 -0.42469853288E-01  0.79047574004E-01  0.39014409515E-01  0.97849847547E-01  0.51100000000E-03 0. -1.
</event>
<event>
 8    1  0.1122465E+005  0.1043930E+01  0.7957747E-01            NaN
         13   -1    0    0    0    0  0.00000000000E+00  0.00000000000E+00  0.74505805969E-08  0.10566000000E+00  0.10566000000E+00 0. -1.
     999900   -1    0    0    0    0 -0.00000000000E+00 -0.00000000000E+00 -0.74505805969E-08  0.93827000000E+00  0.93827000000E+00 0. -1.
     999902    2    1    2    0    0  0.12535370228E-02 -0.14968419774E-01  0.16091085987E-01  0.10219175491E+01  0.10216804438E+01 0.  0.
     999903    2    3    3    0    0 -0.96710053132E-01  0.81845290923E-01  0.27502722473E-01  0.13113138790E+00  0.19686419820E-01 0.  0.
         14    1    1    2    0    0 -0.12535370228E-02  0.14968419774E-01 -0.16091085987E-01  0.22012450882E-01  0.00000000000E+00 0. -1.
     999901    1    3    3    0    0  0.97963590155E-01 -0.96813710696E-01 -0.11411636486E-01  0.89078616122E+00  0.88000000000E+00 0.  1.
        -11    1    4    4    0    0 -0.41767077163E-01  0.27338360113E-01  0.18393744529E-01  0.53202120514E-01  0.51100000000E-03 0.  1.
         11    1    4    4    0    0 -0.54942975969E-01  0.54506930810E-01  0.91089779437E-02  0.77929267383E-01  0.51100000000E-03 0. -1.
</event>
<event>
 8    1  0.1122465E+005  0.1043930E+01  0.7957747E-01            NaN
         13   -1    0    0    0    0  0.00000000000E+00  0.00000000000E+00  0.74505805969E-08  0.10566000000E+00  0.10566000000E+00 0.  1.
     999900   -1    0    0    0    0 -0.00000000000E+00 -0.00000000000E+00 -0.74505805969E-08  0.93827000000E+00  0.93827000000E+00 0.  1.
     999902    2    1    2    0    0  0.18573217246E-01  0.13265847793E-01  0.28201735200E-02  0.10209321632E+01  0.10206731022E+01 0.  0.
     999903    2    3    3    0    0 -0.76051534374E-01  0.31562841420E-01 -0.98310120118E-01  0.12991254512E+00  0.20792807012E-01 0.  0.
         14    1    1    2    0    0 -0.18573217246E-01 -0.13265847793E-01 -0.28201735200E-02  0.22997836751E-01  0.00000000000E+00 0. -1.
     999901    1    3    3    0    0  0.94624751621E-01 -0.18296993627E-01  0.10113029364E+00  0.89101961813E+00  0.88000000000E+00 0. -1.
        -11    1    4    4    0    0 -0.11762420294E-01  0.57305118870E-02 -0.29439000625E-01  0.32219701681E-01  0.51100000000E-03 0. -1.
         11    1    4    4    0    0 -0.64289114081E-01  0.25832329533E-01 -0.68871119493E-01  0.97692843441E-01  0.51100000000E-03 0.  1.
</event>
<event>
 8    1  0.1122465E+005  0.1043930E+01  0.7957747E-01            NaN
         13   -1    0    0    0    0  0.00000000000E+00  0.00000000000E+00  0.74505805969E-08  0.10566000000E+00  0.10566000000E+00 0.  1.
     999900   -1    0    0    0    0 -0.00000000000E+00 -0.00000000000E+00 -0.74505805969E-08  0.93827000000E+00  0.93827000000E+00 0. -1.
     999902    2    1    2    0    0 -0.39137325793E-02 -0.21240543520E-01 -0.77523101738E-02  0.10209827495E+01  0.10207248398E+01 0.  0.
     999903    2    3    3    0    0  0.94153199604E-01  0.10672493331E-01  0.86693861735E-01  0.12994086246E+00  0.19750315534E-01 0.  0.
         14    1    1    2    0    0  0.39137325793E-02  0.21240543520E-01  0.77523101738E-02  0.22947250483E-01  0.00000000000E+00 0.  1.
     999901    1    3    3    0    0 -0.98066932183E-01 -0.31913036850E-01 -0.94446171908E-01  0.89104188706E+00  0.88000000000E+00 0.  1.
        -11    1    4    4    0    0  0.45030070108E-01  0.42644700475E-02  0.54636692150E-01  0.70931813517E-01  0.51100000000E-03 0.  1.
         11    1    4    4    0    0  0.49123129496E-01  0.64080232831E-02  0.32057169585E-01  0.59009048939E-01  0.51100000000E-03 0. -1.
</event>
<event>
 8    1  0.1122465E+005  0.1043930E+01  0.7957747E-01            NaN
         13   -1    0    0    0    0  0.00000000000E+00  0.00000000000E+00  0.74505805969E-08  0.10566000000E+00  0.10566000000E+00 0.  1.
     999900   -1    0    0    0    0 -0.00000000000E+00 -0.00000000000E+00 -0.74505805969E-08  0.93827000000E+00  0.93827000000E+00 0. -1.
     999902    2    1    2    0    0  0.18614339147E-01 -0.12096203376E-01 -0.82227905967E-02  0.10202566808E+01  0.10199819943E+01 0.  0.
     999903    2    3    3    0    0  0.35220303909E-01  0.54632634102E-01  0.11037305124E+00  0.12964258392E+00  0.19994864562E-01 0.  0.
         14    1    1    2    0    0 -0.18614339147E-01  0.12096203376E-01  0.82227905967E-02  0.23673319226E-01  0.00000000000E+00 0.  1.
     999901    1    3    3    0    0 -0.16605964762E-01 -0.66728837478E-01 -0.11859584184E+00  0.89061409686E+00  0.88000000000E+00 0. -1.
        -11    1    4    4    0    0  0.31435999117E-01  0.38483522881E-01  0.68715451201E-01  0.84801402870E-01  0.51100000000E-03 0.  1.
         11    1    4    4    0    0  0.37843047928E-02  0.16149111221E-01  0.41657600037E-01  0.44841181049E-01  0.51100000000E-03 0. -1.
</event>
<event>
 8    1  0.1122465E+005  0.1043930E+01  0.7957747E-01            NaN
         13   -1    0    0    0    0  0.00000000000E+00  0.00000000000E+00  0.74505805969E-08  0.10566000000E+00  0.10566000000E+00 0.  1.
     999900   -1    0    0    0    0 -0.00000000000E+00 -0.00000000000E+00 -0.74505805969E-08  0.93827000000E+00  0.93827000000E+00 0.  1.
     999902    2    1    2    0    0  0.45261691198E-02  0.19138400067E-01  0.13631776486E-01  0.10200011493E+01  0.10197204297E+01 0.  0.
     999903    2    3    3    0    0  0.61067689540E-01  0.11356053755E+00  0.26995673219E-01  0.13304507527E+00  0.18627057962E-01 0.  0.
         14    1    1    2    0    0 -0.45261691198E-02 -0.19138400067E-01 -0.13631776486E-01  0.23928850666E-01  0.00000000000E+00 0.  1.
     999901    1    3    3    0    0 -0.56541520420E-01 -0.94422137479E-01 -0.13363896732E-01  0.88695607406E+00  0.88000000000E+00 0.  1.
        -11    1    4    4    0    0  0.30764094583E-01  0.63079997392E-01  0.23682867165E-01  0.74071957613E-01  0.51100000000E-03 0.  1.
         11    1    4    4    0    0  0.30303594956E-01  0.50480540154E-01  0.33128060535E-02  0.58973117660E-01  0.51100000000E-03 0. -1.
</event>
<event>
 8    1  0.1122465E+005  0.1043930E+01  0.7957747E-01            NaN
         13   -1    0    0    0    0  0.00000000000E+00  0.00000000000E+00  0.74505805969E-08  0.10566000000E+00  0.10566000000E+00 0.  1.
     999900   -1    0    0    0    0 -0.00000000000E+00 -0.00000000000E+00 -0.74505805969E-08  0.93827000000E+00  0.93827000000E+00 0.  1.
     999902    2    1    2    0    0 -0.84863769942E-02 -0.20682203248E-01  0.78363264441E-02  0.10202407590E+01  0.10199656986E+01 0.  0.
     999903    2    3    3    0    0 -0.36201518442E-01 -0.95585635695E-01 -0.81518780900E-01  0.13211746327E+00  0.19040713563E-01 0.  0.
         14    1    1    2    0    0  0.84863769942E-02  0.20682203248E-01 -0.78363264441E-02  0.23689240972E-01  0.00000000000E+00 0. -1.
     999901    1    3    3    0    0  0.27715141448E-01  0.74903432446E-01  0.89355107344E-01  0.88812329576E+00  0.88000000000E+00 0. -1.
        -11    1    4    4    0    0 -0.16375920368E-01 -0.66296601757E-01 -0.58437685078E-01  0.89881223460E-01  0.51100000000E-03 0.  1.
         11    1    4    4    0    0 -0.19825598074E-01 -0.29289033938E-01 -0.23081095823E-01  0.42236239811E-01  0.51100000000E-03 0. -1.
</event>
<event>
 8    1  0.1122465E+005  0.1043930E+01  0.7957747E-01            NaN
         13   -1    0    0    0    0  0.00000000000E+00  0.00000000000E+00  0.74505805969E-08  0.10566000000E+00  0.10566000000E+00 0.  1.
     999900   -1    0    0    0    0 -0.00000000000E+00 -0.00000000000E+00 -0.74505805969E-08  0.93827000000E+00  0.93827000000E+00 0.  1.
     999902    2    1    2    0    0 -0.10708526148E-02  0.50296010258E-02  0.22952918861E-01  0.10204080933E+01  0.10201369500E+01 0.  0.
     999903    2    3    3    0    0 -0.11009712747E-01 -0.98838979491E-01 -0.78905991826E-01  0.12840882161E+00  0.19295395310E-01 0.  0.
         14    1    1    2    0    0  0.10708526148E-02 -0.50296010258E-02 -0.22952918861E-01  0.23521906726E-01  0.00000000000E+00 0. -1.
     999901    1    3    3    0    0  0.99388601321E-02  0.10386858052E+00  0.10185891069E+00  0.89199927166E+00  0.88000000000E+00 0. -1.
        -11    1    4    4    0    0 -0.32391394712E-03 -0.61215041766E-01 -0.56634939370E-01  0.83397624289E-01  0.51100000000E-03 0.  1.
         11    1    4    4    0    0 -0.10685798800E-01 -0.37623937725E-01 -0.22271052455E-01  0.45011197322E-01  0.51100000000E-03 0. -1.
</event>
<event>
 8    1  0.1122465E+005  0.1043930E+01  0.7957747E-01            NaN
         13   -1    0    0    0    0  0.00000000000E+00  0.00000000000E+00  0.74505805969E-08  0.10566000000E+00  0.10566000000E+00 0. -1.
     999900   -1    0    0    0    0 -0.00000000000E+00 -0.00000000000E+00 -0.74505805969E-08  0.93827000000E+00  0.93827000000E+00 0.  1.
     999902    2    1    2    0    0 -0.21487163228E-02  0.23092341884E-01 -0.98338333927E-03  0.10207170666E+01  0.10204530806E+01 0.  0.
     999903    2    3    3    0    0  0.10640867280E+00 -0.59401959050E-01 -0.38809999946E-01  0.12941416108E+00  0.19758810838E-01 0.  0.
         14    1    1    2    0    0  0.21487163228E-02 -0.23092341884E-01  0.98338333927E-03  0.23212933427E-01  0.00000000000E+00 0. -1.
     999901    1    3    3    0    0 -0.10855738912E+00  0.82494300934E-01  0.37826616607E-01  0.89130290549E+00  0.88000000000E+00 0. -1.
        -11    1    4    4    0    0  0.46148549154E-01 -0.17693637271E-01 -0.22631287414E-01  0.54361656339E-01  0.51100000000E-03 0. -1.
         11    1    4    4    0    0  0.60260123646E-01 -0.41708321779E-01 -0.16178712532E-01  0.75052504739E-01  0.51100000000E-03 0.  1.
</event>
<event>
 8    1  0.1122465E+005  0.1043930E+01  0.7957747E-01            NaN
         13   -1    0    0    0    0  0.00000000000E+00  0.00000000000E+00  0.74505805969E-08  0.10566000000E+00  0.10566000000E+00 0.  1.
     999900   -1    0    0    0    0 -0.00000000000E+00 -0.00000000000E+00 -0.74505805969E-08  0.93827000000E+00  0.93827000000E+00 0.  1.
     999902    2    1    2    0    0  0.18606460714E-01 -0.16937130532E-01 -0.43541805255E-02  0.10183952069E+01  0.10180750325E+01 0.  0.
     999903    2    3    3    0    0 -0.53709069647E-01  0.10198719468E+00 -0.48042871438E-01  0.12638554732E+00  0.19471441512E-01 0.  0.
         14    1    1    2    0    0 -0.18606460714E-01  0.16937130532E-01  0.43541805255E-02  0.25534793107E-01  0.00000000000E+00 0. -1.
     999901    1    3    3    0    0  0.72315530361E-01 -0.11892432521E+00  0.43688690912E-01  0.89200965957E+00  0.88000000000E+00 0.  1.
        -11    1    4    4    0    0 -0.33296860867E-01  0.50050069867E-01 -0.16758893145E-01  0.62408429380E-01  0.51100000000E-03 0.  1.
         11    1    4    4    0    0 -0.20412208780E-01  0.51937124812E-01 -0.31283978293E-01  0.63977117940E-01  0.51100000000E-03 0. -1.
</event>
<event>
 8    1  0.1122465E+005  0.1043930E+01  0.7957747E-01            NaN
         13   -1    0    0    0    0  0.00000000000E+00  0.00000000000E+00  0.74505805969E-08  0.10566000000E+00  0.10566000000E+00 0. -1.
     999900   -1    0    0    0    0 -0.00000000000E+00 -0.00000000000E+00 -0.74505805969E-08  0.93827000000E+00  0.93827000000E+00 0.  1.
     999902    2    1    2    0    0  0.26832009993E-03 -0.54886961152E-02 -0.34526406775E-01  0.10089690140E+01  0.10083631293E+01 0.  0.
     999903    2    3    3    0    0  0.70563371851E-01 -0.93056092201E-01  0.19660957500E-01  0.12018011123E+00  0.20447008142E-01 0.  0.
         14    1    1    2    0    0 -0.26832009993E-03  0.54886961152E-02  0.34526406775E-01  0.34960986049E-01  0.00000000000E+00 0. -1.
     999901    1    3    3    0    0 -0.70295051751E-01  0.87567396086E-01 -0.54187364275E-01  0.88878890272E+00  0.88000000000E+00 0.  1.
        -11    1    4    4    0    0  0.66761587057E-01 -0.79949715330E-01  0.21631242058E-01  0.10638250910E+00  0.51100000000E-03 0. -1.
         11    1    4    4    0    0  0.38017847943E-02 -0.13106376871E-01 -0.19702845586E-02  0.13797602130E-01  0.51100000000E-03 0.  1.
</event>
<event>
 8    1  0.1122465E+005  0.1043930E+01  0.7957747E-01            NaN
         13   -1    0    0    0    0  0.00000000000E+00  0.00000000000E+00  0.74505805969E-08  0.10566000000E+00  0.10566000000E+00 0. -1.
     999900   -1    0    0    0    0 -0.00000000000E+00 -0.00000000000E+00 -0.74505805969E-08  0.93827000000E+00  0.93827000000E+00 0. -1.
     999902    2    1    2    0    0  0.86905215789E-02 -0.17646553804E-01 -0.13685733060E-01  0.10199670011E+01  0.10196854701E+01 0.  0.
     999903    2    3    3    0    0 -0.12574792483E+00 -0.21584117866E-01 -0.14671554868E-01  0.12974783027E+00  0.18461586993E-01 0.  0.
         14    1    1    2    0    0 -0.86905215789E-02  0.17646553804E-01  0.13685733060E-01  0.23962998891E-01  0.00000000000E+00 0.  1.
     999901    1    3    3    0    0  0.13443844641E+00  0.39375640621E-02  0.98582180781E-03  0.89021917084E+00  0.88000000000E+00 0. -1.
        -11    1    4    4    0    0 -0.10284842999E+00 -0.24684792236E-01 -0.10945784059E-01  0.10633536490E+00  0.51100000000E-03 0.  1.
         11    1    4    4    0    0 -0.22899494844E-01  0.31006743694E-02 -0.37257708086E-02  0.23412465372E-01  0.51100000000E-03 0. -1.
</event>
<event>
 8    1  0.1122465E+005  0.1043930E+01  0.7957747E-01            NaN
         13   -1    0    0    0    0  0.00000000000E+00  0.00000000000E+00  0.74505805969E-08  0.10566000000E+00  0.10566000000E+00 0. -1.
     999900   -1    0    0    0    0 -0.00000000000E+00 -0.00000000000E+00 -0.74505805969E-08  0.93827000000E+00  0.93827000000E+00 0.  1.
     999902    2    1    2    0    0 -0.81151327821E-02  0.21254006854E-01  0.66525663356E-02  0.10202267338E+01  0.10199513438E+01 0.  0.
     999903    2    3    3    0    0  0.82176024049E-01 -0.58691807844E-02 -0.97638082350E-01  0.12906754509E+00  0.18381780605E-01 0.  0.
         14    1    1    2    0    0  0.81151327821E-02 -0.21254006854E-01 -0.66525663356E-02  0.23703266152E-01  0.00000000000E+00 0.  1.
     999901    1    3    3    0    0 -0.90291156831E-01  0.27123187639E-01  0.10429064869E+00  0.89115918876E+00  0.88000000000E+00 0. -1.
        -11    1    4    4    0    0  0.15030745454E-01 -0.72682717006E-02 -0.25698230176E-01  0.30649816273E-01  0.51100000000E-03 0. -1.
         11    1    4    4    0    0  0.67145278595E-01  0.13990909162E-02 -0.71939852174E-01  0.98417728814E-01  0.51100000000E-03 0.  1.
</event>
<event>
 8    1  0.1122465E+005  0.1043930E+01  0.7957747E-01            NaN
         13   -1    0    0    0    0  0.00000000000E+00  0.00000000000E+00  0.74505805969E-08  0.10566000000E+00  0.10566000000E+00 0. -1.
     999900   -1    0    0    0    0 -0.00000000000E+00 -0.00000000000E+00 -0.74505805969E-08  0.93827000000E+00  0.93827000000E+00 0.  1.
     999902    2    1    2    0    0 -0.23043511355E-03 -0.17384764120E-01  0.81073679797E-02  0.10247463471E+01  0.10245667686E+01 0.  0.
     999903    2    3    3    0    0  0.45646651959E-01  0.78822218887E-01 -0.94100285144E-01  0.13244208560E+00  0.19735332482E-01 0.  0.
         14    1    1    2    0    0  0.23043511355E-03  0.17384764120E-01 -0.81073679797E-02  0.19183652921E-01  0.00000000000E+00 0.  1.
     999901    1    3    3    0    0 -0.45877087073E-01 -0.96206983007E-01  0.10220765312E+00  0.89230426148E+00  0.88000000000E+00 0. -1.
        -11    1    4    4    0    0  0.11792901684E-01  0.39750283362E-01 -0.43621850066E-01  0.60185417517E-01  0.51100000000E-03 0. -1.
         11    1    4    4    0    0  0.33853750275E-01  0.39071935526E-01 -0.50478435078E-01  0.72256668082E-01  0.51100000000E-03 0.  1.
</event>
<event>
 8    1  0.1122465E+005  0.1043930E+01  0.7957747E-01            NaN
         13   -1    0    0    0    0  0.00000000000E+00  0.00000000000E+00  0.74505805969E-08  0.10566000000E+00  0.10566000000E+00 0.  1.
     999900   -1    0    0    0    0 -0.00000000000E+00 -0.00000000000E+00 -0.74505805969E-08  0.93827000000E+00  0.93827000000E+00 0.  1.
     999902    2    1    2    0    0  0.13460387985E-01  0.10092801836E-01  0.17483566491E-01  0.10196664102E+01  0.10193776858E+01 0.  0.
     999903    2    3    3    0    0 -0.72564918298E-01  0.98138756850E-01 -0.37969092882E-01  0.12937014435E+00  0.19952425227E-01 0.  0.
         14    1    1    2    0    0 -0.13460387985E-01 -0.10092801836E-01 -0.17483566491E-01  0.24263589818E-01  0.00000000000E+00 0. -1.
     999901    1    3    3    0    0  0.86025306282E-01 -0.88045955013E-01  0.55452659373E-01  0.89029626583E+00  0.88000000000E+00 0. -1.
        -11    1    4    4    0    0 -0.60497198099E-01  0.82346431172E-01 -0.39217408357E-01  0.10944912948E+00  0.51100000000E-03 0.  1.
         11    1    4    4    0    0 -0.12067720199E-01  0.15792325678E-01  0.12483154759E-02  0.19921014875E-01  0.51100000000E-03 0. -1.
</event>
<event>
 8    1  0.1122465E+005  0.1043930E+01  0.7957747E-01            NaN
         13   -1    0    0    0    0  0.00000000000E+00  0.00000000000E+00  0.74505805969E-08  0.10566000000E+00  0.10566000000E+00 0.  1.
     999900   -1    0    0    0    0 -0.00000000000E+00 -0.00000000000E+00 -0.74505805969E-08  0.93827000000E+00  0.93827000000E+00 0. -1.
     999902    2    1    2    0    0  0.73872265309E-02 -0.13366525709E-02  0.22082415481E-01  0.10206063890E+01  0.10203398505E+01 0.  0.
     999903    2    3    3    0    0  0.11082736537E-01 -0.10156983993E+00  0.82587701006E-01  0.13284446247E+00  0.19689170126E-01 0.  0.
         14    1    1    2    0    0 -0.73872265309E-02  0.13366525709E-02 -0.22082415481E-01  0.23323610986E-01  0.00000000000E+00 0. -1.
     999901    1    3    3    0    0 -0.36955100058E-02  0.10023318736E+00 -0.60505285525E-01  0.88776192654E+00  0.88000000000E+00 0. -1.
        -11    1    4    4    0    0  0.15956132966E-01 -0.56575026801E-01  0.47443701144E-01  0.75541364404E-01  0.51100000000E-03 0.  1.
         11    1    4    4    0    0 -0.48733964288E-02 -0.44994813124E-01  0.35143999862E-01  0.57303098068E-01  0.51100000000E-03 0. -1.
</event>
<event>
 8    1  0.1122465E+005  0.1043930E+01  0.7957747E-01            NaN
         13   -1    0    0    0    0  0.00000000000E+00  0.00000000000E+00  0.74505805969E-08  0.10566000000E+00  0.10566000000E+00 0. -1.
     999900   -1    0    0    0    0 -0.00000000000E+00 -0.00000000000E+00 -0.74505805969E-08  0.93827000000E+00  0.93827000000E+00 0. -1.
     999902    2    1    2    0    0  0.11061755213E-01 -0.18849566116E-01  0.89812945896E-02  0.10203009454E+01  0.10200272971E+01 0.  0.
     999903    2    3    3    0    0  0.35421219861E-01  0.11300859457E+00  0.47866957183E-01  0.12929474289E+00  0.20006990931E-01 0.  0.
         14    1    1    2    0    0 -0.11061755213E-01  0.18849566116E-01 -0.89812945896E-02  0.23629054650E-01  0.00000000000E+00 0.  1.
     999901    1    3    3    0    0 -0.24359464648E-01 -0.13185816069E+00 -0.38885662593E-01  0.89100620246E+00  0.88000000000E+00 0. -1.
        -11    1    4    4    0    0  0.21626801256E-01  0.64138776457E-01  0.37788068841E-01  0.77522257744E-01  0.51100000000E-03 0. -1.
         11    1    4    4    0    0  0.13794418605E-01  0.48869818117E-01  0.10078888342E-01  0.51772485151E-01  0.51100000000E-03 0.  1.
</event>
<event>
 8    1  0.1122465E+005  0.1043930E+01  0.7957747E-01            NaN
         13   -1    0    0    0    0  0.00000000000E+00  0.00000000000E+00  0.74505805969E-08  0.10566000000E+00  0.10566000000E+00 0. -1.
     999900   -1    0    0    0    0 -0.00000000000E+00 -0.00000000000E+00 -0.74505805969E-08  0.93827000000E+00  0.93827000000E+00 0. -1.
     999902    2    1    2    0    0  0.16822418006E-01 -0.20640212120E-02 -0.16609733923E-01  0.10201994882E+01  0.10199234572E+01 0.  0.
     999903    2    3    3    0    0  0.10958609999E+00  0.35108092796E-01  0.60000690725E-01  0.13123603339E+00  0.19522348232E-01 0.  0.
         14    1    1    2    0    0 -0.16822418006E-01  0.20640212120E-02  0.16609733923E-01  0.23730511839E-01  0.00000000000E+00 0. -1.
     999901    1    3    3    0    0 -0.92763681988E-01 -0.37172114008E-01 -0.76610424648E-01  0.88896345477E+00  0.88000000000E+00 0. -1.
        -11    1    4    4    0    0  0.38410176509E-01  0.22223622716E-01  0.23296098642E-01  0.50121855502E-01  0.51100000000E-03 0. -1.
         11    1    4    4    0    0  0.71175923485E-01  0.12884470080E-01  0.36704592083E-01  0.81114177886E-01  0.51100000000E-03 0.  1.
</event>
<event>
 8    1  0.1122465E+005  0.1043930E+01  0.7957747E-01            NaN
         13   -1    0    0    0    0  0.00000000000E+00  0.00000000000E+00  0.74505805969E-08  0.10566000000E+00  0.10566000000E+00 0.  1.
     999900   -1    0    0    0    0 -0.00000000000E+00 -0.00000000000E+00 -0.74505805969E-08  0.93827000000E+00  0.93827000000E+00 0. -1.
     999902    2    1    2    0    0 -0.12254346010E-01 -0.11762755408E-01  0.16608508521E-01  0.10201734437E+01  0.10198967993E+01 0.  0.
     999903    2    3    3    0    0 -0.13014587693E+00 -0.44764588317E-02  0.11643309475E-01  0.13226795529E+00  0.20031409743E-01 0.  0.
         14    1    1    2    0    0  0.12254346010E-01  0.11762755408E-01 -0.16608508521E-01  0.23756556279E-01  0.00000000000E+00 0. -1.
     999901    1    3    3    0    0  0.11789153092E+00 -0.72862965767E-02  0.49651990461E-02  0.88790548843E+00  0.88000000000E+00 0.  1.
        -11    1    4    4    0    0 -0.37081731556E-01 -0.82473039388E-02  0.92224121803E-02  0.39094588435E-01  0.51100000000E-03 0.  1.
         11    1    4    4    0    0 -0.93064145373E-01  0.37708451070E-02  0.24208972947E-02  0.93173366857E-01  0.51100000000E-03 0. -1.
</event>
<event>
 8    1  0.1122465E+005  0.1043930E+01  0.7957747E-01            NaN
         13   -1    0    0    0    0  0.00000000000E+00  0.00000000000E+00  0.74505805969E-08  0.10566000000E+00  0.10566000000E+00 0.  1.
     999900   -1    0    0    0    0 -0.00000000000E+00 -0.00000000000E+00 -0.74505805969E-08  0.93827000000E+00  0.93827000000E+00 0. -1.
     999902    2    1    2    0    0  0.13572236324E-01 -0.30017569640E-02  0.18880469355E-01  0.10204845683E+01  0.10202152057E+01 0.  0.
     999903    2    3    3    0    0 -0.11527871544E+00 -0.46007598434E-01  0.32460561624E-01  0.12995860627E+00  0.20728481282E-01 0.  0.
         14    1    1    2    0    0 -0.13572236324E-01  0.30017569640E-02 -0.18880469355E-01  0.23445431683E-01  0.00000000000E+00 0. -1.
     999901    1    3    3    0    0  0.12885095176E+00  0.43005841470E-01 -0.13580092269E-01  0.89052596205E+00  0.88000000000E+00 0. -1.
        -11    1    4    4    0    0 -0.61278598508E-01 -0.15789210579E-01  0.23130290771E-01  0.67376830423E-01  0.51100000000E-03 0.  1.
         11    1    4    4    0    0 -0.54000116932E-01 -0.30218387855E-01  0.93302708534E-02  0.62581775849E-01  0.51100000000E-03 0. -1.
</event>
<event>
 8    1  0.1122465E+005  0.1043930E+01  0.7957747E-01            NaN
         13   -1    0    0    0    0  0.00000000000E+00  0.00000000000E+00  0.74505805969E-08  0.10566000000E+00  0.10566000000E+00 0.  1.
     999900   -1    0    0    0    0 -0.00000000000E+00 -0.00000000000E+00 -0.74505805969E-08  0.93827000000E+00  0.93827000000E+00 0. -1.
     999902    2    1    2    0    0 -0.12391843576E-01  0.10041508822E-01 -0.13037919234E-01  0.10233295868E+01  0.10231222147E+01 0.  0.
     999903    2    3    3    0    0 -0.85122308780E-01 -0.44443976370E-01 -0.92858420603E-01  0.13505614853E+00  0.19909859169E-01 0.  0.
         14    1    1    2    0    0  0.12391843576E-01 -0.10041508822E-01  0.13037919234E-01  0.20600413214E-01  0.00000000000E+00 0.  1.
     999901    1    3    3    0    0  0.72730465205E-01  0.54485485193E-01  0.79820501369E-01  0.88827343825E+00  0.88000000000E+00 0. -1.
        -11    1    4    4    0    0 -0.76739940214E-02 -0.11053130380E-01 -0.95555286281E-02  0.16511545167E-01  0.51100000000E-03 0. -1.
         11    1    4    4    0    0 -0.77448314759E-01 -0.33390845990E-01 -0.83302891975E-01  0.11854460337E+00  0.51100000000E-03 0.  1.
</event>
<event>
 8    1  0.1122465E+005  0.1043930E+01  0.7957747E-01            NaN
         13   -1    0    0    0    0  0.00000000000E+00  0.00000000000E+00  0.74505805969E-08  0.10566000000E+00  0.10566000000E+00 0.  1.
     999900   -1    0    0    0    0 -0.00000000000E+00 -0.00000000000E+00 -0.74505805969E-08  0.93827000000E+00  0.93827000000E+00 0. -1.
     999902    2    1    2    0    0 -0.17848323546E-01  0.53762395621E-02 -0.14366740247E-01  0.10203955608E+01  0.10201241251E+01 0.  0.
     999903    2    3    3    0    0  0.25910355629E-01 -0.12135616194E+00 -0.33349643305E-01  0.13003817509E+00  0.19976578898E-01 0.  0.
         14    1    1    2    0    0  0.17848323546E-01 -0.53762395621E-02  0.14366740247E-01  0.23534439245E-01  0.00000000000E+00 0.  1.
     999901    1    3    3    0    0 -0.43758679175E-01  0.12673240150E+00  0.18982903058E-01  0.89035738566E+00  0.88000000000E+00 0. -1.
        -11    1    4    4    0    0  0.35599364549E-02 -0.43216337969E-01 -0.36979636647E-02  0.43523109623E-01  0.51100000000E-03 0. -1.
         11    1    4    4    0    0  0.22350419174E-01 -0.78139823968E-01 -0.29651679641E-01  0.86515065471E-01  0.51100000000E-03 0.  1.
</event>
<event>
 8    1  0.1122465E+005  0.1043930E+01  0.7957747E-01            NaN
         13   -1    0    0    0    0  0.00000000000E+00  0.00000000000E+00  0.74505805969E-08  0.10566000000E+00  0.10566000000E+00 0.  1.
     999900   -1    0    0    0    0 -0.00000000000E+00 -0.00000000000E+00 -0.74505805969E-08  0.93827000000E+00  0.93827000000E+00 0. -1.
     999902    2    1    2    0    0  0.12733981521E-01  0.10754746737E-01 -0.16594669533E-01  0.10204097551E+01  0.10201386506E+01 0.  0.
     999903    2    3    3    0    0  0.95686272545E-01 -0.87146303535E-01 -0.22129125610E-02  0.13098717098E+00  0.20059935332E-01 0.  0.
         14    1    1    2    0    0 -0.12733981521E-01 -0.10754746737E-01  0.16594669533E-01  0.23520244889E-01  0.00000000000E+00 0. -1.
     999901    1    3    3    0    0 -0.82952291024E-01  0.97901050272E-01 -0.14381756972E-01  0.88942258413E+00  0.88000000000E+00 0.  1.
        -11    1    4    4    0    0  0.73998923220E-01 -0.76040434222E-01 -0.62288371710E-02  0.10628757128E+00  0.51100000000E-03 0. -1.
         11    1    4    4    0    0  0.21687349325E-01 -0.11105869313E-01  0.40159246101E-02  0.24699599702E-01  0.51100000000E-03 0.  1.
</event>
<event>
 8    1  0.1122465E+005  0.1043930E+01  0.7957747E-01            NaN
         13   -1    0    0    0    0  0.00000000000E+00  0.00000000000E+00  0.74505805969E-08  0.10566000000E+00  0.10566000000E+00 0.  1.
     999900   -1    0    0    0    0 -0.00000000000E+00 -0.00000000000E+00 -0.74505805969E-08  0.93827000000E+00  0.93827000000E+00 0.  1.
     999902    2    1    2    0    0  0.67794877132E-02 -0.12090239128E-01 -0.18887996920E-01  0.10205015608E+01  0.10202325930E+01 0.  0.
     999903    2    3    3    0    0 -0.46569462687E-01 -0.10937417244E+00  0.50762025079E-01  0.13080419666E+00  0.20038219000E-01 0.  0.
         14    1    1    2    0    0 -0.67794877132E-02  0.12090239128E-01  0.18887996920E-01  0.23428439203E-01  0.00000000000E+00 0.  1.
     999901    1    3    3    0    0  0.53348950401E-01  0.97283933316E-01 -0.69650022000E-01  0.88969736414E+00  0.88000000000E+00 0.  1.
        -11    1    4    4    0    0 -0.30855304336E-01 -0.81276477586E-01  0.27860941347E-01  0.91292983236E-01  0.51100000000E-03 0.  1.
         11    1    4    4    0    0 -0.15714158352E-01 -0.28097694858E-01  0.22901083732E-01  0.39511213423E-01  0.51100000000E-03 0. -1.
</event>
<event>
 8    1  0.1122465E+005  0.1043930E+01  0.7957747E-01            NaN
         13   -1    0    0    0    0  0.00000000000E+00  0.00000000000E+00  0.74505805969E-08  0.10566000000E+00  0.10566000000E+00 0. -1.
     999900   -1    0    0    0    0 -0.00000000000E+00 -0.00000000000E+00 -0.74505805969E-08  0.93827000000E+00  0.93827000000E+00 0. -1.
     999902    2    1    2    0    0 -0.36319339018E-02  0.18101471374E-01 -0.14207409509E-01  0.10206339768E+01  0.10203680757E+01 0.  0.
     999903    2    3    3    0    0 -0.10183834979E+00 -0.35352041892E-01  0.68906882894E-01  0.12967395316E+00  0.21127216233E-01 0.  0.
         14    1    1    2    0    0  0.36319339018E-02 -0.18101471374E-01  0.14207409509E-01  0.23296023152E-01  0.00000000000E+00 0. -1.
     999901    1    3    3    0    0  0.98206415885E-01  0.53453513265E-01 -0.83114292403E-01  0.89096002368E+00  0.88000000000E+00 0. -1.
        -11    1    4    4    0    0 -0.58221416887E-01 -0.17763638747E-01  0.50767977026E-01  0.79264928299E-01  0.51100000000E-03 0. -1.
         11    1    4    4    0    0 -0.43616932899E-01 -0.17588403145E-01  0.18138905867E-01  0.50409024865E-01  0.51100000000E-03 0.  1.
</event>
<event>
 8    1  0.1122465E+005  0.1043930E+01  0.7957747E-01            NaN
         13   -1    0    0    0    0  0.00000000000E+00  0.00000000000E+00  0.74505805969E-08  0.10566000000E+00  0.10566000000E+00 0. -1.
     999900   -1    0    0    0    0 -0.00000000000E+00 -0.00000000000E+00 -0.74505805969E-08  0.93827000000E+00  0.93827000000E+00 0. -1.
     999902    2    1    2    0    0  0.62551286517E-02  0.98167992933E-02  0.17099312984E-01  0.10232446746E+01  0.10230355719E+01 0.  0.
     999903    2    3    3    0    0 -0.80722932381E-01 -0.99155910483E-01  0.27593035661E-01  0.13220575692E+00  0.19206773574E-01 0.  0.
         14    1    1    2    0    0 -0.62551286517E-02 -0.98167992933E-02 -0.17099312984E-01  0.20685325411E-01  0.00000000000E+00 0.  1.
     999901    1    3    3    0    0  0.86978061033E-01  0.10897270978E+00 -0.10493722676E-01  0.89103891766E+00  0.88000000000E+00 0.  1.
        -11    1    4    4    0    0 -0.79511354953E-01 -0.91393388879E-01  0.27954854458E-01  0.12432434237E+00  0.51100000000E-03 0.  1.
         11    1    4    4    0    0 -0.12115774277E-02 -0.77625216045E-02 -0.36181879728E-03  0.78814145536E-02  0.51100000000E-03 0. -1.
</event>
<event>
 8    1  0.1233762E+005  0.1043930E+01  0.7957747E-01            NaN
         13   -1    0    0    0    0  0.00000000000E+00  0.00000000000E+00  0.74505805969E-08  0.10566000000E+00  0.10566000000E+00 0.  1.
     999900   -1    0    0    0    0 -0.00000000000E+00 -0.00000000000E+00 -0.74505805969E-08  0.93827000000E+00  0.93827000000E+00 0. -1.
     999902    2    1    2    0    0  0.91838635652E-02  0.45871313648E-02  0.20346311196E-01  0.10211405835E+01  0.10208862492E+01 0.  0.
     999903    2    3    3    0    0 -0.10785493049E-01 -0.22808301071E-02  0.13178901391E+00  0.13386079671E+00  0.20708444202E-01 0.  0.
         14    1    1    2    0    0 -0.91838635652E-02 -0.45871313648E-02 -0.20346311196E-01  0.22789416478E-01  0.00000000000E+00 0. -1.
     999901    1    3    3    0    0  0.19969356614E-01  0.68679614719E-02 -0.11144270272E+00  0.88727978681E+00  0.88000000000E+00 0. -1.
        -11    1    4    4    0    0 -0.15875451922E-01  0.29365468830E-02  0.91032395760E-01  0.92454375127E-01  0.51100000000E-03 0. -1.
         11    1    4    4    0    0  0.50899588735E-02 -0.52173769901E-02  0.40756618152E-01  0.41406421581E-01  0.51100000000E-03 0.  1.
</event>
<event>
 8    1  0.1122465E+005  0.1043930E+01  0.7957747E-01            NaN
         13   -1    0    0    0    0  0.00000000000E+00  0.00000000000E+00  0.74505805969E-08  0.10566000000E+00  0.10566000000E+00 0.  1.
     999900   -1    0    0    0    0 -0.00000000000E+00 -0.00000000000E+00 -0.74505805969E-08  0.93827000000E+00  0.93827000000E+00 0.  1.
     999902    2    1    2    0    0  0.71819899479E-02  0.15856559035E-01 -0.16241065894E-01  0.10201227812E+01  0.10198449417E+01 0.  0.
     999903    2    3    3    0    0  0.36831394872E-01 -0.11371320444E+00  0.42574296964E-01  0.12819977013E+00  0.18312995063E-01 0.  0.
         14    1    1    2    0    0 -0.71819899479E-02 -0.15856559035E-01  0.16241065894E-01  0.23807218767E-01  0.00000000000E+00 0.  1.
     999901    1    3    3    0    0 -0.29649404924E-01  0.12956976348E+00 -0.58815362858E-01  0.89192301110E+00  0.88000000000E+00 0.  1.
        -11    1    4    4    0    0  0.14077624017E-02 -0.22949390930E-01  0.12793821015E-01  0.26317281703E-01  0.51100000000E-03 0.  1.
         11    1    4    4    0    0  0.35423632470E-01 -0.90763813510E-01  0.29780475949E-01  0.10188248843E+00  0.51100000000E-03 0. -1.
</event>
<event>
 8    1  0.1122465E+005  0.1043930E+01  0.7957747E-01            NaN
         13   -1    0    0    0    0  0.00000000000E+00  0.00000000000E+00  0.74505805969E-08  0.10566000000E+00  0.10566000000E+00 0. -1.
     999900   -1    0    0    0    0 -0.00000000000E+00 -0.00000000000E+00 -0.74505805969E-08  0.93827000000E+00  0.93827000000E+00 0. -1.
     999902    2    1    2    0    0  0.86293186263E-02 -0.35534101737E-02  0.21046466042E-01  0.10209072809E+01  0.10206476525E+01 0.  0.
     999903    2    3    3    0    0  0.56694694365E-01  0.59563163882E-01  0.10232269063E+00  0.13360811657E+00  0.24882462381E-01 0.  0.
         14    1    1    2    0    0 -0.86293186263E-02  0.35534101737E-02 -0.21046466042E-01  0.23022719142E-01  0.00000000000E+00 0.  1.
     999901    1    3    3    0    0 -0.48065375739E-01 -0.63116574055E-01 -0.81276224590E-01  0.88729916429E+00  0.88000000000E+00 0. -1.
        -11    1    4    4    0    0  0.31014421178E-01  0.24985340720E-01  0.66812810491E-01  0.77784152233E-01  0.51100000000E-03 0.  1.
         11    1    4    4    0    0  0.25680273187E-01  0.34577823161E-01  0.35509880141E-01  0.55823964336E-01  0.51100000000E-03 0. -1.
</event>
<event>
 8    1  0.1122465E+005  0.1043930E+01  0.7957747E-01            NaN
         13   -1    0    0    0    0  0.00000000000E+00  0.00000000000E+00  0.74505805969E-08  0.10566000000E+00  0.10566000000E+00 0.  1.
     999900   -1    0    0    0    0 -0.00000000000E+00 -0.00000000000E+00 -0.74505805969E-08  0.93827000000E+00  0.93827000000E+00 0. -1.
     999902    2    1    2    0    0  0.31161669263E-02  0.21614791662E-01  0.11840712092E-01  0.10190882574E+01  0.10187854358E+01 0.  0.
     999903    2    3    3    0    0  0.73603120404E-01  0.18631543333E-01 -0.10228136923E+00  0.12891908252E+00  0.19851891724E-01 0.  0.
         14    1    1    2    0    0 -0.31161669263E-02 -0.21614791662E-01 -0.11840712092E-01  0.24841742647E-01  0.00000000000E+00 0. -1.
     999901    1    3    3    0    0 -0.70486953478E-01  0.29832483291E-02  0.11412208132E+00  0.89016917484E+00  0.88000000000E+00 0.  1.
        -11    1    4    4    0    0  0.91689821489E-02  0.83949445077E-02 -0.23830614996E-01  0.26883166834E-01  0.51100000000E-03 0. -1.
         11    1    4    4    0    0  0.64434138256E-01  0.10236598825E-01 -0.78450754236E-01  0.10203591568E+00  0.51100000000E-03 0.  1.
</event>
<event>
 8    1  0.1122465E+005  0.1043930E+01  0.7957747E-01            NaN
         13   -1    0    0    0    0  0.00000000000E+00  0.00000000000E+00  0.74505805969E-08  0.10566000000E+00  0.10566000000E+00 0.  1.
     999900   -1    0    0    0    0 -0.00000000000E+00 -0.00000000000E+00 -0.74505805969E-08  0.93827000000E+00  0.93827000000E+00 0.  1.
     999902    2    1    2    0    0 -0.17469475577E-01 -0.20327186243E-01 -0.69046360686E-03  0.10171185506E+01  0.10167651116E+01 0.  0.
     999903    2    3    3    0    0 -0.50897265469E-01 -0.24421426499E-01  0.11397383861E+00  0.12904080508E+00  0.21784301299E-01 0.  0.
         14    1    1    2    0    0  0.17469475577E-01  0.20327186243E-01  0.69046360686E-03  0.26811449373E-01  0.00000000000E+00 0. -1.
     999901    1    3    3    0    0  0.33427789892E-01  0.40942402561E-02 -0.11466430222E+00  0.88807774555E+00  0.88000000000E+00 0.  1.
        -11    1    4    4    0    0 -0.20292762002E-01 -0.39034445436E-02  0.61804097545E-01  0.65169323023E-01  0.51100000000E-03 0. -1.
         11    1    4    4    0    0 -0.30604503467E-01 -0.20517981955E-01  0.52169741064E-01  0.63871482053E-01  0.51100000000E-03 0.  1.
</event>
<event>
 8    1  0.1122465E+005  0.1043930E+01  0.7957747E-01            NaN
         13   -1    0    0    0    0  0.00000000000E+00  0.00000000000E+00  0.74505805969E-08  0.10566000000E+00  0.10566000000E+00 0.  1.
     999900   -1    0    0    0    0 -0.00000000000E+00 -0.00000000000E+00 -0.74505805969E-08  0.93827000000E+00  0.93827000000E+00 0. -1.
     999902    2    1    2    0    0 -0.13478432035E-01  0.19505547039E-01  0.41357361309E-02  0.10198626194E+01  0.10195786010E+01 0.  0.
     999903    2    3    3    0    0  0.18670329114E-01 -0.85174087791E-01 -0.91523188188E-01  0.12793100847E+00  0.19663227879E-01 0.  0.
         14    1    1    2    0    0  0.13478432035E-01 -0.19505547039E-01 -0.41357361309E-02  0.24067380595E-01  0.00000000000E+00 0.  1.
     999901    1    3    3    0    0 -0.32148761148E-01  0.10467963483E+00  0.95658924319E-01  0.89193161094E+00  0.88000000000E+00 0.  1.
        -11    1    4    4    0    0  0.16837907614E-01 -0.54379800766E-01 -0.70409652394E-01  0.90545337458E-01  0.51100000000E-03 0.  1.
         11    1    4    4    0    0  0.18324214997E-02 -0.30794287025E-01 -0.21113535793E-01  0.37385671007E-01  0.51100000000E-03 0. -1.
</event>
<event>
 8    1  0.1122465E+005  0.1043930E+01  0.7957747E-01            NaN
         13   -1    0    0    0    0  0.00000000000E+00  0.00000000000E+00  0.74505805969E-08  0.10566000000E+00  0.10566000000E+00 0. -1.
     999900   -1    0    0    0    0 -0.00000000000E+00 -0.00000000000E+00 -0.74505805969E-08  0.93827000000E+00  0.93827000000E+00 0. -1.
     999902    2    1    2    0    0  0.10430029722E-01  0.29781176596E-01 -0.10467714441E-01  0.10106842928E+01  0.10101373485E+01 0.  0.
     999903    2    3    3    0    0 -0.63152843605E-01  0.10308615004E+00  0.18634359081E-01  0.12409814977E+00  0.20930252102E-01 0.  0.
         14    1    1    2    0    0 -0.10430029722E-01 -0.29781176596E-01  0.10467714441E-01  0.33245707167E-01  0.00000000000E+00 0. -1.
     999901    1    3    3    0    0  0.73582873328E-01 -0.73304973447E-01 -0.29102073522E-01  0.88658614306E+00  0.88000000000E+00 0. -1.
        -11    1    4    4    0    0 -0.22569702823E-01  0.29816113788E-01 -0.32111136192E-02  0.37536175865E-01  0.51100000000E-03 0. -1.
         11    1    4    4    0    0 -0.40583140782E-01  0.73270036255E-01  0.21845472700E-01  0.86561973909E-01  0.51100000000E-03 0.  1.
</event>
<event>
 8    1  0.1122465E+005  0.1043930E+01  0.7957747E-01            NaN
         13   -1    0    0    0    0  0.00000000000E+00  0.00000000000E+00  0.74505805969E-08  0.10566000000E+00  0.10566000000E+00 0.  1.
     999900   -1    0    0    0    0 -0.00000000000E+00 -0.00000000000E+00 -0.74505805969E-08  0.93827000000E+00  0.93827000000E+00 0. -1.
     999902    2    1    2    0    0  0.72836945839E-02  0.26512321572E-01 -0.58182192555E-02  0.10158264935E+01  0.10154376681E+01 0.  0.
     999903    2    3    3    0    0  0.58861613901E-01 -0.59990661994E-01 -0.91463468236E-01  0.12595113336E+00  0.20845931375E-01 0.  0.
         14    1    1    2    0    0 -0.72836945839E-02 -0.26512321572E-01  0.58182192555E-02  0.28103506494E-01  0.00000000000E+00 0.  1.
     999901    1    3    3    0    0 -0.51577919317E-01  0.86502983566E-01  0.85645248980E-01  0.88987536015E+00  0.88000000000E+00 0. -1.
        -11    1    4    4    0    0  0.20509249959E-01 -0.95812662259E-02 -0.30954955853E-01  0.38352319476E-01  0.51100000000E-03 0.  1.
         11    1    4    4    0    0  0.38352363942E-01 -0.50409395768E-01 -0.60508512383E-01  0.87598813881E-01  0.51100000000E-03 0. -1.
</event>
<event>
 8    1  0.1122465E+005  0.1043930E+01  0.7957747E-01            NaN
         13   -1    0    0    0    0  0.00000000000E+00  0.00000000000E+00  0.74505805969E-08  0.10566000000E+00  0.10566000000E+00 0.  1.
     999900   -1    0    0    0    0 -0.00000000000E+00 -0.00000000000E+00 -0.74505805969E-08  0.93827000000E+00  0.93827000000E+00 0. -1.
     999902    2    1    2    0    0  0.15477757795E-01 -0.82931649076E-02  0.16371941368E-01  0.10199221256E+01  0.10196395266E+01 0.  0.
     999903    2    3    3    0    0 -0.11990464402E+00  0.38304231474E-02  0.43257625730E-01  0.12908082874E+00  0.19971038205E-01 0.  0.
         14    1    1    2    0    0 -0.15477757795E-01  0.82931649076E-02 -0.16371941368E-01  0.24007874431E-01  0.00000000000E+00 0. -1.
     999901    1    3    3    0    0  0.13538240181E+00 -0.12123588055E-01 -0.26885684362E-01  0.89084129683E+00  0.88000000000E+00 0. -1.
        -11    1    4    4    0    0 -0.34726481016E-01  0.54333409650E-02  0.43454925781E-02  0.35420249922E-01  0.51100000000E-03 0.  1.
         11    1    4    4    0    0 -0.85178163001E-01 -0.16029178176E-02  0.38912133151E-01  0.93660578821E-01  0.51100000000E-03 0. -1.
</event>
<event>
 8    1  0.1122465E+005  0.1043930E+01  0.7957747E-01            NaN
         13   -1    0    0    0    0  0.00000000000E+00  0.00000000000E+00  0.74505805969E-08  0.10566000000E+00  0.10566000000E+00 0. -1.
     999900   -1    0    0    0    0 -0.00000000000E+00 -0.00000000000E+00 -0.74505805969E-08  0.93827000000E+00  0.93827000000E+00 0. -1.
     999902    2    1    2    0    0 -0.21659334505E-01  0.33211861670E-02  0.10251864914E-01  0.10197378983E+01  0.10194508931E+01 0.  0.
     999903    2    3    3    0    0 -0.11074024709E+00 -0.68774570829E-01 -0.72472408003E-02  0.13213470666E+00  0.20339967756E-01 0.  0.
         14    1    1    2    0    0  0.21659334505E-01 -0.33211861670E-02 -0.10251864914E-01  0.24192101665E-01  0.00000000000E+00 0.  1.
     999901    1    3    3    0    0  0.89080912582E-01  0.72095756996E-01  0.17499105714E-01  0.88760319167E+00  0.88000000000E+00 0.  1.
        -11    1    4    4    0    0 -0.24346204362E-01 -0.21478974886E-01 -0.87510439832E-02  0.33629242049E-01  0.51100000000E-03 0. -1.
         11    1    4    4    0    0 -0.86394042725E-01 -0.47295595943E-01  0.15038031829E-02  0.98505464615E-01  0.51100000000E-03 0.  1.
</event>
<event>
 7    1  0.1122465E+005  0.1043930E+01  0.7957747E-01            NaN
         13   -1    0    0    0    0  0.00000000000E+00  0.00000000000E+00  0.74505805969E-08  0.10566000000E+00  0.10566000000E+00 0. -1.
     999900   -1    0    0    0    0 -0.00000000000E+00 -0.00000000000E+00 -0.74505805969E-08  0.93827000000E+00  0.93827000000E+00 0. -1.
     999903    2    1    2    0    0  0.11985553050E-01  0.77654973428E-01  0.19003330901E-01  0.82844612935E-01  0.18115046976E-01 0.  0.
         14    1    1    2    0    0 -0.26099327209E-01  0.61885466976E-01  0.16894610065E-01  0.69256145958E-01  0.00000000000E+00 0.  1.
     999901    1    1    2    0    0  0.14113774159E-01 -0.13954044040E+00 -0.35897940966E-01  0.89182924111E+00  0.88000000000E+00 0. -1.
        -11    1    3    3    0    0  0.14195794565E-01  0.47590791691E-01  0.17496569962E-01  0.52657336797E-01  0.51100000000E-03 0.  1.
         11    1    3    3    0    0 -0.22102415157E-02  0.30064181737E-01  0.15067609382E-02  0.30187276137E-01  0.51100000000E-03 0. -1.
</event>
<event>
 8    1  0.1122465E+005  0.1043930E+01  0.7957747E-01            NaN
         13   -1    0    0    0    0  0.00000000000E+00  0.00000000000E+00  0.74505805969E-08  0.10566000000E+00  0.10566000000E+00 0.  1.
     999900   -1    0    0    0    0 -0.00000000000E+00 -0.00000000000E+00 -0.74505805969E-08  0.93827000000E+00  0.93827000000E+00 0. -1.
     999902    2    1    2    0    0 -0.14590341861E-01 -0.68348997898E-02 -0.16846845590E-01  0.10206188409E+01  0.10203525902E+01 0.  0.
     999903    2    3    3    0    0 -0.70026729141E-01 -0.89561079505E-01  0.62720751093E-01  0.13143504875E+00  0.20404648118E-01 0.  0.
         14    1    1    2    0    0  0.14590341861E-01  0.68348997898E-02  0.16846845590E-01  0.23311159068E-01  0.00000000000E+00 0.  1.
     999901    1    3    3    0    0  0.55436387279E-01  0.82726179715E-01 -0.79567596683E-01  0.88918379219E+00  0.88000000000E+00 0. -1.
        -11    1    4    4    0    0 -0.39234534942E-01 -0.41727095077E-01  0.41431519977E-01  0.70691804082E-01  0.51100000000E-03 0.  1.
         11    1    4    4    0    0 -0.30792194198E-01 -0.47833984428E-01  0.21289231116E-01  0.60743244664E-01  0.51100000000E-03 0. -1.
</event>
<event>
 8    1  0.1122465E+005  0.1043930E+01  0.7957747E-01            NaN
         13   -1    0    0    0    0  0.00000000000E+00  0.00000000000E+00  0.74505805969E-08  0.10566000000E+00  0.10566000000E+00 0. -1.
     999900   -1    0    0    0    0 -0.00000000000E+00 -0.00000000000E+00 -0.74505805969E-08  0.93827000000E+00  0.93827000000E+00 0. -1.
     999902    2    1    2    0    0  0.22151366237E-01 -0.30920831243E-02  0.61888341802E-02  0.10207234132E+01  0.10204595732E+01 0.  0.
     999903    2    3    3    0    0  0.88478984187E-01 -0.53911618866E-02  0.97658526283E-01  0.13349664213E+00  0.20653581628E-01 0.  0.
         14    1    1    2    0    0 -0.22151366237E-01  0.30920831243E-02 -0.61888341802E-02  0.23206586839E-01  0.00000000000E+00 0. -1.
     999901    1    3    3    0    0 -0.66327617949E-01  0.22990787624E-02 -0.91469692103E-01  0.88722677103E+00  0.88000000000E+00 0. -1.
        -11    1    4    4    0    0  0.25267190292E-01 -0.10935835857E-01  0.30968366986E-01  0.41440611553E-01  0.51100000000E-03 0. -1.
         11    1    4    4    0    0  0.63211793895E-01  0.55446739699E-02  0.66690159297E-01  0.92056030573E-01  0.51100000000E-03 0.  1.
</event>
<event>
 8    1  0.1122465E+005  0.1043930E+01  0.7957747E-01            NaN
         13   -1    0    0    0    0  0.00000000000E+00  0.00000000000E+00  0.74505805969E-08  0.10566000000E+00  0.10566000000E+00 0.  1.
     999900   -1    0    0    0    0 -0.00000000000E+00 -0.00000000000E+00 -0.74505805969E-08  0.93827000000E+00  0.93827000000E+00 0. -1.
     999902    2    1    2    0    0 -0.15623902475E-01  0.18415885227E-02  0.17750825955E-01  0.10202110287E+01  0.10199352693E+01 0.  0.
     999903    2    3    3    0    0  0.11356196026E+00 -0.72394013018E-02  0.58923755094E-01  0.12978042412E+00  0.20548036877E-01 0.  0.
         14    1    1    2    0    0  0.15623902475E-01 -0.18415885227E-02 -0.17750825955E-01  0.23718971288E-01  0.00000000000E+00 0. -1.
     999901    1    3    3    0    0 -0.12918586274E+00  0.90809898245E-02 -0.41172929139E-01  0.89043060460E+00  0.88000000000E+00 0. -1.
        -11    1    4    4    0    0  0.79619603110E-01  0.15865253737E-02  0.33183166834E-01  0.86273877532E-01  0.51100000000E-03 0. -1.
         11    1    4    4    0    0  0.33942357152E-01 -0.88259266756E-02  0.25740588260E-01  0.43506546585E-01  0.51100000000E-03 0.  1.
</event>
<event>
 8    1  0.1122465E+005  0.1043930E+01  0.7957747E-01            NaN
         13   -1    0    0    0    0  0.00000000000E+00  0.00000000000E+00  0.74505805969E-08  0.10566000000E+00  0.10566000000E+00 0. -1.
     999900   -1    0    0    0    0 -0.00000000000E+00 -0.00000000000E+00 -0.74505805969E-08  0.93827000000E+00  0.93827000000E+00 0.  1.
     999902    2    1    2    0    0 -0.70883349866E-02  0.90828477895E-02 -0.20803963771E-01  0.10201487569E+01  0.10198715304E+01 0.  0.
     999903    2    3    3    0    0  0.11054663416E+00  0.51081968247E-01 -0.44551377280E-01  0.13101105564E+00  0.18685440239E-01 0.  0.
         14    1    1    2    0    0  0.70883349866E-02 -0.90828477895E-02  0.20803963771E-01  0.23781243143E-01  0.00000000000E+00 0. -1.
     999901    1    3    3    0    0 -0.11763496915E+00 -0.41999120457E-01  0.23747413509E-01  0.88913770122E+00  0.88000000000E+00 0. -1.
        -11    1    4    4    0    0  0.22856857366E-01  0.15429196714E-01 -0.33973801493E-02  0.27790274428E-01  0.51100000000E-03 0.  1.
         11    1    4    4    0    0  0.87689776794E-01  0.35652771533E-01 -0.41153997131E-01  0.10322078121E+00  0.51100000000E-03 0. -1.
</event>
<event>
 8    1  0.1122465E+005  0.1043930E+01  0.7957747E-01            NaN
         13   -1    0    0    0    0  0.00000000000E+00  0.00000000000E+00  0.74505805969E-08  0.10566000000E+00  0.10566000000E+00 0.  1.
     999900   -1    0    0    0    0 -0.00000000000E+00 -0.00000000000E+00 -0.74505805969E-08  0.93827000000E+00  0.93827000000E+00 0.  1.
     999902    2    1    2    0    0  0.23723692293E-01  0.15592249837E-02 -0.99049298575E-03  0.10201344997E+01  0.10198569368E+01 0.  0.
     999903    2    3    3    0    0  0.61944794773E-01  0.11046258033E+00 -0.31301700328E-01  0.13208069346E+00  0.20648822937E-01 0.  0.
         14    1    1    2    0    0 -0.23723692293E-01 -0.15592249837E-02  0.99049298575E-03  0.23795500309E-01  0.00000000000E+00 0. -1.
     999901    1    3    3    0    0 -0.38221102479E-01 -0.10890335534E+00  0.30311207342E-01  0.88805380624E+00  0.88000000000E+00 0. -1.
        -11    1    4    4    0    0  0.33987237920E-01  0.40130732504E-01 -0.14455278124E-01  0.54541949171E-01  0.51100000000E-03 0. -1.
         11    1    4    4    0    0  0.27957556853E-01  0.70331847821E-01 -0.16846422204E-01  0.77538744284E-01  0.51100000000E-03 0.  1.
</event>
<event>
 8    1  0.1122465E+005  0.1043930E+01  0.7957747E-01            NaN
         13   -1    0    0    0    0  0.00000000000E+00  0.00000000000E+00  0.74505805969E-08  0.10566000000E+00  0.10566000000E+00 0. -1.
     999900   -1    0    0    0    0 -0.00000000000E+00 -0.00000000000E+00 -0.74505805969E-08  0.93827000000E+00  0.93827000000E+00 0. -1.
     999902    2    1    2    0    0  0.14920499027E-01  0.71013764538E-02 -0.16223067482E-01  0.10207731704E+01  0.10205104736E+01 0.  0.
     999903    2    3    3    0    0 -0.91431545574E-01  0.44699683445E-01  0.76318491965E-01  0.12875953244E+00  0.19917724563E-01 0.  0.
         14    1    1    2    0    0 -0.14920499027E-01 -0.71013764538E-02  0.16223067482E-01  0.23156829603E-01  0.00000000000E+00 0. -1.
     999901    1    3    3    0    0  0.10635204460E+00 -0.37598306992E-01 -0.92541559446E-01  0.89201363796E+00  0.88000000000E+00 0.  1.
        -11    1    4    4    0    0 -0.76778624287E-01  0.32970290297E-01  0.69820748159E-01  0.10889074885E+00  0.51100000000E-03 0.  1.
         11    1    4    4    0    0 -0.14652921287E-01  0.11729393149E-01  0.64977438052E-02  0.19868783593E-01  0.51100000000E-03 0. -1.
</event>
<event>
 8    1  0.1122465E+005  0.1043930E+01  0.7957747E-01            NaN
         13   -1    0    0    0    0  0.00000000000E+00  0.00000000000E+00  0.74505805969E-08  0.10566000000E+00  0.10566000000E+00 0.  1.
     999900   -1    0    0    0    0 -0.00000000000E+00 -0.00000000000E+00 -0.74505805969E-08  0.93827000000E+00  0.93827000000E+00 0. -1.
     999902    2    1    2    0    0  0.17168350605E-01 -0.64898524787E-02 -0.14590480135E-01  0.10204831973E+01  0.10202138028E+01 0.  0.
     999903    2    3    3    0    0 -0.23026639846E-01  0.44856668861E-01 -0.11985499381E+00  0.13181412481E+00  0.21619368007E-01 0.  0.
         14    1    1    2    0    0 -0.17168350605E-01  0.64898524787E-02  0.14590480135E-01  0.23446802730E-01  0.00000000000E+00 0.  1.
     999901    1    3    3    0    0  0.40194990451E-01 -0.51346521340E-01  0.10526451368E+00  0.88866907246E+00  0.88000000000E+00 0.  1.
        -11    1    4    4    0    0 -0.50426365623E-02  0.10584369446E-01 -0.55401918303E-01  0.56631181629E-01  0.51100000000E-03 0.  1.
         11    1    4    4    0    0 -0.17984003283E-01  0.34272299416E-01 -0.64453075510E-01  0.75182943179E-01  0.51100000000E-03 0. -1.
</event>
<event>
 8    1  0.1122465E+005  0.1043930E+01  0.7957747E-01            NaN
         13   -1    0    0    0    0  0.00000000000E+00  0.00000000000E+00  0.74505805969E-08  0.10566000000E+00  0.10566000000E+00 0. -1.
     999900   -1    0    0    0    0 -0.00000000000E+00 -0.00000000000E+00 -0.74505805969E-08  0.93827000000E+00  0.93827000000E+00 0. -1.
     999902    2    1    2    0    0  0.83287727080E-02 -0.71748985957E-02 -0.21086171767E-01  0.10201502972E+01  0.10198731071E+01 0.  0.
     999903    2    3    3    0    0  0.72684623758E-02 -0.70221888080E-01  0.10585275487E+00  0.12880887092E+00  0.20074247227E-01 0.  0.
         14    1    1    2    0    0 -0.83287727080E-02  0.71748985957E-02  0.21086171767E-01  0.23779702783E-01  0.00000000000E+00 0. -1.
     999901    1    3    3    0    0  0.10603103323E-02  0.63046989484E-01 -0.12693892664E+00  0.89134142630E+00  0.88000000000E+00 0. -1.
        -11    1    4    4    0    0  0.41542703394E-02 -0.42272644745E-01  0.45635477540E-01  0.62346550724E-01  0.51100000000E-03 0.  1.
         11    1    4    4    0    0  0.31141920364E-02 -0.27949243335E-01  0.60217277333E-01  0.66462320193E-01  0.51100000000E-03 0. -1.
</event>
<event>
 8    1  0.1122465E+005  0.1043930E+01  0.7957747E-01            NaN
         13   -1    0    0    0    0  0.00000000000E+00  0.00000000000E+00  0.74505805969E-08  0.10566000000E+00  0.10566000000E+00 0. -1.
     999900   -1    0    0    0    0 -0.00000000000E+00 -0.00000000000E+00 -0.74505805969E-08  0.93827000000E+00  0.93827000000E+00 0.  1.
     999902    2    1    2    0    0  0.14434628037E-01  0.11730759551E-01 -0.15660655483E-01  0.10196148743E+01  0.10193249073E+01 0.  0.
     999903    2    3    3    0    0  0.82630987416E-01  0.92314995608E-01 -0.43001304092E-01  0.13288375747E+00  0.21425273659E-01 0.  0.
         14    1    1    2    0    0 -0.14434628037E-01 -0.11730759551E-01  0.15660655483E-01  0.24315125671E-01  0.00000000000E+00 0. -1.
     999901    1    3    3    0    0 -0.68196359379E-01 -0.80584236057E-01  0.27340648609E-01  0.88673111686E+00  0.88000000000E+00 0. -1.
        -11    1    4    4    0    0  0.49437895788E-01  0.51904824693E-01 -0.13845076629E-01  0.73007969663E-01  0.51100000000E-03 0.  1.
         11    1    4    4    0    0  0.33193091627E-01  0.40410170915E-01 -0.29156227463E-01  0.59875787811E-01  0.51100000000E-03 0. -1.
</event>
<event>
 8    1  0.1122465E+005  0.1043930E+01  0.7957747E-01            NaN
         13   -1    0    0    0    0  0.00000000000E+00  0.00000000000E+00  0.74505805969E-08  0.10566000000E+00  0.10566000000E+00 0.  1.
     999900   -1    0    0    0    0 -0.00000000000E+00 -0.00000000000E+00 -0.74505805969E-08  0.93827000000E+00  0.93827000000E+00 0.  1.
     999902    2    1    2    0    0 -0.16059077218E-02 -0.24020108832E-01  0.19656682452E-02  0.10197761510E+01  0.10194900636E+01 0.  0.
     999903    2    3    3    0    0 -0.97617536960E-01  0.79969127647E-01  0.11826492214E-01  0.12841245978E+00  0.20631262906E-01 0.  0.
         14    1    1    2    0    0  0.16059077218E-02  0.24020108832E-01 -0.19656682452E-02  0.24153848960E-01  0.00000000000E+00 0. -1.
     999901    1    3    3    0    0  0.96011629239E-01 -0.10398923648E+00 -0.98608239691E-02  0.89136369126E+00  0.88000000000E+00 0.  1.
        -11    1    4    4    0    0 -0.37424040357E-02  0.28769871886E-02 -0.36055613900E-02  0.59618652440E-02  0.51100000000E-03 0. -1.
         11    1    4    4    0    0 -0.93875132925E-01  0.77092140458E-01  0.15432053604E-01  0.12245059453E+00  0.51100000000E-03 0.  1.
</event>
<event>
 8    1  0.1122465E+005  0.1043930E+01  0.7957747E-01            NaN
         13   -1    0    0    0    0  0.00000000000E+00  0.00000000000E+00  0.74505805969E-08  0.10566000000E+00  0.10566000000E+00 0. -1.
     999900   -1    0    0    0    0 -0.00000000000E+00 -0.00000000000E+00 -0.74505805969E-08  0.93827000000E+00  0.93827000000E+00 0.  1.
     999902    2    1    2    0    0  0.81680599263E-02 -0.13725045576E-01 -0.18128932568E-01  0.10197690341E+01  0.10194827760E+01 0.  0.
     999903    2    3    3    0    0 -0.68022280076E-01 -0.17192936361E-01  0.10516959719E+00  0.12790608404E+00  0.19408619564E-01 0.  0.
         14    1    1    2    0    0 -0.81680599263E-02  0.13725045576E-01  0.18128932568E-01  0.24160965938E-01  0.00000000000E+00 0. -1.
     999901    1    3    3    0    0  0.76190340003E-01  0.34678907841E-02 -0.12329852976E+00  0.89186295002E+00  0.88000000000E+00 0.  1.
        -11    1    4    4    0    0 -0.28486289528E-01 -0.87312628333E-02  0.28532076261E-01  0.41255837630E-01  0.51100000000E-03 0. -1.
         11    1    4    4    0    0 -0.39535990548E-01 -0.84616735272E-02  0.76637520933E-01  0.86650246412E-01  0.51100000000E-03 0.  1.
</event>
<event>
 8    1  0.1122465E+005  0.1043930E+01  0.7957747E-01            NaN
         13   -1    0    0    0    0  0.00000000000E+00  0.00000000000E+00  0.74505805969E-08  0.10566000000E+00  0.10566000000E+00 0.  1.
     999900   -1    0    0    0    0 -0.00000000000E+00 -0.00000000000E+00 -0.74505805969E-08  0.93827000000E+00  0.93827000000E+00 0.  1.
     999902    2    1    2    0    0 -0.72361320292E-02 -0.91554276381E-02 -0.20607887610E-01  0.10202473377E+01  0.10199724318E+01 0.  0.
     999903    2    3    3    0    0  0.21167280852E-01  0.12263946083E+00  0.26464532124E-01  0.12873600340E+00  0.19598366720E-01 0.  0.
         14    1    1    2    0    0  0.72361320292E-02  0.91554276381E-02  0.20607887610E-01  0.23682662303E-01  0.00000000000E+00 0.  1.
     999901    1    3    3    0    0 -0.28403412881E-01 -0.13179488847E+00 -0.47072419734E-01  0.89151133430E+00  0.88000000000E+00 0.  1.
        -11    1    4    4    0    0  0.22204829186E-01  0.77163166580E-01  0.20360495505E-01  0.82837308104E-01  0.51100000000E-03 0.  1.
         11    1    4    4    0    0 -0.10375483335E-02  0.45476294251E-01  0.61040366187E-02  0.45898695291E-01  0.51100000000E-03 0. -1.
</event>
<event>
 8    1  0.1122465E+005  0.1043930E+01  0.7957747E-01            NaN
         13   -1    0    0    0    0  0.00000000000E+00  0.00000000000E+00  0.74505805969E-08  0.10566000000E+00  0.10566000000E+00 0.  1.
     999900   -1    0    0    0    0 -0.00000000000E+00 -0.00000000000E+00 -0.74505805969E-08  0.93827000000E+00  0.93827000000E+00 0. -1.
     999902    2    1    2    0    0  0.24077391030E-02  0.17584719825E-01 -0.23054946593E-02  0.10260320983E+01  0.10258759827E+01 0.  0.
     999903    2    3    3    0    0 -0.63072963478E-01 -0.94785160177E-01 -0.67809365054E-01  0.13406490757E+00  0.20319058552E-01 0.  0.
         14    1    1    2    0    0 -0.24077391030E-02 -0.17584719825E-01  0.23054946593E-02  0.17897901680E-01  0.00000000000E+00 0.  1.
     999901    1    3    3    0    0  0.65480702581E-01  0.11236988000E+00  0.65503870395E-01  0.89196719075E+00  0.88000000000E+00 0. -1.
        -11    1    4    4    0    0 -0.76528056305E-02 -0.24945808359E-01 -0.20121694346E-01  0.32954551932E-01  0.51100000000E-03 0. -1.
         11    1    4    4    0    0 -0.55420157848E-01 -0.69839351818E-01 -0.47687670709E-01  0.10111035564E+00  0.51100000000E-03 0.  1.
</event>
<event>
 8    1  0.1122465E+005  0.1043930E+01  0.7957747E-01            NaN
         13   -1    0    0    0    0  0.00000000000E+00  0.00000000000E+00  0.74505805969E-08  0.10566000000E+00  0.10566000000E+00 0. -1.
     999900   -1    0    0    0    0 -0.00000000000E+00 -0.00000000000E+00 -0.74505805969E-08  0.93827000000E+00  0.93827000000E+00 0.  1.
     999902    2    1    2    0    0  0.10501051471E-01 -0.67975753530E-02 -0.21098440835E-01  0.10194019891E+01  0.10191068600E+01 0.  0.
     999903    2    3    3    0    0 -0.87304873471E-01  0.12153688095E-01 -0.94643324370E-01  0.13073219710E+00  0.19070800815E-01 0.  0.
         14    1    1    2    0    0 -0.10501051471E-01  0.67975753530E-02  0.21098440835E-01  0.24528010892E-01  0.00000000000E+00 0. -1.
     999901    1    3    3    0    0  0.97805924942E-01 -0.18951263448E-01  0.73544883535E-01  0.88866979201E+00  0.88000000000E+00 0. -1.
        -11    1    4    4    0    0 -0.29663878014E-01  0.78867812298E-02 -0.21366091509E-01  0.37402111763E-01  0.51100000000E-03 0. -1.
         11    1    4    4    0    0 -0.57640995457E-01  0.42669068652E-02 -0.73277232861E-01  0.93330085333E-01  0.51100000000E-03 0.  1.
</event>
<event>
 8    1  0.1122465E+005  0.1043930E+01  0.7957747E-01            NaN
         13   -1    0    0    0    0  0.00000000000E+00  0.00000000000E+00  0.74505805969E-08  0.10566000000E+00  0.10566000000E+00 0. -1.
     999900   -1    0    0    0    0 -0.00000000000E+00 -0.00000000000E+00 -0.74505805969E-08  0.93827000000E+00  0.93827000000E+00 0.  1.
     999902    2    1    2    0    0  0.37269933174E-03  0.12890449948E-02  0.23848210916E-01  0.10200440689E+01  0.10197643673E+01 0.  0.
     999903    2    3    3    0    0  0.22559124817E-02 -0.10386579148E+00  0.79273631276E-01  0.13205022692E+00  0.18967393949E-01 0.  0.
         14    1    1    2    0    0 -0.37269933174E-03 -0.12890449948E-02 -0.23848210916E-01  0.23885931124E-01  0.00000000000E+00 0.  1.
     999901    1    3    3    0    0 -0.18832131500E-02  0.10515483648E+00 -0.55425420360E-01  0.88799384195E+00  0.88000000000E+00 0.  1.
        -11    1    4    4    0    0 -0.27455804986E-02 -0.71515074860E-01  0.44431147079E-01  0.84239729915E-01  0.51100000000E-03 0.  1.
         11    1    4    4    0    0  0.50014929804E-02 -0.32350716621E-01  0.34842484197E-01  0.47810497006E-01  0.51100000000E-03 0. -1.
</event>
<event>
 8    1  0.1122465E+005  0.1043930E+01  0.7957747E-01            NaN
         13   -1    0    0    0    0  0.00000000000E+00  0.00000000000E+00  0.74505805969E-08  0.10566000000E+00  0.10566000000E+00 0. -1.
     999900   -1    0    0    0    0 -0.00000000000E+00 -0.00000000000E+00 -0.74505805969E-08  0.93827000000E+00  0.93827000000E+00 0.  1.
     999902    2    1    2    0    0  0.21191616419E-01  0.59016873192E-02 -0.99654303117E-02  0.10197799623E+01  0.10194939662E+01 0.  0.
     999903    2    3    3    0    0 -0.64842248892E-01 -0.10868555780E+00 -0.10544716976E-01  0.12819014725E+00  0.17448641186E-01 0.  0.
         14    1    1    2    0    0 -0.21191616419E-01 -0.59016873192E-02  0.99654303117E-02  0.24150037701E-01  0.00000000000E+00 0. -1.
     999901    1    3    3    0    0  0.86033865311E-01  0.11458724512E+00  0.57928666474E-03  0.89158981505E+00  0.88000000000E+00 0.  1.
        -11    1    4    4    0    0 -0.17689241922E-01 -0.43609030971E-01 -0.83277087432E-02  0.47794023851E-01  0.51100000000E-03 0. -1.
         11    1    4    4    0    0 -0.47153006970E-01 -0.65076526834E-01 -0.22170082332E-02  0.80396123399E-01  0.51100000000E-03 0.  1.
</event>
<event>
 8    1  0.1122465E+005  0.1043930E+01  0.7957747E-01            NaN
         13   -1    0    0    0    0  0.00000000000E+00  0.00000000000E+00  0.74505805969E-08  0.10566000000E+00  0.10566000000E+00 0. -1.
     999900   -1    0    0    0    0 -0.00000000000E+00 -0.00000000000E+00 -0.74505805969E-08  0.93827000000E+00  0.93827000000E+00 0. -1.
     999902    2    1    2    0    0  0.62672347710E-02  0.10922025913E-01 -0.19505149894E-01  0.10207132010E+01  0.10204491261E+01 0.  0.
     999903    2    3    3    0    0  0.22515144208E-01  0.86491665244E-01 -0.97578827894E-01  0.13388161378E+00  0.20369560158E-01 0.  0.
         14    1    1    2    0    0 -0.62672347710E-02 -0.10922025913E-01  0.19505149894E-01  0.23216798964E-01  0.00000000000E+00 0. -1.
     999901    1    3    3    0    0 -0.16247909437E-01 -0.75569639331E-01  0.78073678000E-01  0.88683158725E+00  0.88000000000E+00 0.  1.
        -11    1    4    4    0    0  0.19738033782E-01  0.39961837918E-01 -0.40889372778E-01  0.60487522636E-01  0.51100000000E-03 0.  1.
         11    1    4    4    0    0  0.27771104259E-02  0.46529827326E-01 -0.56689455116E-01  0.73394091149E-01  0.51100000000E-03 0. -1.
</event>
<event>
 8    1  0.1122465E+005  0.1043930E+01  0.7957747E-01            NaN
         13   -1    0    0    0    0  0.00000000000E+00  0.00000000000E+00  0.74505805969E-08  0.10566000000E+00  0.10566000000E+00 0. -1.
     999900   -1    0    0    0    0 -0.00000000000E+00 -0.00000000000E+00 -0.74505805969E-08  0.93827000000E+00  0.93827000000E+00 0.  1.
     999902    2    1    2    0    0  0.12422456080E-01 -0.58603723628E-02  0.17677302393E-01  0.10215436560E+01  0.10212983367E+01 0.  0.
     999903    2    3    3    0    0 -0.23974076196E-01 -0.90520484359E-01  0.92972030307E-01  0.13353389353E+00  0.20464307578E-01 0.  0.
         14    1    1    2    0    0 -0.12422456080E-01  0.58603723628E-02 -0.17677302393E-01  0.22386344034E-01  0.00000000000E+00 0.  1.
     999901    1    3    3    0    0  0.36396532277E-01  0.84660111996E-01 -0.75294727913E-01  0.88800976243E+00  0.88000000000E+00 0. -1.
        -11    1    4    4    0    0 -0.18268343436E-01 -0.45493205748E-01  0.59722725820E-01  0.77268552733E-01  0.51100000000E-03 0. -1.
         11    1    4    4    0    0 -0.57057327606E-02 -0.45027278611E-01  0.33249304487E-01  0.56265340800E-01  0.51100000000E-03 0.  1.
</event>
<event>
 8    1  0.1122465E+005  0.1043930E+01  0.7957747E-01            NaN
         13   -1    0    0    0    0  0.00000000000E+00  0.00000000000E+00  0.74505805969E-08  0.10566000000E+00  0.10566000000E+00 0.  1.
     999900   -1    0    0    0    0 -0.00000000000E+00 -0.00000000000E+00 -0.74505805969E-08  0.93827000000E+00  0.93827000000E+00 0.  1.
     999902    2    1    2    0    0  0.24280736831E-01  0.18059397707E-02 -0.90417563592E-03  0.10195654123E+01  0.10192742501E+01 0.  0.
     999903    2    3    3    0    0  0.29265729331E-01  0.12074057050E+00 -0.34679140179E-01  0.13090853547E+00  0.22352485698E-01 0.  0.
         14    1    1    2    0    0 -0.24280736831E-01 -0.18059397707E-02  0.90417563592E-03  0.24364587686E-01  0.00000000000E+00 0.  1.
     999901    1    3    3    0    0 -0.49849925001E-02 -0.11893463073E+00  0.33774964543E-01  0.88865687685E+00  0.88000000000E+00 0.  1.
        -11    1    4    4    0    0  0.19087513712E-01  0.78329383313E-01 -0.11274583195E-01  0.81407633654E-01  0.51100000000E-03 0. -1.
         11    1    4    4    0    0  0.10178215619E-01  0.42411187187E-01 -0.23404556984E-01  0.49500901814E-01  0.51100000000E-03 0.  1.
</event>
<event>
 8    1  0.1122465E+005  0.1043930E+01  0.7957747E-01            NaN
         13   -1    0    0    0    0  0.00000000000E+00  0.00000000000E+00  0.74505805969E-08  0.10566000000E+00  0.10566000000E+00 0. -1.
     999900   -1    0    0    0    0 -0.00000000000E+00 -0.00000000000E+00 -0.74505805969E-08  0.93827000000E+00  0.93827000000E+00 0. -1.
     999902    2    1    2    0    0 -0.15667190407E-01  0.17610763552E-01 -0.33644803093E-02  0.10201199270E+01  0.10198420201E+01 0.  0.
     999903    2    3    3    0    0  0.92869336717E-01  0.68233507905E-01 -0.55719647670E-01  0.13046611596E+00  0.25223064312E-01 0.  0.
         14    1    1    2    0    0  0.15667190407E-01 -0.17610763552E-01  0.33644803093E-02  0.23810072992E-01  0.00000000000E+00 0.  1.
     999901    1    3    3    0    0 -0.10853652712E+00 -0.50622744354E-01  0.52355167361E-01  0.88965381105E+00  0.88000000000E+00 0.  1.
        -11    1    4    4    0    0  0.41046018250E-01  0.15860381180E-01 -0.25229084858E-01  0.50725685300E-01  0.51100000000E-03 0. -1.
         11    1    4    4    0    0  0.51823318467E-01  0.52373126725E-01 -0.30490562812E-01  0.79740430658E-01  0.51100000000E-03 0.  1.
</event>
<event>
 8    1  0.1122465E+005  0.1043930E+01  0.7957747E-01            NaN
         13   -1    0    0    0    0  0.00000000000E+00  0.00000000000E+00  0.74505805969E-08  0.10566000000E+00  0.10566000000E+00 0.  1.
     999900   -1    0    0    0    0 -0.00000000000E+00 -0.00000000000E+00 -0.74505805969E-08  0.93827000000E+00  0.93827000000E+00 0.  1.
     999902    2    1    2    0    0  0.40332481736E-02  0.23127478787E-01  0.23726508319E-02  0.10203338809E+01  0.10200610039E+01 0.  0.
     999903    2    3    3    0    0 -0.56167050879E-01  0.77286426177E-01  0.89372438350E-01  0.13234388621E+00  0.19988551862E-01 0.  0.
         14    1    1    2    0    0 -0.40332481736E-02 -0.23127478787E-01 -0.23726508319E-02  0.23596119127E-01  0.00000000000E+00 0.  1.
     999901    1    3    3    0    0  0.60200299053E-01 -0.54158947389E-01 -0.86999787518E-01  0.88798999466E+00  0.88000000000E+00 0.  1.
        -11    1    4    4    0    0 -0.26306930339E-01  0.31479220247E-01  0.51416702656E-01  0.65779436941E-01  0.51100000000E-03 0.  1.
         11    1    4    4    0    0 -0.29860120541E-01  0.45807205929E-01  0.37955735694E-01  0.66564449272E-01  0.51100000000E-03 0. -1.
</event>
<event>
 8    1  0.1122465E+005  0.1043930E+01  0.7957747E-01            NaN
         13   -1    0    0    0    0  0.00000000000E+00  0.00000000000E+00  0.74505805969E-08  0.10566000000E+00  0.10566000000E+00 0.  1.
     999900   -1    0    0    0    0 -0.00000000000E+00 -0.00000000000E+00 -0.74505805969E-08  0.93827000000E+00  0.93827000000E+00 0.  1.
     999902    2    1    2    0    0  0.18232474643E-01  0.14688783652E-01 -0.10869063976E-01  0.10181168241E+01  0.10177895399E+01 0.  0.
     999903    2    3    3    0    0  0.19551841594E-01 -0.88125643968E-01  0.86484338653E-01  0.12679744688E+00  0.21204906718E-01 0.  0.
         14    1    1    2    0    0 -0.18232474643E-01 -0.14688783652E-01  0.10869063976E-01  0.25813175870E-01  0.00000000000E+00 0.  1.
     999901    1    3    3    0    0 -0.13193669508E-02  0.10281442762E+00 -0.97353402629E-01  0.89131937725E+00  0.88000000000E+00 0.  1.
        -11    1    4    4    0    0  0.20811853995E-01 -0.62826133633E-01  0.71187407091E-01  0.97201668624E-01  0.51100000000E-03 0.  1.
         11    1    4    4    0    0 -0.12600124016E-02 -0.25299510334E-01  0.15296931562E-01  0.29595778256E-01  0.51100000000E-03 0. -1.
</event>
<event>
 8    1  0.1122465E+005  0.1043930E+01  0.7957747E-01            NaN
         13   -1    0    0    0    0  0.00000000000E+00  0.00000000000E+00  0.74505805969E-08  0.10566000000E+00  0.10566000000E+00 0. -1.
     999900   -1    0    0    0    0 -0.00000000000E+00 -0.00000000000E+00 -0.74505805969E-08  0.93827000000E+00  0.93827000000E+00 0. -1.
     999902    2    1    2    0    0 -0.12177880409E-03  0.18426250796E-01 -0.14791843692E-01  0.10203007768E+01  0.10200271246E+01 0.  0.
     999903    2    3    3    0    0  0.95959191389E-01 -0.16148198954E-01 -0.86290053323E-01  0.13151568503E+00  0.19531291908E-01 0.  0.
         14    1    1    2    0    0  0.12177880409E-03 -0.18426250796E-01  0.14791843692E-01  0.23629223184E-01  0.00000000000E+00 0. -1.
     999901    1    3    3    0    0 -0.96080970194E-01  0.34574449750E-01  0.71498209631E-01  0.88878509179E+00  0.88000000000E+00 0.  1.
        -11    1    4    4    0    0  0.88309357551E-01 -0.19045186915E-01 -0.83011361910E-01  0.12268825984E+00  0.51100000000E-03 0.  1.
         11    1    4    4    0    0  0.76498338381E-02  0.28969879608E-02 -0.32786914130E-02  0.88274251838E-02  0.51100000000E-03 0. -1.
</event>
<event>
 8    1  0.1122465E+005  0.1043930E+01  0.7957747E-01            NaN
         13   -1    0    0    0    0  0.00000000000E+00  0.00000000000E+00  0.74505805969E-08  0.10566000000E+00  0.10566000000E+00 0. -1.
     999900   -1    0    0    0    0 -0.00000000000E+00 -0.00000000000E+00 -0.74505805969E-08  0.93827000000E+00  0.93827000000E+00 0. -1.
     999902    2    1    2    0    0 -0.22256927675E-01 -0.84581195291E-03 -0.96971965384E-02  0.10196375763E+01  0.10193481570E+01 0.  0.
     999903    2    3    3    0    0  0.10966823682E+00 -0.56146217368E-01 -0.21692235702E-01  0.12800633818E+00  0.27121018283E-01 0.  0.
         14    1    1    2    0    0  0.22256927675E-01  0.84581195291E-03  0.96971965384E-02  0.24292423677E-01  0.00000000000E+00 0. -1.
     999901    1    3    3    0    0 -0.13192516450E+00  0.55300405415E-01  0.11995039163E-01  0.89163123814E+00  0.88000000000E+00 0. -1.
        -11    1    4    4    0    0  0.94276749423E-01 -0.45876942589E-01 -0.27876991074E-01  0.10849049311E+00  0.51100000000E-03 0. -1.
         11    1    4    4    0    0  0.15391487398E-01 -0.10269274779E-01  0.61847553723E-02  0.19515845070E-01  0.51100000000E-03 0.  1.
</event>
<event>
 8    1  0.1122465E+005  0.1043930E+01  0.7957747E-01            NaN
         13   -1    0    0    0    0  0.00000000000E+00  0.00000000000E+00  0.74505805969E-08  0.10566000000E+00  0.10566000000E+00 0. -1.
     999900   -1    0    0    0    0 -0.00000000000E+00 -0.00000000000E+00 -0.74505805969E-08  0.93827000000E+00  0.93827000000E+00 0.  1.
     999902    2    1    2    0    0 -0.14231033344E-01  0.18831999177E-01  0.42531698435E-02  0.10199455059E+01  0.10196634636E+01 0.  0.
     999903    2    3    3    0    0  0.52141168554E-01 -0.11123515918E+00 -0.27324885349E-01  0.12735382522E+00  0.19503469990E-01 0.  0.
         14    1    1    2    0    0  0.14231033344E-01 -0.18831999177E-01 -0.42531698435E-02  0.23984494090E-01  0.00000000000E+00 0.  1.
     999901    1    3    3    0    0 -0.66372201898E-01  0.13006715836E+00  0.31578055192E-01  0.89259168069E+00  0.88000000000E+00 0.  1.
        -11    1    4    4    0    0  0.50182176666E-01 -0.10947932708E+00 -0.29393306954E-01  0.12396855056E+00  0.51100000000E-03 0.  1.
         11    1    4    4    0    0  0.19589918886E-02 -0.17558321063E-02  0.20684216053E-02  0.33852746628E-02  0.51100000000E-03 0. -1.
</event>
<event>
 8    1  0.1122465E+005  0.1043930E+01  0.7957747E-01            NaN
         13   -1    0    0    0    0  0.00000000000E+00  0.00000000000E+00  0.74505805969E-08  0.10566000000E+00  0.10566000000E+00 0.  1.
     999900   -1    0    0    0    0 -0.00000000000E+00 -0.00000000000E+00 -0.74505805969E-08  0.93827000000E+00  0.93827000000E+00 0.  1.
     999902    2    1    2    0    0  0.63792897591E-02 -0.64236516024E-02 -0.21735684503E-01  0.10203843291E+01  0.10201126313E+01 0.  0.
     999903    2    3    3    0    0 -0.10999665973E+00 -0.38675312507E-01 -0.58106403492E-01  0.13139256285E+00  0.17105744516E-01 0.  0.
         14    1    1    2    0    0 -0.63792897591E-02  0.64236516024E-02  0.21735684503E-01  0.23545670909E-01  0.00000000000E+00 0.  1.
     999901    1    3    3    0    0  0.11637594949E+00  0.32251660905E-01  0.36370718990E-01  0.88899176624E+00  0.88000000000E+00 0. -1.
        -11    1    4    4    0    0 -0.44109881176E-01 -0.24345882458E-01 -0.23342829780E-01  0.55529743680E-01  0.51100000000E-03 0. -1.
         11    1    4    4    0    0 -0.65886778554E-01 -0.14329430050E-01 -0.34763573713E-01  0.75862819167E-01  0.51100000000E-03 0.  1.
</event>
<event>
 8    1  0.1122465E+005  0.1043930E+01  0.7957747E-01            NaN
         13   -1    0    0    0    0  0.00000000000E+00  0.00000000000E+00  0.74505805969E-08  0.10566000000E+00  0.10566000000E+00 0. -1.
     999900   -1    0    0    0    0 -0.00000000000E+00 -0.00000000000E+00 -0.74505805969E-08  0.93827000000E+00  0.93827000000E+00 0.  1.
     999902    2    1    2    0    0  0.21967237526E-01 -0.54961640909E-02 -0.16392577381E-02  0.10212263767E+01  0.10209739752E+01 0.  0.
     999903    2    3    3    0    0 -0.17853316009E-01  0.74353719719E-01 -0.10421030755E+00  0.13078687811E+00  0.19955018324E-01 0.  0.
         14    1    1    2    0    0 -0.21967237526E-01  0.54961640909E-02  0.16392577381E-02  0.22703623283E-01  0.00000000000E+00 0.  1.
     999901    1    3    3    0    0  0.39820553535E-01 -0.79849883810E-01  0.10257104981E+00  0.89043949861E+00  0.88000000000E+00 0. -1.
        -11    1    4    4    0    0 -0.56252686661E-02  0.57260325765E-02 -0.47873609895E-02  0.93600770764E-02  0.51100000000E-03 0.  1.
         11    1    4    4    0    0 -0.12228047343E-01  0.68627687142E-01 -0.99422946561E-01  0.12142680103E+00  0.51100000000E-03 0. -1.
</event>
<event>
 8    1  0.1122465E+005  0.1043930E+01  0.7957747E-01            NaN
         13   -1    0    0    0    0  0.00000000000E+00  0.00000000000E+00  0.74505805969E-08  0.10566000000E+00  0.10566000000E+00 0.  1.
     999900   -1    0    0    0    0 -0.00000000000E+00 -0.00000000000E+00 -0.74505805969E-08  0.93827000000E+00  0.93827000000E+00 0. -1.
     999902    2    1    2    0    0 -0.16093961080E-01  0.13445506618E-01  0.11308012329E-01  0.10201042078E+01  0.10198259295E+01 0.  0.
     999903    2    3    3    0    0 -0.16046849845E-01  0.12927707003E+00  0.69285200204E-02  0.13250287090E+00  0.23215171373E-01 0.  0.
         14    1    1    2    0    0  0.16093961080E-01 -0.13445506618E-01 -0.11308012329E-01  0.23825792207E-01  0.00000000000E+00 0. -1.
     999901    1    3    3    0    0 -0.47111234303E-04 -0.11583156341E+00  0.43794923086E-02  0.88760133689E+00  0.88000000000E+00 0. -1.
        -11    1    4    4    0    0 -0.74306291461E-02  0.58783710013E-01 -0.84043767263E-02  0.59846749966E-01  0.51100000000E-03 0.  1.
         11    1    4    4    0    0 -0.86162206992E-02  0.70493360016E-01  0.15332896747E-01  0.72656120934E-01  0.51100000000E-03 0. -1.
</event>
<event>
 7    1  0.1122465E+005  0.1043930E+01  0.7957747E-01            NaN
         13   -1    0    0    0    0  0.00000000000E+00  0.00000000000E+00  0.74505805969E-08  0.10566000000E+00  0.10566000000E+00 0. -1.
     999900   -1    0    0    0    0 -0.00000000000E+00 -0.00000000000E+00 -0.74505805969E-08  0.93827000000E+00  0.93827000000E+00 0.  1.
     999902    2    1    2    0    0  0.78696934415E-02  0.19075101373E-01 -0.97597671752E-02  0.10211035981E+01  0.10208484283E+01 0.  0.
         14    1    1    2    0    0 -0.78696934415E-02 -0.19075101373E-01  0.97597671752E-02  0.22826401875E-01  0.00000000000E+00 0. -1.
     999901    1    3    3    0    0  0.50494154899E-01 -0.78402075801E-01 -0.50021919577E-01  0.88634008011E+00  0.88000000000E+00 0.  1.
        -11    1    3    3    0    0 -0.44550147996E-02  0.17280407754E-01  0.42309286171E-01  0.45921633968E-01  0.51100000000E-03 0.  1.
         11    1    3    3    0    0 -0.38169446658E-01  0.80196769420E-01 -0.20471337690E-02  0.88841884048E-01  0.51100000000E-03 0. -1.
</event>
<event>
 8    1  0.1122465E+005  0.1043930E+01  0.7957747E-01            NaN
         13   -1    0    0    0    0  0.00000000000E+00  0.00000000000E+00  0.74505805969E-08  0.10566000000E+00  0.10566000000E+00 0.  1.
     999900   -1    0    0    0    0 -0.00000000000E+00 -0.00000000000E+00 -0.74505805969E-08  0.93827000000E+00  0.93827000000E+00 0.  1.
     999902    2    1    2    0    0 -0.21325106669E-01 -0.82401765752E-02 -0.24307583833E-02  0.10209393656E+01  0.10206804686E+01 0.  0.
     999903    2    3    3    0    0 -0.77934012969E-01  0.57767807131E-01  0.87373795072E-01  0.13210502781E+00  0.20167508267E-01 0.  0.
         14    1    1    2    0    0  0.21325106669E-01  0.82401765752E-02  0.24307583833E-02  0.22990634414E-01  0.00000000000E+00 0. -1.
     999901    1    3    3    0    0  0.56608906300E-01 -0.66007983706E-01 -0.89804553456E-01  0.88883433777E+00  0.88000000000E+00 0.  1.
        -11    1    4    4    0    0 -0.26909990153E-01  0.32299170432E-01  0.36119470356E-01  0.55427982468E-01  0.51100000000E-03 0.  1.
         11    1    4    4    0    0 -0.51024022816E-01  0.25468636699E-01  0.51254324717E-01  0.76677045344E-01  0.51100000000E-03 0. -1.
</event>
<event>
 8    1  0.1122465E+005  0.1043930E+01  0.7957747E-01            NaN
         13   -1    0    0    0    0  0.00000000000E+00  0.00000000000E+00  0.74505805969E-08  0.10566000000E+00  0.10566000000E+00 0.  1.
     999900   -1    0    0    0    0 -0.00000000000E+00 -0.00000000000E+00 -0.74505805969E-08  0.93827000000E+00  0.93827000000E+00 0. -1.
     999902    2    1    2    0    0 -0.55344566690E-02  0.22779519174E-01  0.52628910587E-02  0.10199042903E+01  0.10196212663E+01 0.  0.
     999903    2    3    3    0    0  0.33370425206E-01 -0.10758669712E+00 -0.56031812575E-01  0.12734281853E+00  0.19701439926E-01 0.  0.
         14    1    1    2    0    0  0.55344566690E-02 -0.22779519174E-01 -0.52628910587E-02  0.24025709702E-01  0.00000000000E+00 0.  1.
     999901    1    3    3    0    0 -0.38904881875E-01  0.13036621630E+00  0.61294703634E-01  0.89256147176E+00  0.88000000000E+00 0.  1.
        -11    1    4    4    0    0  0.27258837218E-01 -0.73547065379E-01 -0.29699511649E-01  0.83872147615E-01  0.51100000000E-03 0. -1.
         11    1    4    4    0    0  0.61115879875E-02 -0.34039631744E-01 -0.26332300926E-01  0.43470670918E-01  0.51100000000E-03 0.  1.
</event>
<event>
 8    1  0.1122465E+005  0.1043930E+01  0.7957747E-01            NaN
         13   -1    0    0    0    0  0.00000000000E+00  0.00000000000E+00  0.74505805969E-08  0.10566000000E+00  0.10566000000E+00 0.  1.
     999900   -1    0    0    0    0 -0.00000000000E+00 -0.00000000000E+00 -0.74505805969E-08  0.93827000000E+00  0.93827000000E+00 0. -1.
     999902    2    1    2    0    0 -0.25287399995E-02  0.23243826673E-01 -0.80077883174E-02  0.10192157394E+01  0.10189160558E+01 0.  0.
     999903    2    3    3    0    0  0.87839360187E-02  0.63995062868E-01  0.11097249526E+00  0.13020227054E+00  0.21568749324E-01 0.  0.
         14    1    1    2    0    0  0.25287399995E-02 -0.23243826673E-01  0.80077883174E-02  0.24714260623E-01  0.00000000000E+00 0.  1.
     999901    1    3    3    0    0 -0.11312676018E-01 -0.40751236195E-01 -0.11898028357E+00  0.88901346883E+00  0.88000000000E+00 0. -1.
        -11    1    4    4    0    0  0.10452486351E-01  0.65052208110E-01  0.10576744463E+00  0.12461162753E+00  0.51100000000E-03 0.  1.
         11    1    4    4    0    0 -0.16685503326E-02 -0.10571452419E-02  0.52050506260E-02  0.55906430126E-02  0.51100000000E-03 0. -1.
</event>
<event>
 8    1  0.1122465E+005  0.1043930E+01  0.7957747E-01            NaN
         13   -1    0    0    0    0  0.00000000000E+00  0.00000000000E+00  0.74505805969E-08  0.10566000000E+00  0.10566000000E+00 0. -1.
     999900   -1    0    0    0    0 -0.00000000000E+00 -0.00000000000E+00 -0.74505805969E-08  0.93827000000E+00  0.93827000000E+00 0. -1.
     999902    2    1    2    0    0  0.18443442398E-01  0.27105847271E-01 -0.18813337455E-01  0.10061301430E+01  0.10054198304E+01 0.  0.
     999903    2    3    3    0    0 -0.24802570843E-01  0.11358382448E+00  0.20669684515E-01  0.11995433243E+00  0.21103395582E-01 0.  0.
         14    1    1    2    0    0 -0.18443442398E-01 -0.27105847271E-01  0.18813337455E-01  0.37799857010E-01  0.00000000000E+00 0.  1.
     999901    1    3    3    0    0  0.43246013240E-01 -0.86477977214E-01 -0.39483021970E-01  0.88617581056E+00  0.88000000000E+00 0. -1.
        -11    1    4    4    0    0 -0.23609187959E-01  0.10690823586E+00  0.13909442719E-01  0.11036529513E+00  0.51100000000E-03 0. -1.
         11    1    4    4    0    0 -0.11933828836E-02  0.66755886249E-02  0.67602417962E-02  0.95890372999E-02  0.51100000000E-03 0.  1.
</event>
<event>
 8    1  0.1122465E+005  0.1043930E+01  0.7957747E-01            NaN
         13   -1    0    0    0    0  0.00000000000E+00  0.00000000000E+00  0.74505805969E-08  0.10566000000E+00  0.10566000000E+00 0. -1.
     999900   -1    0    0    0    0 -0.00000000000E+00 -0.00000000000E+00 -0.74505805969E-08  0.93827000000E+00  0.93827000000E+00 0. -1.
     999902    2    1    2    0    0  0.15616845191E-01 -0.82628729573E-02  0.15460434784E-01  0.10204526499E+01  0.10201825448E+01 0.  0.
     999903    2    3    3    0    0 -0.58110234730E-02  0.97121330736E-01 -0.81630277089E-01  0.12860535902E+00  0.20236485707E-01 0.  0.
         14    1    1    2    0    0 -0.15616845191E-01  0.82628729573E-02 -0.15460434784E-01  0.23477350084E-01  0.00000000000E+00 0.  1.
     999901    1    3    3    0    0  0.21427868664E-01 -0.10538420369E+00  0.97090711874E-01  0.89184729089E+00  0.88000000000E+00 0.  1.
        -11    1    4    4    0    0 -0.24245715029E-02  0.31824825848E-01 -0.15063917366E-01  0.35297036910E-01  0.51100000000E-03 0.  1.
         11    1    4    4    0    0 -0.33864519701E-02  0.65296504888E-01 -0.66566359723E-01  0.93308322112E-01  0.51100000000E-03 0. -1.
</event>
<event>
 8    1  0.1122465E+005  0.1043930E+01  0.7957747E-01            NaN
         13   -1    0    0    0    0  0.00000000000E+00  0.00000000000E+00  0.74505805969E-08  0.10566000000E+00  0.10566000000E+00 0. -1.
     999900   -1    0    0    0    0 -0.00000000000E+00 -0.00000000000E+00 -0.74505805969E-08  0.93827000000E+00  0.93827000000E+00 0.  1.
     999902    2    1    2    0    0  0.15606358598E-01 -0.15129185865E-01  0.10128263044E-01  0.10199501667E+01  0.10196682353E+01 0.  0.
     999903    2    3    3    0    0  0.54986272976E-01 -0.61501643168E-01 -0.99960757830E-01  0.13100653800E+00  0.19094961779E-01 0.  0.
         14    1    1    2    0    0 -0.15606358598E-01  0.15129185865E-01 -0.10128263044E-01  0.23979833317E-01  0.00000000000E+00 0. -1.
     999901    1    3    3    0    0 -0.39379914378E-01  0.46372457303E-01  0.11008902087E+00  0.88894362868E+00  0.88000000000E+00 0. -1.
        -11    1    4    4    0    0  0.17486621815E-02 -0.10978708218E-01 -0.15967582695E-01  0.19463161914E-01  0.51100000000E-03 0.  1.
         11    1    4    4    0    0  0.53237610795E-01 -0.50522934951E-01 -0.83993175136E-01  0.11154337609E+00  0.51100000000E-03 0. -1.
</event>
<event>
 8    1  0.1122465E+005  0.1043930E+01  0.7957747E-01            NaN
         13   -1    0    0    0    0  0.00000000000E+00  0.00000000000E+00  0.74505805969E-08  0.10566000000E+00  0.10566000000E+00 0. -1.
     999900   -1    0    0    0    0 -0.00000000000E+00 -0.00000000000E+00 -0.74505805969E-08  0.93827000000E+00  0.93827000000E+00 0. -1.
     999902    2    1    2    0    0 -0.22981063941E-02  0.23479475181E-01 -0.13697142495E-02  0.10202985979E+01  0.10200248947E+01 0.  0.
     999903    2    3    3    0    0 -0.26015814735E-01  0.60425881131E-02  0.12622982878E+00  0.13060864174E+00  0.20280831761E-01 0.  0.
         14    1    1    2    0    0  0.22981063941E-02 -0.23479475181E-01  0.13697142495E-02  0.23631402094E-01  0.00000000000E+00 0.  1.
     999901    1    3    3    0    0  0.23717708341E-01  0.17436887068E-01 -0.12759954303E+00  0.88968995616E+00  0.88000000000E+00 0. -1.
        -11    1    4    4    0    0 -0.62262963013E-02 -0.30532772217E-02  0.69377352915E-01  0.69724941634E-01  0.51100000000E-03 0.  1.
         11    1    4    4    0    0 -0.19789518434E-01  0.90958653349E-02  0.56852475863E-01  0.60883700107E-01  0.51100000000E-03 0. -1.
</event>
<event>
 8    1  0.1122465E+005  0.1043930E+01  0.7957747E-01            NaN
         13   -1    0    0    0    0  0.00000000000E+00  0.00000000000E+00  0.74505805969E-08  0.10566000000E+00  0.10566000000E+00 0. -1.
     999900   -1    0    0    0    0 -0.00000000000E+00 -0.00000000000E+00 -0.74505805969E-08  0.93827000000E+00  0.93827000000E+00 0. -1.
     999902    2    1    2    0    0 -0.20902396248E-01 -0.14014956959E-01  0.15412303442E-01  0.10144195225E+01  0.10139901870E+01 0.  0.
     999903    2    3    3    0    0 -0.27503924943E-01  0.77751830898E-01  0.93263548802E-01  0.12620471739E+00  0.20681587488E-01 0.  0.
         14    1    1    2    0    0  0.20902396248E-01  0.14014956959E-01 -0.15412303442E-01  0.29510477544E-01  0.00000000000E+00 0.  1.
     999901    1    3    3    0    0  0.66015286948E-02 -0.91766787857E-01 -0.77851245361E-01  0.88821480507E+00  0.88000000000E+00 0.  1.
        -11    1    4    4    0    0 -0.15002137126E-01  0.30778523801E-01  0.52920254037E-01  0.63033293219E-01  0.51100000000E-03 0.  1.
         11    1    4    4    0    0 -0.12501787817E-01  0.46973307097E-01  0.40343294765E-01  0.63171424171E-01  0.51100000000E-03 0. -1.
</event>
<event>
 8    1  0.1122465E+005  0.1043930E+01  0.7957747E-01            NaN
         13   -1    0    0    0    0  0.00000000000E+00  0.00000000000E+00  0.74505805969E-08  0.10566000000E+00  0.10566000000E+00 0.  1.
     999900   -1    0    0    0    0 -0.00000000000E+00 -0.00000000000E+00 -0.74505805969E-08  0.93827000000E+00  0.93827000000E+00 0.  1.
     999902    2    1    2    0    0  0.14123823658E-02  0.20029914192E-01  0.14175291447E-01  0.10193509200E+01  0.10190545456E+01 0.  0.
     999903    2    3    3    0    0 -0.76094085361E-01 -0.94608569478E-01  0.34711986446E-01  0.12830042180E+00  0.22693280645E-01 0.  0.
         14    1    1    2    0    0 -0.14123823658E-02 -0.20029914192E-01 -0.14175291447E-01  0.24579080009E-01  0.00000000000E+00 0. -1.
     999901    1    3    3    0    0  0.77506467727E-01  0.11463848367E+00 -0.20536694999E-01  0.89105049819E+00  0.88000000000E+00 0. -1.
        -11    1    4    4    0    0 -0.32270728585E-01 -0.23511387655E-01  0.13183766171E-01  0.42050660926E-01  0.51100000000E-03 0.  1.
         11    1    4    4    0    0 -0.43823356777E-01 -0.71097181823E-01  0.21528220275E-01  0.86249760878E-01  0.51100000000E-03 0. -1.
</event>
<event>
 8    1  0.1122465E+005  0.1043930E+01  0.7957747E-01            NaN
         13   -1    0    0    0    0  0.00000000000E+00  0.00000000000E+00  0.74505805969E-08  0.10566000000E+00  0.10566000000E+00 0. -1.
     999900   -1    0    0    0    0 -0.00000000000E+00 -0.00000000000E+00 -0.74505805969E-08  0.93827000000E+00  0.93827000000E+00 0.  1.
     999902    2    1    2    0    0  0.19691667648E-02  0.15525630226E-01  0.19199941213E-01  0.10191598455E+01  0.10188587881E+01 0.  0.
     999903    2    3    3    0    0 -0.44775003524E-01  0.29629100928E-01  0.11913305342E+00  0.13215897049E+00  0.19764222764E-01 0.  0.
         14    1    1    2    0    0 -0.19691667648E-02 -0.15525630226E-01 -0.19199941213E-01  0.24770154505E-01  0.00000000000E+00 0. -1.
     999901    1    3    3    0    0  0.46744170289E-01 -0.14103470702E-01 -0.99933112208E-01  0.88700087500E+00  0.88000000000E+00 0.  1.
        -11    1    4    4    0    0 -0.12490112470E-01  0.76957318201E-02  0.15170255343E-01  0.21109831026E-01  0.51100000000E-03 0. -1.
         11    1    4    4    0    0 -0.32284891054E-01  0.21933369108E-01  0.10396279808E+00  0.11104913946E+00  0.51100000000E-03 0.  1.
</event>
<event>
 8    1  0.1122465E+005  0.1043930E+01  0.7957747E-01            NaN
         13   -1    0    0    0    0  0.00000000000E+00  0.00000000000E+00  0.74505805969E-08  0.10566000000E+00  0.10566000000E+00 0. -1.
     999900   -1    0    0    0    0 -0.00000000000E+00 -0.00000000000E+00 -0.74505805969E-08  0.93827000000E+00  0.93827000000E+00 0. -1.
     999902    2    1    2    0    0 -0.13816999437E-01 -0.51347549613E-02 -0.17284406094E-01  0.10212137971E+01  0.10209611126E+01 0.  0.
     999903    2    3    3    0    0 -0.59618313746E-01  0.97532187587E-02 -0.11801594114E+00  0.13415897671E+00  0.20528031078E-01 0.  0.
         14    1    1    2    0    0  0.13816999437E-01  0.51347549613E-02  0.17284406094E-01  0.22716202939E-01  0.00000000000E+00 0. -1.
     999901    1    3    3    0    0  0.45801314309E-01 -0.14887973720E-01  0.10073153504E+00  0.88705482035E+00  0.88000000000E+00 0.  1.
        -11    1    4    4    0    0 -0.16442939820E-01  0.11499689632E-01 -0.29830191276E-01  0.35954339990E-01  0.51100000000E-03 0. -1.
         11    1    4    4    0    0 -0.43175373926E-01 -0.17464708735E-02 -0.88185749860E-01  0.98204636722E-01  0.51100000000E-03 0.  1.
</event>
<event>
 8    1  0.1122465E+005  0.1043930E+01  0.7957747E-01            NaN
         13   -1    0    0    0    0  0.00000000000E+00  0.00000000000E+00  0.74505805969E-08  0.10566000000E+00  0.10566000000E+00 0.  1.
     999900   -1    0    0    0    0 -0.00000000000E+00 -0.00000000000E+00 -0.74505805969E-08  0.93827000000E+00  0.93827000000E+00 0. -1.
     999902    2    1    2    0    0  0.89087356627E-02 -0.43572466342E-02  0.21942668655E-01  0.10198503016E+01  0.10195659889E+01 0.  0.
     999903    2    3    3    0    0 -0.16869567395E-02 -0.62036379085E-01  0.11564745568E+00  0.13293444415E+00  0.21115735437E-01 0.  0.
         14    1    1    2    0    0 -0.89087356627E-02  0.43572466342E-02 -0.21942668655E-01  0.24079698442E-01  0.00000000000E+00 0. -1.
     999901    1    3    3    0    0  0.10595692402E-01  0.57679132450E-01 -0.93704787022E-01  0.88691585741E+00  0.88000000000E+00 0.  1.
        -11    1    4    4    0    0 -0.81008632905E-02 -0.32154910760E-01  0.75606279546E-01  0.82559874636E-01  0.51100000000E-03 0. -1.
         11    1    4    4    0    0  0.64139065511E-02 -0.29881468325E-01  0.40041176131E-01  0.50374569511E-01  0.51100000000E-03 0.  1.
</event>
<event>
 8    1  0.1122465E+005  0.1043930E+01  0.7957747E-01            NaN
         13   -1    0    0    0    0  0.00000000000E+00  0.00000000000E+00  0.74505805969E-08  0.10566000000E+00  0.10566000000E+00 0. -1.
     999900   -1    0    0    0    0 -0.00000000000E+00 -0.00000000000E+00 -0.74505805969E-08  0.93827000000E+00  0.93827000000E+00 0. -1.
     999902    2    1    2    0    0 -0.18295821998E-01 -0.14290700284E-02  0.18939500124E-01  0.10175579692E+01  0.10172161701E+01 0.  0.
     999903    2    3    3    0    0  0.61675996295E-01 -0.80772753010E-01  0.76141587476E-01  0.12853435278E+00  0.19883972267E-01 0.  0.
         14    1    1    2    0    0  0.18295821998E-01  0.14290700284E-02 -0.18939500124E-01  0.26372030803E-01  0.00000000000E+00 0. -1.
     999901    1    3    3    0    0 -0.79971818294E-01  0.79343682982E-01 -0.57202087352E-01  0.88902361642E+00  0.88000000000E+00 0. -1.
        -11    1    4    4    0    0  0.46186787250E-01 -0.56541051281E-01  0.64788763996E-01  0.97611243499E-01  0.51100000000E-03 0.  1.
         11    1    4    4    0    0  0.15489209046E-01 -0.24231701729E-01  0.11352823481E-01  0.30923109280E-01  0.51100000000E-03 0. -1.
</event>
<event>
 8    1  0.1122465E+005  0.1043930E+01  0.7957747E-01            NaN
         13   -1    0    0    0    0  0.00000000000E+00  0.00000000000E+00  0.74505805969E-08  0.10566000000E+00  0.10566000000E+00 0. -1.
     999900   -1    0    0    0    0 -0.00000000000E+00 -0.00000000000E+00 -0.74505805969E-08  0.93827000000E+00  0.93827000000E+00 0. -1.
     999902    2    1    2    0    0  0.83976453881E-02 -0.77114445948E-02 -0.21593854427E-01  0.10195111267E+01  0.10192186498E+01 0.  0.
     999903    2    3    3    0    0  0.94717220161E-01  0.47387795823E-01  0.70464824618E-01  0.12880253478E+00  0.20195209037E-01 0.  0.
         14    1    1    2    0    0 -0.83976453881E-02  0.77114445948E-02  0.21593854427E-01  0.24418873332E-01  0.00000000000E+00 0. -1.
     999901    1    3    3    0    0 -0.86319574773E-01 -0.55099240418E-01 -0.92058679045E-01  0.89070859189E+00  0.88000000000E+00 0. -1.
        -11    1    4    4    0    0  0.46540342218E-01  0.33932306197E-01  0.33832042516E-01  0.66800247600E-01  0.51100000000E-03 0.  1.
         11    1    4    4    0    0  0.48176877943E-01  0.13455489626E-01  0.36632782101E-01  0.62002287175E-01  0.51100000000E-03 0. -1.
</event>
<event>
 8    1  0.1122465E+005  0.1043930E+01  0.7957747E-01            NaN
         13   -1    0    0    0    0  0.00000000000E+00  0.00000000000E+00  0.74505805969E-08  0.10566000000E+00  0.10566000000E+00 0. -1.
     999900   -1    0    0    0    0 -0.00000000000E+00 -0.00000000000E+00 -0.74505805969E-08  0.93827000000E+00  0.93827000000E+00 0.  1.
     999902    2    1    2    0    0  0.17519121324E-01 -0.36852970905E-02 -0.17260215948E-01  0.10190620270E+01  0.10187585577E+01 0.  0.
     999903    2    3    3    0    0 -0.13826065997E-01 -0.89934169762E-01  0.87875660825E-01  0.12806542690E+00  0.19982662726E-01 0.  0.
         14    1    1    2    0    0 -0.17519121324E-01  0.36852970905E-02  0.17260215948E-01  0.24867973001E-01  0.00000000000E+00 0. -1.
     999901    1    3    3    0    0  0.31345187321E-01  0.86248872672E-01 -0.10513587677E+00  0.89099660010E+00  0.88000000000E+00 0.  1.
        -11    1    4    4    0    0 -0.12709917375E-01 -0.67610062387E-01  0.53914054546E-01  0.87405085289E-01  0.51100000000E-03 0. -1.
         11    1    4    4    0    0 -0.11161486213E-02 -0.22324107375E-01  0.33961606279E-01  0.40660341610E-01  0.51100000000E-03 0.  1.
</event>
<event>
 8    1  0.1122465E+005  0.1043930E+01  0.7957747E-01            NaN
         13   -1    0    0    0    0  0.00000000000E+00  0.00000000000E+00  0.74505805969E-08  0.10566000000E+00  0.10566000000E+00 0.  1.
     999900   -1    0    0    0    0 -0.00000000000E+00 -0.00000000000E+00 -0.74505805969E-08  0.93827000000E+00  0.93827000000E+00 0. -1.
     999902    2    1    2    0    0 -0.71835407956E-02 -0.13420360383E-01  0.17632786410E-01  0.10206356984E+01  0.10203698370E+01 0.  0.
     999903    2    3    3    0    0  0.77809891770E-01 -0.73730479043E-01  0.75453091649E-01  0.13260170034E+00  0.19986973139E-01 0.  0.
         14    1    1    2    0    0  0.71835407956E-02  0.13420360383E-01 -0.17632786410E-01  0.23294301616E-01  0.00000000000E+00 0. -1.
     999901    1    3    3    0    0 -0.84993432566E-01  0.60310118660E-01 -0.57820305239E-01  0.88803399805E+00  0.88000000000E+00 0. -1.
        -11    1    4    4    0    0  0.60432012602E-01 -0.64492060499E-01  0.68138834007E-01  0.11159935410E+00  0.51100000000E-03 0.  1.
         11    1    4    4    0    0  0.17377879168E-01 -0.92384185441E-02  0.73142576423E-02  0.21002346236E-01  0.51100000000E-03 0. -1.
</event>
<event>
 8    1  0.1122465E+005  0.1043930E+01  0.7957747E-01            NaN
         13   -1    0    0    0    0  0.00000000000E+00  0.00000000000E+00  0.74505805969E-08  0.10566000000E+00  0.10566000000E+00 0. -1.
     999900   -1    0    0    0    0 -0.00000000000E+00 -0.00000000000E+00 -0.74505805969E-08  0.93827000000E+00  0.93827000000E+00 0.  1.
     999902    2    1    2    0    0 -0.13136128993E-01  0.16261625333E-01  0.11171455229E-01  0.10202276846E+01  0.10199523169E+01 0.  0.
     999903    2    3    3    0    0  0.99501977026E-01  0.26465408103E-01 -0.74725915994E-01  0.12884122605E+00  0.20372475294E-01 0.  0.
         14    1    1    2    0    0  0.13136128993E-01 -0.16261625333E-01 -0.11171455229E-01  0.23702315400E-01  0.00000000000E+00 0.  1.
     999901    1    3    3    0    0 -0.11263810602E+00 -0.10203782770E-01  0.85897371223E-01  0.89138645855E+00  0.88000000000E+00 0. -1.
        -11    1    4    4    0    0  0.63124441475E-01  0.88791491913E-02 -0.53352637615E-01  0.83128210996E-01  0.51100000000E-03 0.  1.
         11    1    4    4    0    0  0.36377535551E-01  0.17586258911E-01 -0.21373278379E-01  0.45713015050E-01  0.51100000000E-03 0. -1.
</event>
<event>
 8    1  0.1122465E+005  0.1043930E+01  0.7957747E-01            NaN
         13   -1    0    0    0    0  0.00000000000E+00  0.00000000000E+00  0.74505805969E-08  0.10566000000E+00  0.10566000000E+00 0. -1.
     999900   -1    0    0    0    0 -0.00000000000E+00 -0.00000000000E+00 -0.74505805969E-08  0.93827000000E+00  0.93827000000E+00 0.  1.
     999902    2    1    2    0    0  0.13485701521E-01 -0.19843161269E-01 -0.25973709983E-02  0.10197978320E+01  0.10195122641E+01 0.  0.
     999903    2    3    3    0    0 -0.72674270647E-01  0.17853015800E-01 -0.10324111562E+00  0.12908255435E+00  0.20082283147E-01 0.  0.
         14    1    1    2    0    0 -0.13485701521E-01  0.19843161269E-01  0.25973709983E-02  0.24132167967E-01  0.00000000000E+00 0.  1.
     999901    1    3    3    0    0  0.86159972168E-01 -0.37696177069E-01  0.10064374462E+00  0.89071527768E+00  0.88000000000E+00 0. -1.
        -11    1    4    4    0    0 -0.44336652950E-01  0.20429111102E-01 -0.60631842557E-01  0.77843232385E-01  0.51100000000E-03 0. -1.
         11    1    4    4    0    0 -0.28337617697E-01 -0.25760953024E-02 -0.42609273059E-01  0.51239321964E-01  0.51100000000E-03 0.  1.
</event>
<event>
 8    1  0.1122465E+005  0.1043930E+01  0.7957747E-01            NaN
         13   -1    0    0    0    0  0.00000000000E+00  0.00000000000E+00  0.74505805969E-08  0.10566000000E+00  0.10566000000E+00 0. -1.
     999900   -1    0    0    0    0 -0.00000000000E+00 -0.00000000000E+00 -0.74505805969E-08  0.93827000000E+00  0.93827000000E+00 0. -1.
     999902    2    1    2    0    0  0.91784429906E-02  0.22113113996E-01  0.25633449752E-02  0.10198508729E+01  0.10195665738E+01 0.  0.
     999903    2    3    3    0    0  0.11664440094E+00  0.28312411324E-01 -0.50475640817E-01  0.13170646038E+00  0.19781114345E-01 0.  0.
         14    1    1    2    0    0 -0.91784429906E-02 -0.22113113996E-01 -0.25633449752E-02  0.24079127139E-01  0.00000000000E+00 0. -1.
     999901    1    3    3    0    0 -0.10746595795E+00 -0.61992973284E-02  0.53038985792E-01  0.88814441248E+00  0.88000000000E+00 0. -1.
        -11    1    4    4    0    0  0.38983541448E-01  0.62362853311E-02 -0.26245298929E-01  0.47409752113E-01  0.51100000000E-03 0.  1.
         11    1    4    4    0    0  0.77660859492E-01  0.22076125993E-01 -0.24230341888E-01  0.84296708268E-01  0.51100000000E-03 0. -1.
</event>
<event>
 8    1  0.1122465E+005  0.1043930E+01  0.7957747E-01            NaN
         13   -1    0    0    0    0  0.00000000000E+00  0.00000000000E+00  0.74505805969E-08  0.10566000000E+00  0.10566000000E+00 0. -1.
     999900   -1    0    0    0    0 -0.00000000000E+00 -0.00000000000E+00 -0.74505805969E-08  0.93827000000E+00  0.93827000000E+00 0.  1.
     999902    2    1    2    0    0  0.89516042233E-02 -0.18638521491E-01  0.10903610520E-01  0.10205544909E+01  0.10202867511E+01 0.  0.
     999903    2    3    3    0    0 -0.70860001979E-01  0.65843139974E-01  0.84292079636E-01  0.12988456835E+00  0.20208598247E-01 0.  0.
         14    1    1    2    0    0 -0.89516042233E-02  0.18638521491E-01 -0.10903610520E-01  0.23375509062E-01  0.00000000000E+00 0.  1.
     999901    1    3    3    0    0  0.79811606202E-01 -0.84481661465E-01 -0.73388469116E-01  0.89066992259E+00  0.88000000000E+00 0.  1.
        -11    1    4    4    0    0 -0.33002065260E-01  0.19523712179E-01  0.40274941642E-01  0.55611542812E-01  0.51100000000E-03 0. -1.
         11    1    4    4    0    0 -0.37857936719E-01  0.46319427795E-01  0.44017137994E-01  0.74273025535E-01  0.51100000000E-03 0.  1.
</event>
<event>
 8    1  0.1122465E+005  0.1043930E+01  0.7957747E-01            NaN
         13   -1    0    0    0    0  0.00000000000E+00  0.00000000000E+00  0.74505805969E-08  0.10566000000E+00  0.10566000000E+00 0. -1.
     999900   -1    0    0    0    0 -0.00000000000E+00 -0.00000000000E+00 -0.74505805969E-08  0.93827000000E+00  0.93827000000E+00 0.  1.
     999902    2    1    2    0    0 -0.24875045137E-01  0.22595623447E-02  0.52797179898E-02  0.10184006264E+01  0.10180805896E+01 0.  0.
     999903    2    3    3    0    0  0.94596467949E-02  0.26160185462E-01  0.12475303665E+00  0.12934270665E+00  0.19808467653E-01 0.  0.
         14    1    1    2    0    0  0.24875045137E-01 -0.22595623447E-02 -0.52797179898E-02  0.25529373565E-01  0.00000000000E+00 0. -1.
     999901    1    3    3    0    0 -0.34334691932E-01 -0.23900623117E-01 -0.11947331866E+00  0.88905791978E+00  0.88000000000E+00 0.  1.
        -11    1    4    4    0    0 -0.13609427575E-02  0.22670135852E-01  0.79677726135E-01  0.82852811586E-01  0.51100000000E-03 0.  1.
         11    1    4    4    0    0  0.10820589552E-01  0.34900496100E-02  0.45075310512E-01  0.46489895067E-01  0.51100000000E-03 0. -1.
</event>
<event>
 8    1  0.1122465E+005  0.1043930E+01  0.7957747E-01            NaN
         13   -1    0    0    0    0  0.00000000000E+00  0.00000000000E+00  0.74505805969E-08  0.10566000000E+00  0.10566000000E+00 0.  1.
     999900   -1    0    0    0    0 -0.00000000000E+00 -0.00000000000E+00 -0.74505805969E-08  0.93827000000E+00  0.93827000000E+00 0.  1.
     999902    2    1    2    0    0  0.26366284706E-02  0.10402605845E-01  0.21368921934E-01  0.10200177261E+01  0.10197373999E+01 0.  0.
     999903    2    3    3    0    0  0.10549848308E+00  0.20844883385E-01  0.74659677133E-01  0.13236379192E+00  0.19536297661E-01 0.  0.
         14    1    1    2    0    0 -0.26366284706E-02 -0.10402605845E-01 -0.21368921934E-01  0.23912273892E-01  0.00000000000E+00 0. -1.
     999901    1    3    3    0    0 -0.10286185461E+00 -0.10442277540E-01 -0.53290755199E-01  0.88765393419E+00  0.88000000000E+00 0.  1.
        -11    1    4    4    0    0  0.44648389692E-01  0.13573277031E-01  0.42654242030E-01  0.63224663191E-01  0.51100000000E-03 0. -1.
         11    1    4    4    0    0  0.60850093386E-01  0.72716063535E-02  0.32005435103E-01  0.69139128727E-01  0.51100000000E-03 0.  1.
</event>
<event>
 8    1  0.1122465E+005  0.1043930E+01  0.7957747E-01            NaN
         13   -1    0    0    0    0  0.00000000000E+00  0.00000000000E+00  0.74505805969E-08  0.10566000000E+00  0.10566000000E+00 0. -1.
     999900   -1    0    0    0    0 -0.00000000000E+00 -0.00000000000E+00 -0.74505805969E-08  0.93827000000E+00  0.93827000000E+00 0. -1.
     999902    2    1    2    0    0 -0.17260045999E-01  0.23190082608E-02  0.10731438768E-01  0.10234739308E+01  0.10232694837E+01 0.  0.
     999903    2    3    3    0    0 -0.11193155253E+00 -0.67436551012E-01  0.29936232791E-01  0.13544388839E+00  0.19300466421E-01 0.  0.
         14    1    1    2    0    0  0.17260045999E-01 -0.23190082608E-02 -0.10731438768E-01  0.20456069154E-01  0.00000000000E+00 0.  1.
     999901    1    3    3    0    0  0.94671506527E-01  0.69755559272E-01 -0.19204794023E-01  0.88803004246E+00  0.88000000000E+00 0.  1.
        -11    1    4    4    0    0 -0.54018494433E-01 -0.30726040827E-01  0.45087977044E-02  0.62311136272E-01  0.51100000000E-03 0. -1.
         11    1    4    4    0    0 -0.57913058093E-01 -0.36710510184E-01  0.25427435087E-01  0.73132752114E-01  0.51100000000E-03 0.  1.
</event>
<event>
 7    1  0.1122465E+005  0.1043930E+01  0.7957747E-01            NaN
         13   -1    0    0    0    0  0.00000000000E+00  0.00000000000E+00  0.74505805969E-08  0.10566000000E+00  0.10566000000E+00 0.  1.
     999900   -1    0    0    0    0 -0.00000000000E+00 -0.00000000000E+00 -0.74505805969E-08  0.93827000000E+00  0.93827000000E+00 0.  1.
     999902    2    1    2    0    0  0.26028902530E-02 -0.48450381288E-02 -0.22389042497E-01  0.10208753116E+01  0.10206149535E+01 0.  0.
         14    1    1    2    0    0 -0.26028902530E-02  0.48450381288E-02  0.22389042497E-01  0.23054688375E-01  0.00000000000E+00 0.  1.
     999901    1    3    3    0    0  0.10237498612E+00 -0.65642380064E-01 -0.32483402793E-01  0.88895710318E+00  0.88000000000E+00 0.  1.
        -11    1    3    3    0    0 -0.40201405783E-01  0.39281753556E-01 -0.22667576459E-01  0.60607667278E-01  0.51100000000E-03 0. -1.
         11    1    3    3    0    0 -0.59570690082E-01  0.21515588380E-01  0.32761936756E-01  0.71310541164E-01  0.51100000000E-03 0.  1.
</event>
<event>
 8    1  0.1122465E+005  0.1043930E+01  0.7957747E-01            NaN
         13   -1    0    0    0    0  0.00000000000E+00  0.00000000000E+00  0.74505805969E-08  0.10566000000E+00  0.10566000000E+00 0. -1.
     999900   -1    0    0    0    0 -0.00000000000E+00 -0.00000000000E+00 -0.74505805969E-08  0.93827000000E+00  0.93827000000E+00 0. -1.
     999902    2    1    2    0    0  0.46724843435E-03 -0.15295022541E-01 -0.17689760555E-01  0.10205401803E+01  0.10202721088E+01 0.  0.
     999903    2    3    3    0    0 -0.69198386691E-01  0.75565978906E-01 -0.79130867073E-01  0.13099870751E+00  0.20008332186E-01 0.  0.
         14    1    1    2    0    0 -0.46724843435E-03  0.15295022541E-01  0.17689760555E-01  0.23389819668E-01  0.00000000000E+00 0.  1.
     999901    1    3    3    0    0  0.69665635125E-01 -0.90861001446E-01  0.61441106518E-01  0.88954147282E+00  0.88000000000E+00 0.  1.
        -11    1    4    4    0    0 -0.45011274289E-01  0.34737845047E-01 -0.40553501452E-01  0.69839675634E-01  0.51100000000E-03 0.  1.
         11    1    4    4    0    0 -0.24187112401E-01  0.40828133858E-01 -0.38577365620E-01  0.61159031875E-01  0.51100000000E-03 0. -1.
</event>
<event>
 8    1  0.1122465E+005  0.1043930E+01  0.7957747E-01            NaN
         13   -1    0    0    0    0  0.00000000000E+00  0.00000000000E+00  0.74505805969E-08  0.10566000000E+00  0.10566000000E+00 0.  1.
     999900   -1    0    0    0    0 -0.00000000000E+00 -0.00000000000E+00 -0.74505805969E-08  0.93827000000E+00  0.93827000000E+00 0.  1.
     999902    2    1    2    0    0 -0.40610523092E-02  0.23124059764E-01  0.26822558917E-02  0.10202993254E+01  0.10200256392E+01 0.  0.
     999903    2    3    3    0    0 -0.25879963581E-01 -0.11679022636E+00  0.37681422654E-01  0.12829203056E+00  0.27004184939E-01 0.  0.
         14    1    1    2    0    0  0.40610523092E-02 -0.23124059764E-01 -0.26822558917E-02  0.23630674609E-01  0.00000000000E+00 0. -1.
     999901    1    3    3    0    0  0.21818911272E-01  0.13991428613E+00 -0.34999166762E-01  0.89200729483E+00  0.88000000000E+00 0.  1.
        -11    1    4    4    0    0 -0.19666619722E-01 -0.93307524563E-01  0.40944779716E-01  0.10377767669E+00  0.51100000000E-03 0.  1.
         11    1    4    4    0    0 -0.62133438589E-02 -0.23482701799E-01 -0.32633570628E-02  0.24514353877E-01  0.51100000000E-03 0. -1.
</event>
<event>
 8    1  0.1122465E+005  0.1043930E+01  0.7957747E-01            NaN
         13   -1    0    0    0    0  0.00000000000E+00  0.00000000000E+00  0.74505805969E-08  0.10566000000E+00  0.10566000000E+00 0. -1.
     999900   -1    0    0    0    0 -0.00000000000E+00 -0.00000000000E+00 -0.74505805969E-08  0.93827000000E+00  0.93827000000E+00 0.  1.
     999902    2    1    2    0    0 -0.21944055128E-01 -0.42991282865E-02 -0.13287446722E-01  0.10179188428E+01  0.10175864534E+01 0.  0.
     999903    2    3    3    0    0  0.10903737313E+00  0.58526682545E-01 -0.12872197538E-01  0.12600887564E+00  0.19950487760E-01 0.  0.
         14    1    1    2    0    0  0.21944055128E-01  0.42991282865E-02  0.13287446722E-01  0.26011157219E-01  0.00000000000E+00 0. -1.
     999901    1    3    3    0    0 -0.13098142826E+00 -0.62825810832E-01 -0.41524918481E-03  0.89190996714E+00  0.88000000000E+00 0.  1.
        -11    1    4    4    0    0  0.58484826484E-01  0.29795364934E-01 -0.16711912510E-01  0.67733210770E-01  0.51100000000E-03 0.  1.
         11    1    4    4    0    0  0.50552546645E-01  0.28731317611E-01  0.38397149724E-02  0.58275664870E-01  0.51100000000E-03 0. -1.
</event>
<event>
 7    1  0.1347651E+005  0.1043930E+01  0.7957747E-01            NaN
         13   -1    0    0    0    0  0.00000000000E+00  0.00000000000E+00  0.74505805969E-08  0.10566000000E+00  0.10566000000E+00 0. -1.
     999900   -1    0    0    0    0 -0.00000000000E+00 -0.00000000000E+00 -0.74505805969E-08  0.93827000000E+00  0.93827000000E+00 0. -1.
     999903    2    1    2    0    0  0.50674222479E-01  0.24393509625E-02  0.86745439007E-01  0.10244717095E+00  0.19920451547E-01 0.  0.
         14    1    1    2    0    0  0.13618130830E-01  0.36074019390E-01 -0.42216578590E-01  0.57175413161E-01  0.00000000000E+00 0.  1.
     999901    1    1    2    0    0 -0.64292353309E-01 -0.38513370352E-01 -0.44528860416E-01  0.88430741589E+00  0.88000000000E+00 0. -1.
        -11    1    3    3    0    0  0.29594043598E-01  0.93859633505E-02  0.39484261067E-01  0.50231182720E-01  0.51100000000E-03 0.  1.
         11    1    3    3    0    0  0.21080178881E-01 -0.69466123880E-02  0.47261177940E-01  0.52215988228E-01  0.51100000000E-03 0. -1.
</event>
<event>
 8    1  0.1122465E+005  0.1043930E+01  0.7957747E-01            NaN
         13   -1    0    0    0    0  0.00000000000E+00  0.00000000000E+00  0.74505805969E-08  0.10566000000E+00  0.10566000000E+00 0. -1.
     999900   -1    0    0    0    0 -0.00000000000E+00 -0.00000000000E+00 -0.74505805969E-08  0.93827000000E+00  0.93827000000E+00 0.  1.
     999902    2    1    2    0    0 -0.68951228772E-03 -0.22194688276E-01 -0.68253972584E-02  0.10206992948E+01  0.10204348998E+01 0.  0.
     999903    2    3    3    0    0  0.50540759104E-01 -0.83407120179E-02 -0.11972385552E+00  0.13190092892E+00  0.20978981441E-01 0.  0.
         14    1    1    2    0    0  0.68951228772E-03  0.22194688276E-01  0.68253972584E-02  0.23230705168E-01  0.00000000000E+00 0. -1.
     999901    1    3    3    0    0 -0.51230271392E-01 -0.13853976258E-01  0.11289845826E+00  0.88879836591E+00  0.88000000000E+00 0. -1.
        -11    1    4    4    0    0  0.31319732202E-02  0.34571815183E-02 -0.23723370268E-01  0.24183068006E-01  0.51100000000E-03 0.  1.
         11    1    4    4    0    0  0.47408785884E-01 -0.11797893536E-01 -0.96000485252E-01  0.10771786092E+00  0.51100000000E-03 0. -1.
</event>
<event>
 8    1  0.1122465E+005  0.1043930E+01  0.7957747E-01            NaN
         13   -1    0    0    0    0  0.00000000000E+00  0.00000000000E+00  0.74505805969E-08  0.10566000000E+00  0.10566000000E+00 0. -1.
     999900   -1    0    0    0    0 -0.00000000000E+00 -0.00000000000E+00 -0.74505805969E-08  0.93827000000E+00  0.93827000000E+00 0.  1.
     999902    2    1    2    0    0 -0.19480671326E-01  0.13132448374E-01 -0.51463304034E-02  0.10198791690E+01  0.10195955457E+01 0.  0.
     999903    2    3    3    0    0  0.11667673130E+00 -0.11975683629E-01 -0.47202496284E-01  0.12806193566E+00  0.20369268136E-01 0.  0.
         14    1    1    2    0    0  0.19480671326E-01 -0.13132448374E-01  0.51463304034E-02  0.24050831009E-01  0.00000000000E+00 0.  1.
     999901    1    3    3    0    0 -0.13615740262E+00  0.25108132002E-01  0.42056165881E-01  0.89181723333E+00  0.88000000000E+00 0.  1.
        -11    1    4    4    0    0  0.40806072785E-01  0.51935594619E-02 -0.19032066343E-01  0.45327577767E-01  0.51100000000E-03 0. -1.
         11    1    4    4    0    0  0.75870658513E-01 -0.17169243090E-01 -0.28170429941E-01  0.82734357891E-01  0.51100000000E-03 0.  1.
</event>
<event>
 8    1  0.1122465E+005  0.1043930E+01  0.7957747E-01            NaN
         13   -1    0    0    0    0  0.00000000000E+00  0.00000000000E+00  0.74505805969E-08  0.10566000000E+00  0.10566000000E+00 0. -1.
     999900   -1    0    0    0    0 -0.00000000000E+00 -0.00000000000E+00 -0.74505805969E-08  0.93827000000E+00  0.93827000000E+00 0.  1.
     999902    2    1    2    0    0  0.23130393616E-01  0.66257773382E-02 -0.46246531885E-03  0.10198648819E+01  0.10195809176E+01 0.  0.
     999903    2    3    3    0    0  0.10346506907E+00 -0.34915748438E-01 -0.72257795589E-01  0.13232112080E+00  0.19067248906E-01 0.  0.
         14    1    1    2    0    0 -0.23130393616E-01 -0.66257773382E-02  0.46246531885E-03  0.24065118083E-01  0.00000000000E+00 0.  1.
     999901    1    3    3    0    0 -0.80334675453E-01  0.41541525776E-01  0.71795330270E-01  0.88754376111E+00  0.88000000000E+00 0. -1.
        -11    1    4    4    0    0  0.67144016117E-01 -0.14293152909E-01 -0.50497474553E-01  0.85222468737E-01  0.51100000000E-03 0. -1.
         11    1    4    4    0    0  0.36321052952E-01 -0.20622595529E-01 -0.21760321036E-01  0.47098652067E-01  0.51100000000E-03 0.  1.
</event>
<event>
 8    1  0.1122465E+005  0.1043930E+01  0.7957747E-01            NaN
         13   -1    0    0    0    0  0.00000000000E+00  0.00000000000E+00  0.74505805969E-08  0.10566000000E+00  0.10566000000E+00 0.  1.
     999900   -1    0    0    0    0 -0.00000000000E+00 -0.00000000000E+00 -0.74505805969E-08  0.93827000000E+00  0.93827000000E+00 0.  1.
     999902    2    1    2    0    0 -0.13491145766E-01  0.17809395606E-01  0.59324205889E-02  0.10208133566E+01  0.10205515812E+01 0.  0.
     999903    2    3    3    0    0 -0.55933243863E-02  0.71586766061E-01  0.11025612637E+00  0.13298577387E+00  0.19309383645E-01 0.  0.
         14    1    1    2    0    0  0.13491145766E-01 -0.17809395606E-01 -0.59324205889E-02  0.23116643354E-01  0.00000000000E+00 0. -1.
     999901    1    3    3    0    0 -0.78978213799E-02 -0.53777370455E-01 -0.10432370578E+00  0.88782758278E+00  0.88000000000E+00 0.  1.
        -11    1    4    4    0    0 -0.48568872786E-02  0.61335851427E-01  0.79345591080E-01  0.10040746969E+00  0.51100000000E-03 0.  1.
         11    1    4    4    0    0 -0.73643710771E-03  0.10250914634E-01  0.30910535287E-01  0.32578304179E-01  0.51100000000E-03 0. -1.
</event>
<event>
 8    1  0.1122465E+005  0.1043930E+01  0.7957747E-01            NaN
         13   -1    0    0    0    0  0.00000000000E+00  0.00000000000E+00  0.74505805969E-08  0.10566000000E+00  0.10566000000E+00 0.  1.
     999900   -1    0    0    0    0 -0.00000000000E+00 -0.00000000000E+00 -0.74505805969E-08  0.93827000000E+00  0.93827000000E+00 0. -1.
     999902    2    1    2    0    0 -0.79057349739E-02  0.10373306587E-02 -0.22178217536E-01  0.10203620125E+01  0.10200897934E+01 0.  0.
     999903    2    3    3    0    0  0.10409684960E+00  0.62229922435E-01  0.36958044964E-01  0.12919075526E+00  0.24812029620E-01 0.  0.
         14    1    1    2    0    0  0.79057349739E-02 -0.10373306587E-02  0.22178217536E-01  0.23567987471E-01  0.00000000000E+00 0.  1.
     999901    1    3    3    0    0 -0.11200258458E+00 -0.61192591776E-01 -0.59136262500E-01  0.89117125727E+00  0.88000000000E+00 0. -1.
        -11    1    4    4    0    0  0.51738990006E-01  0.18316445590E-01  0.22615707959E-01  0.59364523357E-01  0.51100000000E-03 0.  1.
         11    1    4    4    0    0  0.52357859595E-01  0.43913476845E-01  0.14342337005E-01  0.69826231903E-01  0.51100000000E-03 0. -1.
</event>
<event>
 8    1  0.1122465E+005  0.1043930E+01  0.7957747E-01            NaN
         13   -1    0    0    0    0  0.00000000000E+00  0.00000000000E+00  0.74505805969E-08  0.10566000000E+00  0.10566000000E+00 0. -1.
     999900   -1    0    0    0    0 -0.00000000000E+00 -0.00000000000E+00 -0.74505805969E-08  0.93827000000E+00  0.93827000000E+00 0.  1.
     999902    2    1    2    0    0  0.81381881316E-03  0.18645552433E-01  0.14529574485E-01  0.10202777810E+01  0.10200035897E+01 0.  0.
     999903    2    3    3    0    0 -0.80450043318E-01  0.49674321043E-01 -0.87378271796E-01  0.13013632661E+00  0.18993511569E-01 0.  0.
         14    1    1    2    0    0 -0.81381881316E-03 -0.18645552433E-01 -0.14529574485E-01  0.23652218951E-01  0.00000000000E+00 0.  1.
     999901    1    3    3    0    0  0.81263862131E-01 -0.31028768610E-01  0.10190784628E+00  0.89014145443E+00  0.88000000000E+00 0. -1.
        -11    1    4    4    0    0 -0.49575106593E-01  0.35576949666E-01 -0.44897663564E-01  0.75759302107E-01  0.51100000000E-03 0.  1.
         11    1    4    4    0    0 -0.30874936725E-01  0.14097371376E-01 -0.42480608232E-01  0.54377024507E-01  0.51100000000E-03 0. -1.
</event>
<event>
 8    1  0.1122465E+005  0.1043930E+01  0.7957747E-01            NaN
         13   -1    0    0    0    0  0.00000000000E+00  0.00000000000E+00  0.74505805969E-08  0.10566000000E+00  0.10566000000E+00 0.  1.
     999900   -1    0    0    0    0 -0.00000000000E+00 -0.00000000000E+00 -0.74505805969E-08  0.93827000000E+00  0.93827000000E+00 0.  1.
     999902    2    1    2    0    0  0.37515823032E-02  0.18299856670E-01  0.14235592730E-01  0.10204435949E+01  0.10201732790E+01 0.  0.
     999903    2    3    3    0    0  0.42933256544E-01 -0.11064684160E+00  0.47849381492E-01  0.12954947023E+00  0.20186972377E-01 0.  0.
         14    1    1    2    0    0 -0.37515823032E-02 -0.18299856670E-01 -0.14235592730E-01  0.23486405095E-01  0.00000000000E+00 0.  1.
     999901    1    3    3    0    0 -0.39181674240E-01  0.12894669827E+00 -0.33613788762E-01  0.89089412468E+00  0.88000000000E+00 0. -1.
        -11    1    4    4    0    0  0.24370048215E-01 -0.80895678676E-01  0.26755717866E-01  0.88623583983E-01  0.51100000000E-03 0.  1.
         11    1    4    4    0    0  0.18563208328E-01 -0.29751162922E-01  0.21093663626E-01  0.40925886244E-01  0.51100000000E-03 0. -1.
</event>
<event>
 8    1  0.1122465E+005  0.1043930E+01  0.7957747E-01            NaN
         13   -1    0    0    0    0  0.00000000000E+00  0.00000000000E+00  0.74505805969E-08  0.10566000000E+00  0.10566000000E+00 0.  1.
     999900   -1    0    0    0    0 -0.00000000000E+00 -0.00000000000E+00 -0.74505805969E-08  0.93827000000E+00  0.93827000000E+00 0. -1.
     999902    2    1    2    0    0  0.21267737794E-02 -0.15977311312E-01 -0.58801674725E-02  0.10267726688E+01  0.10266293097E+01 0.  0.
     999903    2    3    3    0    0 -0.65996570382E-01  0.97411649792E-01  0.61560006340E-01  0.13433442247E+00  0.20286100217E-01 0.  0.
         14    1    1    2    0    0 -0.21267737794E-02  0.15977311312E-01  0.58801674725E-02  0.17157331172E-01  0.00000000000E+00 0. -1.
     999901    1    3    3    0    0  0.68123344162E-01 -0.11338896110E+00 -0.67440173813E-01  0.89243824636E+00  0.88000000000E+00 0. -1.
        -11    1    4    4    0    0 -0.37121565732E-01  0.36874019504E-01  0.26936252527E-01  0.58851735556E-01  0.51100000000E-03 0. -1.
         11    1    4    4    0    0 -0.28875004650E-01  0.60537630288E-01  0.34623753813E-01  0.75482686913E-01  0.51100000000E-03 0.  1.
</event>
<event>
 8    1  0.1122465E+005  0.1043930E+01  0.7957747E-01            NaN
         13   -1    0    0    0    0  0.00000000000E+00  0.00000000000E+00  0.74505805969E-08  0.10566000000E+00  0.10566000000E+00 0. -1.
     999900   -1    0    0    0    0 -0.00000000000E+00 -0.00000000000E+00 -0.74505805969E-08  0.93827000000E+00  0.93827000000E+00 0. -1.
     999902    2    1    2    0    0  0.56070567315E-02 -0.28005254594E-01  0.32434591499E-02  0.10151853762E+01  0.10147783476E+01 0.  0.
     999903    2    3    3    0    0 -0.28896307153E-01 -0.46265153021E-01  0.11199557768E+00  0.12763203736E+00  0.27775287356E-01 0.  0.
         14    1    1    2    0    0 -0.56070567315E-02  0.28005254594E-01 -0.32434591499E-02  0.28744623798E-01  0.00000000000E+00 0. -1.
     999901    1    3    3    0    0  0.34503363884E-01  0.18259898427E-01 -0.10875211853E+00  0.88755333885E+00  0.88000000000E+00 0. -1.
        -11    1    4    4    0    0 -0.23427111789E-01 -0.23429145150E-01  0.88101829680E-01  0.94127296376E-01  0.51100000000E-03 0.  1.
         11    1    4    4    0    0 -0.54691953638E-02 -0.22836007871E-01  0.23893748005E-01  0.33504740980E-01  0.51100000000E-03 0. -1.
</event>
<event>
 8    1  0.1122465E+005  0.1043930E+01  0.7957747E-01            NaN
         13   -1    0    0    0    0  0.00000000000E+00  0.00000000000E+00  0.74505805969E-08  0.10566000000E+00  0.10566000000E+00 0. -1.
     999900   -1    0    0    0    0 -0.00000000000E+00 -0.00000000000E+00 -0.74505805969E-08  0.93827000000E+00  0.93827000000E+00 0.  1.
     999902    2    1    2    0    0  0.24138972922E-01 -0.29921499361E-02 -0.88760482793E-02  0.10180373909E+01  0.10177080632E+01 0.  0.
     999903    2    3    3    0    0  0.10106734924E+00 -0.77403841787E-01  0.20667470004E-01  0.13106056228E+00  0.23318723422E-01 0.  0.
         14    1    1    2    0    0 -0.24138972922E-01  0.29921499361E-02  0.88760482793E-02  0.25892609139E-01  0.00000000000E+00 0. -1.
     999901    1    3    3    0    0 -0.76928376322E-01  0.74411691851E-01 -0.29543518283E-01  0.88697682858E+00  0.88000000000E+00 0. -1.
        -11    1    4    4    0    0  0.17021820564E-01 -0.11068255087E-01  0.12112218511E-01  0.23647739939E-01  0.51100000000E-03 0.  1.
         11    1    4    4    0    0  0.84045528680E-01 -0.66335586700E-01  0.85552514931E-02  0.10741282234E+00  0.51100000000E-03 0. -1.
</event>
<event>
 8    1  0.1122465E+005  0.1043930E+01  0.7957747E-01            NaN
         13   -1    0    0    0    0  0.00000000000E+00  0.00000000000E+00  0.74505805969E-08  0.10566000000E+00  0.10566000000E+00 0. -1.
     999900   -1    0    0    0    0 -0.00000000000E+00 -0.00000000000E+00 -0.74505805969E-08  0.93827000000E+00  0.93827000000E+00 0. -1.
     999902    2    1    2    0    0  0.17515741355E-01  0.12730600481E-01 -0.96644221408E-02  0.10202177576E+01  0.10199421565E+01 0.  0.
     999903    2    3    3    0    0 -0.92065726642E-01 -0.21055900451E-01  0.83898727153E-01  0.12785925976E+00  0.19736892446E-01 0.  0.
         14    1    1    2    0    0 -0.17515741355E-01 -0.12730600481E-01  0.96644221408E-02  0.23712242389E-01  0.00000000000E+00 0. -1.
     999901    1    3    3    0    0  0.10958146800E+00  0.33786500932E-01 -0.93563149294E-01  0.89235849785E+00  0.88000000000E+00 0. -1.
        -11    1    4    4    0    0 -0.49642003337E-01 -0.75584216599E-02  0.56460790460E-01  0.75561499546E-01  0.51100000000E-03 0. -1.
         11    1    4    4    0    0 -0.42423723305E-01 -0.13497478791E-01  0.27437936693E-01  0.52297760218E-01  0.51100000000E-03 0.  1.
</event>
<event>
 8    1  0.1122465E+005  0.1043930E+01  0.7957747E-01            NaN
         13   -1    0    0    0    0  0.00000000000E+00  0.00000000000E+00  0.74505805969E-08  0.10566000000E+00  0.10566000000E+00 0. -1.
     999900   -1    0    0    0    0 -0.00000000000E+00 -0.00000000000E+00 -0.74505805969E-08  0.93827000000E+00  0.93827000000E+00 0.  1.
     999902    2    1    2    0    0  0.50419836867E-02  0.24361913000E-01 -0.12151197827E-01  0.10162428908E+01  0.10158656590E+01 0.  0.
     999903    2    3    3    0    0  0.12127906396E+00  0.28692699574E-01 -0.26227371644E-01  0.12847718234E+00  0.16930120884E-01 0.  0.
         14    1    1    2    0    0 -0.50419836867E-02 -0.24361913000E-01  0.12151197827E-01  0.27687109151E-01  0.00000000000E+00 0.  1.
     999901    1    3    3    0    0 -0.11623708028E+00 -0.43307865744E-02  0.14076173817E-01  0.88776570851E+00  0.88000000000E+00 0. -1.
        -11    1    4    4    0    0  0.84275417996E-01  0.20868531516E-01 -0.10284092650E-01  0.87429202036E-01  0.51100000000E-03 0.  1.
         11    1    4    4    0    0  0.37003645966E-01  0.78241680586E-02 -0.15943278993E-01  0.41047980299E-01  0.51100000000E-03 0. -1.
</event>
<event>
 8    1  0.1122465E+005  0.1043930E+01  0.7957747E-01            NaN
         13   -1    0    0    0    0  0.00000000000E+00  0.00000000000E+00  0.74505805969E-08  0.10566000000E+00  0.10566000000E+00 0.  1.
     999900   -1    0    0    0    0 -0.00000000000E+00 -0.00000000000E+00 -0.74505805969E-08  0.93827000000E+00  0.93827000000E+00 0.  1.
     999902    2    1    2    0    0 -0.19509106708E-01 -0.14998165970E-01 -0.94055359743E-02  0.10175858482E+01  0.10172447808E+01 0.  0.
     999903    2    3    3    0    0 -0.34845334301E-01 -0.26479115865E-01 -0.12129806355E+00  0.13029392904E+00  0.18653332766E-01 0.  0.
         14    1    1    2    0    0  0.19509106708E-01  0.14998165970E-01  0.94055359743E-02  0.26344151799E-01  0.00000000000E+00 0.  1.
     999901    1    3    3    0    0  0.15336227593E-01  0.11480949895E-01  0.11189252758E+00  0.88729191916E+00  0.88000000000E+00 0. -1.
        -11    1    4    4    0    0 -0.19313616181E-01 -0.74359989809E-02 -0.36029810484E-01  0.41553799049E-01  0.51100000000E-03 0.  1.
         11    1    4    4    0    0 -0.15531718120E-01 -0.19043116884E-01 -0.85268253066E-01  0.88740129988E-01  0.51100000000E-03 0. -1.
</event>
<event>
 8    1  0.1122465E+005  0.1043930E+01  0.7957747E-01            NaN
         13   -1    0    0    0    0  0.00000000000E+00  0.00000000000E+00  0.74505805969E-08  0.10566000000E+00  0.10566000000E+00 0. -1.
     999900   -1    0    0    0    0 -0.00000000000E+00 -0.00000000000E+00 -0.74505805969E-08  0.93827000000E+00  0.93827000000E+00 0.  1.
     999902    2    1    2    0    0 -0.18818543853E-01 -0.12531801022E-01  0.76460426782E-02  0.10200627505E+01  0.10197834914E+01 0.  0.
     999903    2    3    3    0    0  0.11743501664E+00  0.26376902221E-01 -0.37446609383E-01  0.12758739107E+00  0.19737520157E-01 0.  0.
         14    1    1    2    0    0  0.18818543853E-01  0.12531801022E-01 -0.76460426782E-02  0.23867249491E-01  0.00000000000E+00 0.  1.
     999901    1    3    3    0    0 -0.13625356049E+00 -0.38908703242E-01  0.45092652061E-01  0.89247535944E+00  0.88000000000E+00 0. -1.
        -11    1    4    4    0    0  0.58986911832E-01  0.85857770433E-02 -0.27641674536E-01  0.65707645119E-01  0.51100000000E-03 0.  1.
         11    1    4    4    0    0  0.58448104807E-01  0.17791125177E-01 -0.98049348473E-02  0.61879745951E-01  0.51100000000E-03 0. -1.
</event>
<event>
 8    1  0.1122465E+005  0.1043930E+01  0.7957747E-01            NaN
         13   -1    0    0    0    0  0.00000000000E+00  0.00000000000E+00  0.74505805969E-08  0.10566000000E+00  0.10566000000E+00 0.  1.
     999900   -1    0    0    0    0 -0.00000000000E+00 -0.00000000000E+00 -0.74505805969E-08  0.93827000000E+00  0.93827000000E+00 0. -1.
     999902    2    1    2    0    0 -0.52604833215E-02  0.51300845597E-02  0.22652482583E-01  0.10201156048E+01  0.10198375957E+01 0.  0.
     999903    2    3    3    0    0 -0.28078340326E-01  0.12700336350E-01 -0.12262191496E+00  0.12788098660E+00  0.19176051874E-01 0.  0.
         14    1    1    2    0    0  0.52604833215E-02 -0.51300845597E-02 -0.22652482583E-01  0.23814395217E-01  0.00000000000E+00 0. -1.
     999901    1    3    3    0    0  0.22817857004E-01 -0.75702517899E-02  0.14527439754E+00  0.89223461819E+00  0.88000000000E+00 0.  1.
        -11    1    4    4    0    0 -0.88643575025E-02  0.78667450908E-03 -0.11871751334E-01  0.14845716266E-01  0.51100000000E-03 0. -1.
         11    1    4    4    0    0 -0.19213982823E-01  0.11913661841E-01 -0.11075016363E+00  0.11303527033E+00  0.51100000000E-03 0.  1.
</event>
<event>
 8    1  0.1122465E+005  0.1043930E+01  0.7957747E-01            NaN
         13   -1    0    0    0    0  0.00000000000E+00  0.00000000000E+00  0.74505805969E-08  0.10566000000E+00  0.10566000000E+00 0. -1.
     999900   -1    0    0    0    0 -0.00000000000E+00 -0.00000000000E+00 -0.74505805969E-08  0.93827000000E+00  0.93827000000E+00 0.  1.
     999902    2    1    2    0    0 -0.21008345940E-01 -0.88859961602E-02  0.46908465804E-02  0.10206423301E+01  0.10203766219E+01 0.  0.
     999903    2    3    3    0    0  0.10355806310E+00  0.37670862322E-01  0.63312673742E-01  0.12872257479E+00  0.20436249699E-01 0.  0.
         14    1    1    2    0    0  0.21008345940E-01  0.88859961602E-02 -0.46908465804E-02  0.23287669882E-01  0.00000000000E+00 0.  1.
     999901    1    3    3    0    0 -0.12456640904E+00 -0.46556858482E-01 -0.58621827161E-01  0.89191975533E+00  0.88000000000E+00 0.  1.
        -11    1    4    4    0    0  0.95551387438E-01  0.28129371745E-01  0.56001991658E-01  0.11427078974E+00  0.51100000000E-03 0.  1.
         11    1    4    4    0    0  0.80066756628E-02  0.95414905767E-02  0.73106820839E-02  0.14451785050E-01  0.51100000000E-03 0. -1.
</event>
<event>
 8    1  0.1122465E+005  0.1043930E+01  0.7957747E-01            NaN
         13   -1    0    0    0    0  0.00000000000E+00  0.00000000000E+00  0.74505805969E-08  0.10566000000E+00  0.10566000000E+00 0.  1.
     999900   -1    0    0    0    0 -0.00000000000E+00 -0.00000000000E+00 -0.74505805969E-08  0.93827000000E+00  0.93827000000E+00 0.  1.
     999902    2    1    2    0    0 -0.21460053170E-01 -0.90809976541E-02 -0.42562526212E-02  0.10202421532E+01  0.10199671255E+01 0.  0.
     999903    2    3    3    0    0  0.31611851548E-01 -0.12376422186E+00  0.20173806048E-01  0.13087963050E+00  0.20139599241E-01 0.  0.
         14    1    1    2    0    0  0.21460053170E-01  0.90809976541E-02  0.42562526212E-02  0.23687846817E-01  0.00000000000E+00 0. -1.
     999901    1    3    3    0    0 -0.53071904718E-01  0.11468322421E+00 -0.24430058670E-01  0.88936252268E+00  0.88000000000E+00 0. -1.
        -11    1    4    4    0    0  0.17248479019E-01 -0.65593322243E-01  0.20843824374E-01  0.70955761478E-01  0.51100000000E-03 0.  1.
         11    1    4    4    0    0  0.14363372529E-01 -0.58170899621E-01 -0.67001832535E-03  0.59923869023E-01  0.51100000000E-03 0. -1.
</event>
<event>
 8    1  0.1122465E+005  0.1043930E+01  0.7957747E-01            NaN
         13   -1    0    0    0    0  0.00000000000E+00  0.00000000000E+00  0.74505805969E-08  0.10566000000E+00  0.10566000000E+00 0.  1.
     999900   -1    0    0    0    0 -0.00000000000E+00 -0.00000000000E+00 -0.74505805969E-08  0.93827000000E+00  0.93827000000E+00 0. -1.
     999902    2    1    2    0    0  0.14763452961E-01 -0.12977060726E-01 -0.13200664998E-01  0.10202525592E+01  0.10199777759E+01 0.  0.
     999903    2    3    3    0    0 -0.64496152697E-02 -0.23226476009E-02  0.12714649127E+00  0.12881504870E+00  0.19496007256E-01 0.  0.
         14    1    1    2    0    0 -0.14763452961E-01  0.12977060726E-01  0.13200664998E-01  0.23677440842E-01  0.00000000000E+00 0.  1.
     999901    1    3    3    0    0  0.21213068231E-01 -0.10654413126E-01 -0.14034715627E+00  0.89143751046E+00  0.88000000000E+00 0. -1.
        -11    1    4    4    0    0  0.39214835345E-02 -0.45897871123E-02  0.89278228603E-01  0.89483559397E-01  0.51100000000E-03 0.  1.
         11    1    4    4    0    0 -0.10371098804E-01  0.22671395114E-02  0.37868262670E-01  0.39331489300E-01  0.51100000000E-03 0. -1.
</event>
<event>
 8    1  0.1122465E+005  0.1043930E+01  0.7957747E-01            NaN
         13   -1    0    0    0    0  0.00000000000E+00  0.00000000000E+00  0.74505805969E-08  0.10566000000E+00  0.10566000000E+00 0. -1.
     999900   -1    0    0    0    0 -0.00000000000E+00 -0.00000000000E+00 -0.74505805969E-08  0.93827000000E+00  0.93827000000E+00 0.  1.
     999902    2    1    2    0    0 -0.19488953873E-01  0.58577383442E-03 -0.87836315130E-02  0.10225450839E+01  0.10223214436E+01 0.  0.
     999903    2    3    3    0    0  0.25548951093E-01  0.12036946672E+00 -0.45128558676E-01  0.13254648857E+00  0.19759235891E-01 0.  0.
         14    1    1    2    0    0  0.19488953873E-01 -0.58577383442E-03  0.87836315130E-02  0.21384916100E-01  0.00000000000E+00 0. -1.
     999901    1    3    3    0    0 -0.45037904966E-01 -0.11978369288E+00  0.36344927163E-01  0.88999859533E+00  0.88000000000E+00 0. -1.
        -11    1    4    4    0    0 -0.28766396982E-02  0.22108083329E-01 -0.68733502497E-02  0.23335519473E-01  0.51100000000E-03 0.  1.
         11    1    4    4    0    0  0.28425590792E-01  0.98261383390E-01 -0.38255208426E-01  0.10921096909E+00  0.51100000000E-03 0. -1.
</event>
<event>
 8    1  0.1122465E+005  0.1043930E+01  0.7957747E-01            NaN
         13   -1    0    0    0    0  0.00000000000E+00  0.00000000000E+00  0.74505805969E-08  0.10566000000E+00  0.10566000000E+00 0. -1.
     999900   -1    0    0    0    0 -0.00000000000E+00 -0.00000000000E+00 -0.74505805969E-08  0.93827000000E+00  0.93827000000E+00 0. -1.
     999902    2    1    2    0    0 -0.15034222040E-01  0.17007265185E-02  0.12320298959E-01  0.10244182069E+01  0.10242323724E+01 0.  0.
     999903    2    3    3    0    0  0.24834324479E-01 -0.12792850771E+00 -0.20438189115E-01  0.13342642361E+00  0.20061011605E-01 0.  0.
         14    1    1    2    0    0  0.15034222040E-01 -0.17007265185E-02 -0.12320298959E-01  0.19511793087E-01  0.00000000000E+00 0.  1.
     999901    1    3    3    0    0 -0.39868546519E-01  0.12962923423E+00  0.32758488073E-01  0.89099178330E+00  0.88000000000E+00 0.  1.
        -11    1    4    4    0    0  0.40092669005E-02 -0.68917776813E-01 -0.14703190185E-01  0.70584552875E-01  0.51100000000E-03 0.  1.
         11    1    4    4    0    0  0.20825057578E-01 -0.59010730896E-01 -0.57349989291E-02  0.62841870737E-01  0.51100000000E-03 0. -1.
</event>
<event>
 8    1  0.1122465E+005  0.1043930E+01  0.7957747E-01            NaN
         13   -1    0    0    0    0  0.00000000000E+00  0.00000000000E+00  0.74505805969E-08  0.10566000000E+00  0.10566000000E+00 0. -1.
     999900   -1    0    0    0    0 -0.00000000000E+00 -0.00000000000E+00 -0.74505805969E-08  0.93827000000E+00  0.93827000000E+00 0.  1.
     999902    2    1    2    0    0 -0.23654485442E-02  0.19627009657E-01 -0.98637029753E-02  0.10218368451E+01  0.10215979790E+01 0.  0.
     999903    2    3    3    0    0  0.10184479101E+00  0.64815947488E-01 -0.53131999570E-01  0.13348220897E+00  0.20518826186E-01 0.  0.
         14    1    1    2    0    0  0.23654485442E-02 -0.19627009657E-01  0.98637029753E-02  0.22093154851E-01  0.00000000000E+00 0.  1.
     999901    1    3    3    0    0 -0.10421023956E+00 -0.45188937831E-01  0.43268296595E-01  0.88835463618E+00  0.88000000000E+00 0. -1.
        -11    1    4    4    0    0  0.94419801825E-01  0.56818447837E-01 -0.53610209478E-01  0.12254693253E+00  0.51100000000E-03 0. -1.
         11    1    4    4    0    0  0.74249891867E-02  0.79974996506E-02  0.47820990770E-03  0.10935276439E-01  0.51100000000E-03 0.  1.
</event>
<event>
 8    1  0.1122465E+005  0.1043930E+01  0.7957747E-01            NaN
         13   -1    0    0    0    0  0.00000000000E+00  0.00000000000E+00  0.74505805969E-08  0.10566000000E+00  0.10566000000E+00 0.  1.
     999900   -1    0    0    0    0 -0.00000000000E+00 -0.00000000000E+00 -0.74505805969E-08  0.93827000000E+00  0.93827000000E+00 0.  1.
     999902    2    1    2    0    0  0.37022693196E-02 -0.15164986707E-01 -0.11252302528E-01  0.10246868731E+01  0.10245061689E+01 0.  0.
     999903    2    3    3    0    0 -0.55646382101E-01 -0.98473489231E-01 -0.73672942243E-01  0.13656587614E+00  0.20712029949E-01 0.  0.
         14    1    1    2    0    0 -0.37022693196E-02  0.15164986707E-01  0.11252302528E-01  0.19243126879E-01  0.00000000000E+00 0.  1.
     999901    1    3    3    0    0  0.59348651421E-01  0.83308502524E-01  0.62420639715E-01  0.88812099698E+00  0.88000000000E+00 0. -1.
        -11    1    4    4    0    0 -0.31169825222E-01 -0.70539657282E-01 -0.42387282436E-01  0.88001955019E-01  0.51100000000E-03 0. -1.
         11    1    4    4    0    0 -0.24476556879E-01 -0.27933831949E-01 -0.31285659806E-01  0.48563921120E-01  0.51100000000E-03 0.  1.
</event>
<event>
 8    1  0.1122465E+005  0.1043930E+01  0.7957747E-01            NaN
         13   -1    0    0    0    0  0.00000000000E+00  0.00000000000E+00  0.74505805969E-08  0.10566000000E+00  0.10566000000E+00 0. -1.
     999900   -1    0    0    0    0 -0.00000000000E+00 -0.00000000000E+00 -0.74505805969E-08  0.93827000000E+00  0.93827000000E+00 0. -1.
     999902    2    1    2    0    0 -0.15932631582E-01 -0.10280900256E-01  0.13891793276E-01  0.10204240948E+01  0.10201533246E+01 0.  0.
     999903    2    3    3    0    0  0.77634144002E-01  0.83635729514E-01 -0.54167645921E-01  0.12789557306E+00  0.20028683875E-01 0.  0.
         14    1    1    2    0    0  0.15932631582E-01  0.10280900256E-01 -0.13891793276E-01  0.23505905207E-01  0.00000000000E+00 0.  1.
     999901    1    3    3    0    0 -0.93566775585E-01 -0.93916629769E-01  0.68059439196E-01  0.89252852173E+00  0.88000000000E+00 0.  1.
        -11    1    4    4    0    0  0.61189762416E-01  0.57605464814E-01 -0.46955043526E-01  0.96268446723E-01  0.51100000000E-03 0. -1.
         11    1    4    4    0    0  0.16444381587E-01  0.26030264699E-01 -0.72126023946E-02  0.31627126338E-01  0.51100000000E-03 0.  1.
</event>
<event>
 8    1  0.1122465E+005  0.1043930E+01  0.7957747E-01            NaN
         13   -1    0    0    0    0  0.00000000000E+00  0.00000000000E+00  0.74505805969E-08  0.10566000000E+00  0.10566000000E+00 0. -1.
     999900   -1    0    0    0    0 -0.00000000000E+00 -0.00000000000E+00 -0.74505805969E-08  0.93827000000E+00  0.93827000000E+00 0.  1.
     999902    2    1    2    0    0  0.10197002859E-01 -0.30634262864E-02 -0.21535977411E-01  0.10199058086E+01  0.10196228208E+01 0.  0.
     999903    2    3    3    0    0 -0.12443539573E+00 -0.54963388285E-02 -0.30479672749E-01  0.12961833175E+00  0.18908305675E-01 0.  0.
         14    1    1    2    0    0 -0.10197002859E-01  0.30634262864E-02  0.21535977411E-01  0.24024191369E-01  0.00000000000E+00 0. -1.
     999901    1    3    3    0    0  0.13463239859E+00  0.24329125421E-02  0.89436953386E-02  0.89028747689E+00  0.88000000000E+00 0.  1.
        -11    1    4    4    0    0 -0.86126291389E-01  0.43385698717E-02 -0.17555944375E-01  0.88005872309E-01  0.51100000000E-03 0.  1.
         11    1    4    4    0    0 -0.38309104338E-01 -0.98349087002E-02 -0.12923728375E-01  0.41612459437E-01  0.51100000000E-03 0. -1.
</event>
<event>
 8    1  0.1122465E+005  0.1043930E+01  0.7957747E-01            NaN
         13   -1    0    0    0    0  0.00000000000E+00  0.00000000000E+00  0.74505805969E-08  0.10566000000E+00  0.10566000000E+00 0. -1.
     999900   -1    0    0    0    0 -0.00000000000E+00 -0.00000000000E+00 -0.74505805969E-08  0.93827000000E+00  0.93827000000E+00 0.  1.
     999902    2    1    2    0    0  0.75602859725E-02 -0.33602240677E-02 -0.20404792925E-01  0.10219117211E+01  0.10216744889E+01 0.  0.
     999903    2    3    3    0    0  0.12835420395E+00 -0.19013226779E-02  0.26069918835E-01  0.13244379150E+00  0.19578062693E-01 0.  0.
         14    1    1    2    0    0 -0.75602859725E-02  0.33602240677E-02  0.20404792925E-01  0.22018278863E-01  0.00000000000E+00 0. -1.
     999901    1    3    3    0    0 -0.12079391798E+00 -0.14589013898E-02 -0.46474711760E-01  0.88946792963E+00  0.88000000000E+00 0.  1.
        -11    1    4    4    0    0  0.76778187553E-01  0.39665414516E-02  0.72379664488E-02  0.77222230053E-01  0.51100000000E-03 0.  1.
         11    1    4    4    0    0  0.51576016401E-01 -0.58678641295E-02  0.18831952386E-01  0.55221561449E-01  0.51100000000E-03 0. -1.
</event>
<event>
 8    1  0.1122465E+005  0.1043930E+01  0.7957747E-01            NaN
         13   -1    0    0    0    0  0.00000000000E+00  0.00000000000E+00  0.74505805969E-08  0.10566000000E+00  0.10566000000E+00 0. -1.
     999900   -1    0    0    0    0 -0.00000000000E+00 -0.00000000000E+00 -0.74505805969E-08  0.93827000000E+00  0.93827000000E+00 0. -1.
     999902    2    1    2    0    0 -0.28535045853E-02  0.12842242998E-01 -0.20193762168E-01  0.10198290929E+01  0.10195442732E+01 0.  0.
     999903    2    3    3    0    0  0.58506450274E-01  0.14258961897E-01  0.11123604374E+00  0.12795418851E+00  0.19300109140E-01 0.  0.
         14    1    1    2    0    0  0.28535045853E-02 -0.12842242998E-01  0.20193762168E-01  0.24100907122E-01  0.00000000000E+00 0. -1.
     999901    1    3    3    0    0 -0.61359954859E-01 -0.14167188994E-02 -0.13142980591E+00  0.89187490436E+00  0.88000000000E+00 0. -1.
        -11    1    4    4    0    0  0.52545445836E-01  0.14522308307E-01  0.84536501460E-01  0.10059126461E+00  0.51100000000E-03 0. -1.
         11    1    4    4    0    0  0.59610044376E-02 -0.26334641017E-03  0.26699542282E-01  0.27362923899E-01  0.51100000000E-03 0.  1.
</event>
<event>
 8    1  0.1122465E+005  0.1043930E+01  0.7957747E-01            NaN
         13   -1    0    0    0    0  0.00000000000E+00  0.00000000000E+00  0.74505805969E-08  0.10566000000E+00  0.10566000000E+00 0.  1.
     999900   -1    0    0    0    0 -0.00000000000E+00 -0.00000000000E+00 -0.74505805969E-08  0.93827000000E+00  0.93827000000E+00 0.  1.
     999902    2    1    2    0    0 -0.26827793203E-02  0.23788203792E-01 -0.15273037499E-02  0.10199423240E+01  0.10196602060E+01 0.  0.
     999903    2    3    3    0    0  0.10717927544E+00 -0.67582033031E-01  0.10373180324E-01  0.12833713513E+00  0.17552467353E-01 0.  0.
         14    1    1    2    0    0  0.26827793203E-02 -0.23788203792E-01  0.15273037499E-02  0.23987676029E-01  0.00000000000E+00 0. -1.
     999901    1    3    3    0    0 -0.10986205476E+00  0.91370236822E-01 -0.11900484074E-01  0.89160518884E+00  0.88000000000E+00 0. -1.
        -11    1    4    4    0    0  0.93180461150E-01 -0.62463749998E-01  0.13822948934E-01  0.11302943618E+00  0.51100000000E-03 0.  1.
         11    1    4    4    0    0  0.13998814290E-01 -0.51182830331E-02 -0.34497686100E-02  0.15307698951E-01  0.51100000000E-03 0. -1.
</event>
<event>
 8    1  0.1122465E+005  0.1043930E+01  0.7957747E-01            NaN
         13   -1    0    0    0    0  0.00000000000E+00  0.00000000000E+00  0.74505805969E-08  0.10566000000E+00  0.10566000000E+00 0. -1.
     999900   -1    0    0    0    0 -0.00000000000E+00 -0.00000000000E+00 -0.74505805969E-08  0.93827000000E+00  0.93827000000E+00 0. -1.
     999902    2    1    2    0    0  0.15071251681E-01  0.38420011715E-02 -0.88709578728E-02  0.10260247635E+01  0.10258685188E+01 0.  0.
     999903    2    3    3    0    0  0.57448278914E-01 -0.16034260546E-01 -0.12224635818E+00  0.13751766753E+00  0.20236959551E-01 0.  0.
         14    1    1    2    0    0 -0.15071251681E-01 -0.38420011715E-02  0.88709578728E-02  0.17905236491E-01  0.00000000000E+00 0. -1.
     999901    1    3    3    0    0 -0.42377027233E-01  0.19876261718E-01  0.11337540031E+00  0.88850709598E+00  0.88000000000E+00 0.  1.
        -11    1    4    4    0    0  0.35989601000E-01 -0.17869990121E-01 -0.65806617873E-01  0.77106160610E-01  0.51100000000E-03 0.  1.
         11    1    4    4    0    0  0.21458677914E-01  0.18357295752E-02 -0.56439740308E-01  0.60411506916E-01  0.51100000000E-03 0. -1.
</event>
<event>
 8    1  0.1122465E+005  0.1043930E+01  0.7957747E-01            NaN
         13   -1    0    0    0    0  0.00000000000E+00  0.00000000000E+00  0.74505805969E-08  0.10566000000E+00  0.10566000000E+00 0. -1.
     999900   -1    0    0    0    0 -0.00000000000E+00 -0.00000000000E+00 -0.74505805969E-08  0.93827000000E+00  0.93827000000E+00 0.  1.
     999902    2    1    2    0    0  0.16218536317E-01  0.11697943291E-01 -0.10214049346E-01  0.10214753880E+01  0.10212285536E+01 0.  0.
     999903    2    3    3    0    0  0.93768989900E-01 -0.89671104571E-01 -0.16316917483E-01  0.13224706987E+00  0.19736140199E-01 0.  0.
         14    1    1    2    0    0 -0.16218536317E-01 -0.11697943291E-01  0.10214049346E-01  0.22454612033E-01  0.00000000000E+00 0.  1.
     999901    1    3    3    0    0 -0.77550453583E-01  0.10136904786E+00  0.61028681369E-02  0.88922831810E+00  0.88000000000E+00 0. -1.
        -11    1    4    4    0    0  0.49771261667E-01 -0.60738943386E-01 -0.11519062184E-01  0.79368429783E-01  0.51100000000E-03 0.  1.
         11    1    4    4    0    0  0.43997728233E-01 -0.28932161184E-01 -0.47978552988E-02  0.52878640082E-01  0.51100000000E-03 0. -1.
</event>
<event>
 8    1  0.1122465E+005  0.1043930E+01  0.7957747E-01            NaN
         13   -1    0    0    0    0  0.00000000000E+00  0.00000000000E+00  0.74505805969E-08  0.10566000000E+00  0.10566000000E+00 0. -1.
     999900   -1    0    0    0    0 -0.00000000000E+00 -0.00000000000E+00 -0.74505805969E-08  0.93827000000E+00  0.93827000000E+00 0.  1.
     999902    2    1    2    0    0  0.19822089569E-01  0.15530166313E-01 -0.89623265671E-03  0.10187326880E+01  0.10184210254E+01 0.  0.
     999903    2    3    3    0    0  0.87265729525E-01 -0.41403018889E-01 -0.85039119659E-01  0.13032396583E+00  0.20571015375E-01 0.  0.
         14    1    1    2    0    0 -0.19822089569E-01 -0.15530166313E-01  0.89623265671E-03  0.25197312030E-01  0.00000000000E+00 0.  1.
     999901    1    3    3    0    0 -0.67443639956E-01  0.56933185201E-01  0.84142887003E-01  0.88840872214E+00  0.88000000000E+00 0. -1.
        -11    1    4    4    0    0  0.10734874686E-01 -0.12329644058E-01 -0.19513672564E-01  0.25461779103E-01  0.51100000000E-03 0.  1.
         11    1    4    4    0    0  0.76530854838E-01 -0.29073374830E-01 -0.65525447095E-01  0.10486218672E+00  0.51100000000E-03 0. -1.
</event>
<event>
 8    1  0.1122465E+005  0.1043930E+01  0.7957747E-01            NaN
         13   -1    0    0    0    0  0.00000000000E+00  0.00000000000E+00  0.74505805969E-08  0.10566000000E+00  0.10566000000E+00 0.  1.
     999900   -1    0    0    0    0 -0.00000000000E+00 -0.00000000000E+00 -0.74505805969E-08  0.93827000000E+00  0.93827000000E+00 0. -1.
     999902    2    1    2    0    0  0.15223902753E-01 -0.14677108029E-01 -0.11201186721E-01  0.10199998663E+01  0.10197191162E+01 0.  0.
     999903    2    3    3    0    0  0.84141866989E-01  0.20221827705E-01 -0.98271602878E-01  0.13233502027E+00  0.19143499167E-01 0.  0.
         14    1    1    2    0    0 -0.15223902753E-01  0.14677108029E-01  0.11201186721E-01  0.23930133703E-01  0.00000000000E+00 0.  1.
     999901    1    3    3    0    0 -0.68917964236E-01 -0.34898935733E-01  0.87070416157E-01  0.88766484603E+00  0.88000000000E+00 0.  1.
        -11    1    4    4    0    0  0.80806288989E-01  0.16752697152E-01 -0.86230566350E-01  0.11935778523E+00  0.51100000000E-03 0.  1.
         11    1    4    4    0    0  0.33355780002E-02  0.34691305525E-02 -0.12041036528E-01  0.12977235031E-01  0.51100000000E-03 0. -1.
</event>
<event>
 8    1  0.1122465E+005  0.1043930E+01  0.7957747E-01            NaN
         13   -1    0    0    0    0  0.00000000000E+00  0.00000000000E+00  0.74505805969E-08  0.10566000000E+00  0.10566000000E+00 0. -1.
     999900   -1    0    0    0    0 -0.00000000000E+00 -0.00000000000E+00 -0.74505805969E-08  0.93827000000E+00  0.93827000000E+00 0.  1.
     999902    2    1    2    0    0 -0.19415929895E-01  0.10117188928E-01 -0.88849072128E-02  0.10203021050E+01  0.10200284839E+01 0.  0.
     999903    2    3    3    0    0  0.11277440316E+00  0.42898493703E-01 -0.41751236568E-01  0.12921900355E+00  0.19900712438E-01 0.  0.
         14    1    1    2    0    0  0.19415929895E-01 -0.10117188928E-01  0.88849072128E-02  0.23627894990E-01  0.00000000000E+00 0. -1.
     999901    1    3    3    0    0 -0.13219033305E+00 -0.32781304775E-01  0.32866329355E-01  0.89108310146E+00  0.88000000000E+00 0. -1.
        -11    1    4    4    0    0  0.39560683074E-01  0.17456675247E-01 -0.24892819824E-01  0.49896861181E-01  0.51100000000E-03 0. -1.
         11    1    4    4    0    0  0.73213720082E-01  0.25441818456E-01 -0.16858416744E-01  0.79322142373E-01  0.51100000000E-03 0.  1.
</event>
<event>
 8    1  0.1122465E+005  0.1043930E+01  0.7957747E-01            NaN
         13   -1    0    0    0    0  0.00000000000E+00  0.00000000000E+00  0.74505805969E-08  0.10566000000E+00  0.10566000000E+00 0. -1.
     999900   -1    0    0    0    0 -0.00000000000E+00 -0.00000000000E+00 -0.74505805969E-08  0.93827000000E+00  0.93827000000E+00 0. -1.
     999902    2    1    2    0    0  0.22127005749E-01 -0.21653161775E-03 -0.84339526492E-02  0.10202491464E+01  0.10199742830E+01 0.  0.
     999903    2    3    3    0    0  0.39597804658E-01  0.63706224966E-01 -0.10765362482E+00  0.13219740751E+00  0.16136368332E-01 0.  0.
         14    1    1    2    0    0 -0.22127005749E-01  0.21653161775E-03  0.84339526492E-02  0.23680853587E-01  0.00000000000E+00 0. -1.
     999901    1    3    3    0    0 -0.17470798910E-01 -0.63922756583E-01  0.99219672168E-01  0.88805173890E+00  0.88000000000E+00 0.  1.
        -11    1    4    4    0    0 -0.11722000535E-02  0.35731017624E-02 -0.32154739348E-02  0.49740831110E-02  0.51100000000E-03 0.  1.
         11    1    4    4    0    0  0.40770004712E-01  0.60133123203E-01 -0.10443815088E+00  0.12722332440E+00  0.51100000000E-03 0. -1.
</event>
<event>
 8    1  0.1122465E+005  0.1043930E+01  0.7957747E-01            NaN
         13   -1    0    0    0    0  0.00000000000E+00  0.00000000000E+00  0.74505805969E-08  0.10566000000E+00  0.10566000000E+00 0.  1.
     999900   -1    0    0    0    0 -0.00000000000E+00 -0.00000000000E+00 -0.74505805969E-08  0.93827000000E+00  0.93827000000E+00 0.  1.
     999902    2    1    2    0    0 -0.14338780561E-01 -0.90414440777E-02  0.16321411736E-01  0.10203983868E+01  0.10201270171E+01 0.  0.
     999903    2    3    3    0    0  0.54286980718E-01  0.19728843455E-01 -0.11229549764E+00  0.12794136602E+00  0.20552635062E-01 0.  0.
         14    1    1    2    0    0  0.14338780561E-01  0.90414440777E-02 -0.16321411736E-01  0.23531613205E-01  0.00000000000E+00 0. -1.
     999901    1    3    3    0    0 -0.68625761279E-01 -0.28770287533E-01  0.12861690938E+00  0.89245702078E+00  0.88000000000E+00 0. -1.
        -11    1    4    4    0    0  0.15630993205E-01  0.15893064889E-01 -0.36559140305E-01  0.42822299343E-01  0.51100000000E-03 0. -1.
         11    1    4    4    0    0  0.38655987513E-01  0.38357785663E-02 -0.75736357338E-01  0.85119066675E-01  0.51100000000E-03 0.  1.
</event>
<event>
 8    1  0.1122465E+005  0.1043930E+01  0.7957747E-01            NaN
         13   -1    0    0    0    0  0.00000000000E+00  0.00000000000E+00  0.74505805969E-08  0.10566000000E+00  0.10566000000E+00 0.  1.
     999900   -1    0    0    0    0 -0.00000000000E+00 -0.00000000000E+00 -0.74505805969E-08  0.93827000000E+00  0.93827000000E+00 0. -1.
     999902    2    1    2    0    0  0.22748108679E-01  0.13857361803E-01  0.16312454518E-02  0.10172436011E+01  0.10168934950E+01 0.  0.
     999903    2    3    3    0    0 -0.65795181955E-02  0.10800624680E+00  0.67817269377E-01  0.12926572299E+00  0.20045091815E-01 0.  0.
         14    1    1    2    0    0 -0.22748108679E-01 -0.13857361803E-01 -0.16312454518E-02  0.26686398902E-01  0.00000000000E+00 0.  1.
     999901    1    3    3    0    0  0.29327626875E-01 -0.94148885002E-01 -0.66186023926E-01  0.88797787811E+00  0.88000000000E+00 0. -1.
        -11    1    4    4    0    0 -0.25706183979E-02  0.56126922311E-01  0.23459720400E-01  0.60888907769E-01  0.51100000000E-03 0. -1.
         11    1    4    4    0    0 -0.40088997977E-02  0.51879324493E-01  0.44357548978E-01  0.68376815221E-01  0.51100000000E-03 0.  1.
</event>
<event>
 8    1  0.1122465E+005  0.1043930E+01  0.7957747E-01            NaN
         13   -1    0    0    0    0  0.00000000000E+00  0.00000000000E+00  0.74505805969E-08  0.10566000000E+00  0.10566000000E+00 0.  1.
     999900   -1    0    0    0    0 -0.00000000000E+00 -0.00000000000E+00 -0.74505805969E-08  0.93827000000E+00  0.93827000000E+00 0. -1.
     999902    2    1    2    0    0 -0.17401324923E-01  0.17561679584E-01  0.71318844984E-02  0.10181990366E+01  0.10178738604E+01 0.  0.
     999903    2    3    3    0    0  0.88938585999E-01  0.50455102119E-01 -0.73093440844E-01  0.12756653290E+00  0.21789442661E-01 0.  0.
         14    1    1    2    0    0  0.17401324923E-01 -0.17561679584E-01 -0.71318844984E-02  0.25730963359E-01  0.00000000000E+00 0. -1.
     999901    1    3    3    0    0 -0.10633991092E+00 -0.32893422535E-01  0.80225325343E-01  0.89063250375E+00  0.88000000000E+00 0.  1.
        -11    1    4    4    0    0  0.44516187243E-01  0.18005087243E-01 -0.23351977068E-01  0.53398970470E-01  0.51100000000E-03 0.  1.
         11    1    4    4    0    0  0.44422398756E-01  0.32450014876E-01 -0.49741463776E-01  0.74167562426E-01  0.51100000000E-03 0. -1.
</event>
<event>
 8    1  0.1122465E+005  0.1043930E+01  0.7957747E-01            NaN
         13   -1    0    0    0    0  0.00000000000E+00  0.00000000000E+00  0.74505805969E-08  0.10566000000E+00  0.10566000000E+00 0. -1.
     999900   -1    0    0    0    0 -0.00000000000E+00 -0.00000000000E+00 -0.74505805969E-08  0.93827000000E+00  0.93827000000E+00 0. -1.
     999902    2    1    2    0    0  0.19126520494E-02 -0.41286107598E-02  0.24470460802E-01  0.10190401001E+01  0.10187360887E+01 0.  0.
     999903    2    3    3    0    0 -0.98348928368E-01 -0.48280079246E-01 -0.63241234616E-01  0.12791997454E+00  0.18989164501E-01 0.  0.
         14    1    1    2    0    0 -0.19126520494E-02  0.41286107598E-02 -0.24470460802E-01  0.24889899890E-01  0.00000000000E+00 0.  1.
     999901    1    3    3    0    0  0.10026158042E+00  0.44151468486E-01  0.87711695417E-01  0.89112012557E+00  0.88000000000E+00 0.  1.
        -11    1    4    4    0    0 -0.43654322146E-01 -0.17263478196E-01 -0.37044309575E-01  0.59801918986E-01  0.51100000000E-03 0. -1.
         11    1    4    4    0    0 -0.54694606222E-01 -0.31016601050E-01 -0.26196925040E-01  0.68118055558E-01  0.51100000000E-03 0.  1.
</event>
<event>
 8    1  0.1122465E+005  0.1043930E+01  0.7957747E-01            NaN
         13   -1    0    0    0    0  0.00000000000E+00  0.00000000000E+00  0.74505805969E-08  0.10566000000E+00  0.10566000000E+00 0. -1.
     999900   -1    0    0    0    0 -0.00000000000E+00 -0.00000000000E+00 -0.74505805969E-08  0.93827000000E+00  0.93827000000E+00 0. -1.
     999902    2    1    2    0    0  0.16204002340E-01  0.12075733535E-01  0.11126209609E-01  0.10208608524E+01  0.10206001638E+01 0.  0.
     999903    2    3    3    0    0  0.88821112551E-01 -0.94778502689E-01  0.29906721941E-03  0.13136194877E+00  0.19588709393E-01 0.  0.
         14    1    1    2    0    0 -0.16204002340E-01 -0.12075733535E-01 -0.11126209609E-01  0.23069147633E-01  0.00000000000E+00 0. -1.
     999901    1    3    3    0    0 -0.72617110212E-01  0.10685423622E+00  0.10827142389E-01  0.88949890360E+00  0.88000000000E+00 0.  1.
        -11    1    4    4    0    0  0.59272052265E-01 -0.49167151203E-01 -0.38412389799E-04  0.77011996037E-01  0.51100000000E-03 0.  1.
         11    1    4    4    0    0  0.29549060287E-01 -0.45611351486E-01  0.33747960921E-03  0.54349952730E-01  0.51100000000E-03 0. -1.
</event>
<event>
 8    1  0.1122465E+005  0.1043930E+01  0.7957747E-01            NaN
         13   -1    0    0    0    0  0.00000000000E+00  0.00000000000E+00  0.74505805969E-08  0.10566000000E+00  0.10566000000E+00 0.  1.
     999900   -1    0    0    0    0 -0.00000000000E+00 -0.00000000000E+00 -0.74505805969E-08  0.93827000000E+00  0.93827000000E+00 0. -1.
     999902    2    1    2    0    0  0.17831072004E-02  0.14523414013E-01 -0.19446189851E-01  0.10195935392E+01  0.10193030569E+01 0.  0.
     999903    2    3    3    0    0 -0.57092304131E-01 -0.55636840142E-02  0.11213216770E+00  0.12763912905E+00  0.20679421163E-01 0.  0.
         14    1    1    2    0    0 -0.17831072004E-02 -0.14523414013E-01  0.19446189851E-01  0.24336460828E-01  0.00000000000E+00 0.  1.
     999901    1    3    3    0    0  0.58875411332E-01  0.20087098027E-01 -0.13157835755E+00  0.89195441013E+00  0.88000000000E+00 0. -1.
        -11    1    4    4    0    0 -0.13476427553E-01  0.69575788037E-02  0.21982420075E-01  0.26711606386E-01  0.51100000000E-03 0.  1.
         11    1    4    4    0    0 -0.43615876578E-01 -0.12521262818E-01  0.90149747626E-01  0.10092752266E+00  0.51100000000E-03 0. -1.
</event>
<event>
 8    1  0.1122465E+005  0.1043930E+01  0.7957747E-01            NaN
         13   -1    0    0    0    0  0.00000000000E+00  0.00000000000E+00  0.74505805969E-08  0.10566000000E+00  0.10566000000E+00 0. -1.
     999900   -1    0    0    0    0 -0.00000000000E+00 -0.00000000000E+00 -0.74505805969E-08  0.93827000000E+00  0.93827000000E+00 0.  1.
     999902    2    1    2    0    0 -0.19177083100E-01 -0.13764297343E-01  0.73222543729E-03  0.10203132146E+01  0.10200398538E+01 0.  0.
     999903    2    3    3    0    0  0.41139019813E-01 -0.81110057597E-01  0.92055309909E-01  0.13098009961E+00  0.20256999213E-01 0.  0.
         14    1    1    2    0    0  0.19177083100E-01  0.13764297343E-01 -0.73222543729E-03  0.23616785380E-01  0.00000000000E+00 0.  1.
     999901    1    3    3    0    0 -0.60316102913E-01  0.67345760254E-01 -0.91323084471E-01  0.88933311501E+00  0.88000000000E+00 0. -1.
        -11    1    4    4    0    0  0.21419761855E-01 -0.49405957915E-01  0.67239238593E-01  0.86145987736E-01  0.51100000000E-03 0.  1.
         11    1    4    4    0    0  0.19719257958E-01 -0.31704099682E-01  0.24816071316E-01  0.44834111875E-01  0.51100000000E-03 0. -1.
</event>
<event>
 8    1  0.1122465E+005  0.1043930E+01  0.7957747E-01            NaN
         13   -1    0    0    0    0  0.00000000000E+00  0.00000000000E+00  0.74505805969E-08  0.10566000000E+00  0.10566000000E+00 0. -1.
     999900   -1    0    0    0    0 -0.00000000000E+00 -0.00000000000E+00 -0.74505805969E-08  0.93827000000E+00  0.93827000000E+00 0. -1.
     999902    2    1    2    0    0 -0.50600161265E-02  0.46409668923E-02  0.23216130824E-01  0.10197198561E+01  0.10194324175E+01 0.  0.
     999903    2    3    3    0    0  0.10630108723E+00 -0.54733684119E-01 -0.42666767585E-01  0.12827877515E+00  0.18419928688E-01 0.  0.
         14    1    1    2    0    0  0.50600161265E-02 -0.46409668923E-02 -0.23216130824E-01  0.24210143893E-01  0.00000000000E+00 0.  1.
     999901    1    3    3    0    0 -0.11136110336E+00  0.59374651012E-01  0.65882898409E-01  0.89144108096E+00  0.88000000000E+00 0.  1.
        -11    1    4    4    0    0  0.64976515373E-01 -0.26437170348E-01 -0.17875461109E-01  0.72392435771E-01  0.51100000000E-03 0. -1.
         11    1    4    4    0    0  0.41324571858E-01 -0.28296513771E-01 -0.24791306476E-01  0.55886339374E-01  0.51100000000E-03 0.  1.
</event>
<event>
 8    1  0.1122465E+005  0.1043930E+01  0.7957747E-01            NaN
         13   -1    0    0    0    0  0.00000000000E+00  0.00000000000E+00  0.74505805969E-08  0.10566000000E+00  0.10566000000E+00 0.  1.
     999900   -1    0    0    0    0 -0.00000000000E+00 -0.00000000000E+00 -0.74505805969E-08  0.93827000000E+00  0.93827000000E+00 0. -1.
     999902    2    1    2    0    0 -0.19844083608E-01  0.32680840940E-02  0.12444760712E-01  0.10202796280E+01  0.10200054800E+01 0.  0.
     999903    2    3    3    0    0  0.33767015653E-01  0.27865276339E-01  0.12231188608E+00  0.13148833804E+00  0.20305186314E-01 0.  0.
         14    1    1    2    0    0  0.19844083608E-01 -0.32680840940E-02 -0.12444760712E-01  0.23650372028E-01  0.00000000000E+00 0. -1.
     999901    1    3    3    0    0 -0.53611099260E-01 -0.24597192245E-01 -0.10986712537E+00  0.88879128994E+00  0.88000000000E+00 0. -1.
        -11    1    4    4    0    0  0.35020981483E-01  0.21703694548E-01  0.96733777868E-01  0.10514373211E+00  0.51100000000E-03 0.  1.
         11    1    4    4    0    0 -0.12539658305E-02  0.61615817910E-02  0.25578108213E-01  0.26344605923E-01  0.51100000000E-03 0. -1.
</event>
<event>
 8    1  0.1122465E+005  0.1043930E+01  0.7957747E-01            NaN
         13   -1    0    0    0    0  0.00000000000E+00  0.00000000000E+00  0.74505805969E-08  0.10566000000E+00  0.10566000000E+00 0.  1.
     999900   -1    0    0    0    0 -0.00000000000E+00 -0.00000000000E+00 -0.74505805969E-08  0.93827000000E+00  0.93827000000E+00 0. -1.
     999902    2    1    2    0    0  0.14565033930E-01 -0.65890336047E-02 -0.16197681345E-01  0.10211721341E+01  0.10209185115E+01 0.  0.
     999903    2    3    3    0    0  0.10110792396E+00 -0.77069091667E-01 -0.36526289138E-01  0.13388956208E+00  0.20731325504E-01 0.  0.
         14    1    1    2    0    0 -0.14565033930E-01  0.65890336047E-02  0.16197681345E-01  0.22757865852E-01  0.00000000000E+00 0.  1.
     999901    1    3    3    0    0 -0.86542890034E-01  0.70480058062E-01  0.20328607793E-01  0.88728257207E+00  0.88000000000E+00 0. -1.
        -11    1    4    4    0    0  0.25805925832E-01 -0.15081488297E-01 -0.45384632202E-03  0.29897561686E-01  0.51100000000E-03 0. -1.
         11    1    4    4    0    0  0.75301998132E-01 -0.61987603370E-01 -0.36072442816E-01  0.10399200039E+00  0.51100000000E-03 0.  1.
</event>
<event>
 8    1  0.1122465E+005  0.1043930E+01  0.7957747E-01            NaN
         13   -1    0    0    0    0  0.00000000000E+00  0.00000000000E+00  0.74505805969E-08  0.10566000000E+00  0.10566000000E+00 0.  1.
     999900   -1    0    0    0    0 -0.00000000000E+00 -0.00000000000E+00 -0.74505805969E-08  0.93827000000E+00  0.93827000000E+00 0. -1.
     999902    2    1    2    0    0 -0.11947772843E-02 -0.20346447266E-01 -0.88001884160E-03  0.10235295137E+01  0.10233261873E+01 0.  0.
     999903    2    3    3    0    0 -0.22179453416E-01 -0.25039915189E-02  0.13000814459E+00  0.13342254191E+00  0.20031447835E-01 0.  0.
         14    1    1    2    0    0  0.11947772843E-02  0.20346447266E-01  0.88001884160E-03  0.20400486324E-01  0.00000000000E+00 0. -1.
     999901    1    3    3    0    0  0.20984676132E-01 -0.17842455747E-01 -0.13088816343E+00  0.89010697177E+00  0.88000000000E+00 0. -1.
        -11    1    4    4    0    0 -0.33954087544E-03 -0.14637905183E-02  0.61235316687E-01  0.61255882178E-01  0.51100000000E-03 0. -1.
         11    1    4    4    0    0 -0.21839912541E-01 -0.10402010006E-02  0.68772827904E-01  0.72166659731E-01  0.51100000000E-03 0.  1.
</event>
<event>
 8    1  0.1122465E+005  0.1043930E+01  0.7957747E-01            NaN
         13   -1    0    0    0    0  0.00000000000E+00  0.00000000000E+00  0.74505805969E-08  0.10566000000E+00  0.10566000000E+00 0. -1.
     999900   -1    0    0    0    0 -0.00000000000E+00 -0.00000000000E+00 -0.74505805969E-08  0.93827000000E+00  0.93827000000E+00 0.  1.
     999902    2    1    2    0    0  0.22657636615E-01 -0.38245747179E-02 -0.67196282204E-02  0.10199894638E+01  0.10197084667E+01 0.  0.
     999903    2    3    3    0    0  0.12693210415E+00 -0.21281528235E-01  0.83441648594E-02  0.13353313232E+00  0.34594939390E-01 0.  0.
         14    1    1    2    0    0 -0.22657636615E-01  0.38245747179E-02  0.67196282204E-02  0.23940536171E-01  0.00000000000E+00 0. -1.
     999901    1    3    3    0    0 -0.10427446754E+00  0.17456953517E-01 -0.15063793080E-01  0.88645633151E+00  0.88000000000E+00 0. -1.
        -11    1    4    4    0    0  0.21446530288E-01 -0.14782018420E-01 -0.63890159459E-02  0.26824287049E-01  0.51100000000E-03 0.  1.
         11    1    4    4    0    0  0.10548557387E+00 -0.64995098152E-02  0.14733180805E-01  0.10670884527E+00  0.51100000000E-03 0. -1.
</event>
<event>
 8    1  0.1122465E+005  0.1043930E+01  0.7957747E-01            NaN
         13   -1    0    0    0    0  0.00000000000E+00  0.00000000000E+00  0.74505805969E-08  0.10566000000E+00  0.10566000000E+00 0. -1.
     999900   -1    0    0    0    0 -0.00000000000E+00 -0.00000000000E+00 -0.74505805969E-08  0.93827000000E+00  0.93827000000E+00 0.  1.
     999902    2    1    2    0    0 -0.20716672397E-01 -0.97590936614E-02 -0.97362305079E-02  0.10190459768E+01  0.10187421108E+01 0.  0.
     999903    2    3    3    0    0  0.11820223852E-01 -0.10553933436E+00 -0.73819015784E-01  0.13093612581E+00  0.20414533081E-01 0.  0.
         14    1    1    2    0    0  0.20716672397E-01  0.97590936614E-02  0.97362305079E-02  0.24884023164E-01  0.00000000000E+00 0.  1.
     999901    1    3    3    0    0 -0.32536896249E-01  0.95780240700E-01  0.64082785276E-01  0.88810985103E+00  0.88000000000E+00 0. -1.
        -11    1    4    4    0    0  0.23048461791E-02 -0.81126814936E-01 -0.62273590127E-01  0.10229923541E+00  0.51100000000E-03 0. -1.
         11    1    4    4    0    0  0.95153776724E-02 -0.24412519425E-01 -0.11545425657E-01  0.28636890395E-01  0.51100000000E-03 0.  1.
</event>
<event>
 8    1  0.1122465E+005  0.1043930E+01  0.7957747E-01            NaN
         13   -1    0    0    0    0  0.00000000000E+00  0.00000000000E+00  0.74505805969E-08  0.10566000000E+00  0.10566000000E+00 0. -1.
     999900   -1    0    0    0    0 -0.00000000000E+00 -0.00000000000E+00 -0.74505805969E-08  0.93827000000E+00  0.93827000000E+00 0.  1.
     999902    2    1    2    0    0 -0.14694978465E-01  0.77499049879E-02  0.12957988815E-01  0.10228607595E+01  0.10226437408E+01 0.  0.
     999903    2    3    3    0    0  0.51124115348E-01  0.11818564071E+00 -0.24866146697E-01  0.13271533880E+00  0.20335069760E-01 0.  0.
         14    1    1    2    0    0  0.14694978465E-01 -0.77499049879E-02 -0.12957988815E-01  0.21069240459E-01  0.00000000000E+00 0. -1.
     999901    1    3    3    0    0 -0.65819093814E-01 -0.11043573572E+00  0.37824135512E-01  0.89014542074E+00  0.88000000000E+00 0. -1.
        -11    1    4    4    0    0  0.35474297874E-01  0.79010543319E-01 -0.26260138233E-01  0.90503854870E-01  0.51100000000E-03 0. -1.
         11    1    4    4    0    0  0.15649817474E-01  0.39175097389E-01  0.13939915356E-02  0.42211483932E-01  0.51100000000E-03 0.  1.
</event>
<event>
 8    1  0.1122465E+005  0.1043930E+01  0.7957747E-01            NaN
         13   -1    0    0    0    0  0.00000000000E+00  0.00000000000E+00  0.74505805969E-08  0.10566000000E+00  0.10566000000E+00 0.  1.
     999900   -1    0    0    0    0 -0.00000000000E+00 -0.00000000000E+00 -0.74505805969E-08  0.93827000000E+00  0.93827000000E+00 0. -1.
     999902    2    1    2    0    0 -0.18847195674E-01 -0.13996143246E-01 -0.25705690707E-02  0.10203139750E+01  0.10200406320E+01 0.  0.
     999903    2    3    3    0    0 -0.12194008179E+00 -0.28759828286E-01 -0.40635229245E-01  0.13335567390E+00  0.20880676171E-01 0.  0.
         14    1    1    2    0    0  0.18847195674E-01  0.13996143246E-01  0.25705690707E-02  0.23616024981E-01  0.00000000000E+00 0. -1.
     999901    1    3    3    0    0  0.10309288611E+00  0.14763685039E-01  0.38064660174E-01  0.88695830112E+00  0.88000000000E+00 0.  1.
        -11    1    4    4    0    0 -0.10821230135E+00 -0.18308408468E-01 -0.35325763308E-01  0.11529644686E+00  0.51100000000E-03 0.  1.
         11    1    4    4    0    0 -0.13727780440E-01 -0.10451419818E-01 -0.53094659364E-02  0.18059227047E-01  0.51100000000E-03 0. -1.
</event>
<event>
 8    1  0.1122465E+005  0.1043930E+01  0.7957747E-01            NaN
         13   -1    0    0    0    0  0.00000000000E+00  0.00000000000E+00  0.74505805969E-08  0.10566000000E+00  0.10566000000E+00 0.  1.
     999900   -1    0    0    0    0 -0.00000000000E+00 -0.00000000000E+00 -0.74505805969E-08  0.93827000000E+00  0.93827000000E+00 0.  1.
     999902    2    1    2    0    0  0.17699501217E-01  0.91158381964E-02 -0.13251319530E-01  0.10200141409E+01  0.10197337296E+01 0.  0.
     999903    2    3    3    0    0  0.31442233699E-01 -0.45395414086E-01  0.11479163250E+00  0.12897242641E+00  0.20184404889E-01 0.  0.
         14    1    1    2    0    0 -0.17699501217E-01 -0.91158381964E-02  0.13251319530E-01  0.23915859145E-01  0.00000000000E+00 0.  1.
     999901    1    3    3    0    0 -0.13742732482E-01  0.54511252282E-01 -0.12804295203E+00  0.89104171445E+00  0.88000000000E+00 0.  1.
        -11    1    4    4    0    0  0.27451592786E-01 -0.31775694644E-01  0.66622606110E-01  0.78753523619E-01  0.51100000000E-03 0.  1.
         11    1    4    4    0    0  0.39906409122E-02 -0.13619719442E-01  0.48169026393E-01  0.50218902787E-01  0.51100000000E-03 0. -1.
</event>
<event>
 8    1  0.1122465E+005  0.1043930E+01  0.7957747E-01            NaN
         13   -1    0    0    0    0  0.00000000000E+00  0.00000000000E+00  0.74505805969E-08  0.10566000000E+00  0.10566000000E+00 0.  1.
     999900   -1    0    0    0    0 -0.00000000000E+00 -0.00000000000E+00 -0.74505805969E-08  0.93827000000E+00  0.93827000000E+00 0.  1.
     999902    2    1    2    0    0  0.16313596250E-01  0.14132022820E-01  0.98316428538E-02  0.10202127343E+01  0.10199370150E+01 0.  0.
     999903    2    3    3    0    0  0.66269734988E-02  0.18155068177E-01  0.12911845816E+00  0.13210274118E+00  0.20150303030E-01 0.  0.
         14    1    1    2    0    0 -0.16313596250E-01 -0.14132022820E-01 -0.98316428538E-02  0.23717265711E-01  0.00000000000E+00 0.  1.
     999901    1    3    3    0    0  0.96866227509E-02 -0.40230453574E-02 -0.11928681530E+00  0.88810999311E+00  0.88000000000E+00 0.  1.
        -11    1    4    4    0    0 -0.12222769802E-02  0.14643569033E-01  0.11177447991E+00  0.11273740974E+00  0.51100000000E-03 0.  1.
         11    1    4    4    0    0  0.78492504790E-02  0.35114991445E-02  0.17343978252E-01  0.19365331444E-01  0.51100000000E-03 0. -1.
</event>
<event>
 8    1  0.1122465E+005  0.1043930E+01  0.7957747E-01            NaN
         13   -1    0    0    0    0  0.00000000000E+00  0.00000000000E+00  0.74505805969E-08  0.10566000000E+00  0.10566000000E+00 0. -1.
     999900   -1    0    0    0    0 -0.00000000000E+00 -0.00000000000E+00 -0.74505805969E-08  0.93827000000E+00  0.93827000000E+00 0.  1.
     999902    2    1    2    0    0 -0.17607713980E-01  0.98157423995E-02 -0.12506762697E-01  0.10202066043E+01  0.10199307408E+01 0.  0.
     999903    2    3    3    0    0  0.51797809980E-01  0.73580557543E-01 -0.93756231773E-01  0.13145210803E+00  0.19806921596E-01 0.  0.
         14    1    1    2    0    0  0.17607713980E-01 -0.98157423995E-02  0.12506762697E-01  0.23723395701E-01  0.00000000000E+00 0. -1.
     999901    1    3    3    0    0 -0.69405523960E-01 -0.63764815144E-01  0.81249469076E-01  0.88875449627E+00  0.88000000000E+00 0. -1.
        -11    1    4    4    0    0  0.79006169447E-02  0.19339914669E-01 -0.32281371068E-01  0.38455169829E-01  0.51100000000E-03 0. -1.
         11    1    4    4    0    0  0.43897193036E-01  0.54240642874E-01 -0.61474860704E-01  0.92996938204E-01  0.51100000000E-03 0.  1.
</event>
<event>
 8    1  0.1122465E+005  0.1043930E+01  0.7957747E-01            NaN
         13   -1    0    0    0    0  0.00000000000E+00  0.00000000000E+00  0.74505805969E-08  0.10566000000E+00  0.10566000000E+00 0. -1.
     999900   -1    0    0    0    0 -0.00000000000E+00 -0.00000000000E+00 -0.74505805969E-08  0.93827000000E+00  0.93827000000E+00 0. -1.
     999902    2    1    2    0    0  0.10319174235E-01 -0.20419792003E-01 -0.46808286046E-02  0.10205769827E+01  0.10203097638E+01 0.  0.
     999903    2    3    3    0    0  0.26432151462E-01  0.34354644769E-01  0.12073558197E+00  0.12985303946E+00  0.20145243964E-01 0.  0.
         14    1    1    2    0    0 -0.10319174235E-01  0.20419792003E-01  0.46808286046E-02  0.23353017337E-01  0.00000000000E+00 0.  1.
     999901    1    3    3    0    0 -0.16112977227E-01 -0.54774436771E-01 -0.12541641058E+00  0.89072394321E+00  0.88000000000E+00 0. -1.
        -11    1    4    4    0    0  0.42150778294E-02  0.17932142795E-01  0.66191321178E-01  0.68708665731E-01  0.51100000000E-03 0. -1.
         11    1    4    4    0    0  0.22217073633E-01  0.16422501974E-01  0.54544260793E-01  0.61144373726E-01  0.51100000000E-03 0.  1.
</event>
<event>
 8    1  0.1122465E+005  0.1043930E+01  0.7957747E-01            NaN
         13   -1    0    0    0    0  0.00000000000E+00  0.00000000000E+00  0.74505805969E-08  0.10566000000E+00  0.10566000000E+00 0.  1.
     999900   -1    0    0    0    0 -0.00000000000E+00 -0.00000000000E+00 -0.74505805969E-08  0.93827000000E+00  0.93827000000E+00 0.  1.
     999902    2    1    2    0    0 -0.10642048087E-01 -0.52116184089E-02 -0.22300410460E-01  0.10186768327E+01  0.10183637695E+01 0.  0.
     999903    2    3    3    0    0 -0.52695179569E-02  0.25953536697E-01 -0.12734727386E+00  0.13186514212E+00  0.21673339826E-01 0.  0.
         14    1    1    2    0    0  0.10642048087E-01  0.52116184089E-02  0.22300410460E-01  0.25253167339E-01  0.00000000000E+00 0.  1.
     999901    1    3    3    0    0 -0.53725301303E-02 -0.31165155106E-01  0.10504686340E+00  0.88681169054E+00  0.88000000000E+00 0. -1.
        -11    1    4    4    0    0  0.74707202255E-02  0.17173819619E-01 -0.70841116886E-01  0.73276713243E-01  0.51100000000E-03 0.  1.
         11    1    4    4    0    0 -0.12740238182E-01  0.87797170772E-02 -0.56506156976E-01  0.58588428875E-01  0.51100000000E-03 0. -1.
</event>
<event>
 8    1  0.1122465E+005  0.1043930E+01  0.7957747E-01            NaN
         13   -1    0    0    0    0  0.00000000000E+00  0.00000000000E+00  0.74505805969E-08  0.10566000000E+00  0.10566000000E+00 0. -1.
     999900   -1    0    0    0    0 -0.00000000000E+00 -0.00000000000E+00 -0.74505805969E-08  0.93827000000E+00  0.93827000000E+00 0. -1.
     999902    2    1    2    0    0 -0.10993474978E-01 -0.20188393211E-01  0.60528402654E-02  0.10201589128E+01  0.10198819259E+01 0.  0.
     999903    2    3    3    0    0 -0.31528222796E-01 -0.12657835804E+00 -0.17969469551E-01  0.13318790319E+00  0.20000154074E-01 0.  0.
         14    1    1    2    0    0  0.10993474978E-01  0.20188393211E-01 -0.60528402654E-02  0.23771087224E-01  0.00000000000E+00 0. -1.
     999901    1    3    3    0    0  0.20534747818E-01  0.10638996483E+00  0.24022309816E-01  0.88697100959E+00  0.88000000000E+00 0. -1.
        -11    1    4    4    0    0 -0.16563841902E-02 -0.44219541680E-01 -0.85597960878E-02  0.45073747404E-01  0.51100000000E-03 0. -1.
         11    1    4    4    0    0 -0.29871838605E-01 -0.82358816358E-01 -0.94096734628E-02  0.88114155783E-01  0.51100000000E-03 0.  1.
</event>
<event>
 8    1  0.1122465E+005  0.1043930E+01  0.7957747E-01            NaN
         13   -1    0    0    0    0  0.00000000000E+00  0.00000000000E+00  0.74505805969E-08  0.10566000000E+00  0.10566000000E+00 0.  1.
     999900   -1    0    0    0    0 -0.00000000000E+00 -0.00000000000E+00 -0.74505805969E-08  0.93827000000E+00  0.93827000000E+00 0. -1.
     999902    2    1    2    0    0 -0.31768087788E-02  0.17357870692E-01  0.16377592274E-01  0.10198548402E+01  0.10195706360E+01 0.  0.
     999903    2    3    3    0    0  0.12468854899E+00 -0.11453543301E-02  0.33171495582E-01  0.13026282462E+00  0.17874822314E-01 0.  0.
         14    1    1    2    0    0  0.31768087788E-02 -0.17357870692E-01 -0.16377592274E-01  0.24075159764E-01  0.00000000000E+00 0. -1.
     999901    1    3    3    0    0 -0.12786535777E+00  0.18503225022E-01 -0.16793903308E-01  0.88959201561E+00  0.88000000000E+00 0. -1.
        -11    1    4    4    0    0  0.37728853569E-01  0.43794661704E-02  0.17097564932E-01  0.41656139562E-01  0.51100000000E-03 0.  1.
         11    1    4    4    0    0  0.86959695425E-01 -0.55248205006E-02  0.16073930650E-01  0.88606685061E-01  0.51100000000E-03 0. -1.
</event>
<event>
 8    1  0.1122465E+005  0.1043930E+01  0.7957747E-01            NaN
         13   -1    0    0    0    0  0.00000000000E+00  0.00000000000E+00  0.74505805969E-08  0.10566000000E+00  0.10566000000E+00 0.  1.
     999900   -1    0    0    0    0 -0.00000000000E+00 -0.00000000000E+00 -0.74505805969E-08  0.93827000000E+00  0.93827000000E+00 0. -1.
     999902    2    1    2    0    0 -0.13069582730E-01 -0.83196608012E-02 -0.46522194725E-02  0.10277536625E+01  0.10276263508E+01 0.  0.
     999903    2    3    3    0    0 -0.62683067788E-01  0.17871379787E-01  0.11939120876E+00  0.13728511136E+00  0.18557690242E-01 0.  0.
         14    1    1    2    0    0  0.13069582730E-01  0.83196608012E-02  0.46522194725E-02  0.16176337490E-01  0.00000000000E+00 0.  1.
     999901    1    3    3    0    0  0.49613485058E-01 -0.26191040588E-01 -0.12404342824E+00  0.89046855115E+00  0.88000000000E+00 0. -1.
        -11    1    4    4    0    0 -0.38127312686E-01  0.16794593086E-02  0.72413480046E-01  0.81856494975E-01  0.51100000000E-03 0. -1.
         11    1    4    4    0    0 -0.24555755102E-01  0.16191920479E-01  0.46977728717E-01  0.55428616380E-01  0.51100000000E-03 0.  1.
</event>
<event>
 8    1  0.1122465E+005  0.1043930E+01  0.7957747E-01            NaN
         13   -1    0    0    0    0  0.00000000000E+00  0.00000000000E+00  0.74505805969E-08  0.10566000000E+00  0.10566000000E+00 0.  1.
     999900   -1    0    0    0    0 -0.00000000000E+00 -0.00000000000E+00 -0.74505805969E-08  0.93827000000E+00  0.93827000000E+00 0. -1.
     999902    2    1    2    0    0  0.21221574210E-01  0.86538298850E-02  0.75301513002E-02  0.10198064190E+01  0.10195210567E+01 0.  0.
     999903    2    3    3    0    0  0.52400760118E-01  0.44736634093E-01  0.11130862243E+00  0.13242595858E+00  0.19995474154E-01 0.  0.
         14    1    1    2    0    0 -0.21221574210E-01 -0.86538298850E-02 -0.75301513002E-02  0.24123581041E-01  0.00000000000E+00 0.  1.
     999901    1    3    3    0    0 -0.31179185908E-01 -0.36082804208E-01 -0.10377847113E+00  0.88738046038E+00  0.88000000000E+00 0. -1.
        -11    1    4    4    0    0  0.46310062648E-01  0.41119725133E-01  0.84964133961E-01  0.10514094768E+00  0.51100000000E-03 0. -1.
         11    1    4    4    0    0  0.60906974694E-02  0.36169089604E-02  0.26344488473E-01  0.27285010903E-01  0.51100000000E-03 0.  1.
</event>
<event>
 8    1  0.1122465E+005  0.1043930E+01  0.7957747E-01            NaN
         13   -1    0    0    0    0  0.00000000000E+00  0.00000000000E+00  0.74505805969E-08  0.10566000000E+00  0.10566000000E+00 0.  1.
     999900   -1    0    0    0    0 -0.00000000000E+00 -0.00000000000E+00 -0.74505805969E-08  0.93827000000E+00  0.93827000000E+00 0. -1.
     999902    2    1    2    0    0 -0.10324434310E-01  0.15618714866E-01  0.15109574033E-01  0.10198709596E+01  0.10195871404E+01 0.  0.
     999903    2    3    3    0    0 -0.11035170875E+00 -0.66381659613E-01  0.24715572077E-02  0.13032656131E+00  0.19871578479E-01 0.  0.
         14    1    1    2    0    0  0.10324434310E-01 -0.15618714866E-01 -0.15109574033E-01  0.24059040407E-01  0.00000000000E+00 0. -1.
     999901    1    3    3    0    0  0.10002727444E+00  0.82000374478E-01  0.12638016825E-01  0.88954439828E+00  0.88000000000E+00 0.  1.
        -11    1    4    4    0    0 -0.77316658853E-01 -0.35925985508E-01 -0.94139134166E-03  0.85262474217E-01  0.51100000000E-03 0. -1.
         11    1    4    4    0    0 -0.33035049895E-01 -0.30455674104E-01  0.34129485493E-02  0.45064087093E-01  0.51100000000E-03 0.  1.
</event>
<event>
 8    1  0.1122465E+005  0.1043930E+01  0.7957747E-01            NaN
         13   -1    0    0    0    0  0.00000000000E+00  0.00000000000E+00  0.74505805969E-08  0.10566000000E+00  0.10566000000E+00 0. -1.
     999900   -1    0    0    0    0 -0.00000000000E+00 -0.00000000000E+00 -0.74505805969E-08  0.93827000000E+00  0.93827000000E+00 0.  1.
     999902    2    1    2    0    0  0.35336339508E-02  0.19777318367E-02  0.22800352652E-01  0.10207728397E+01  0.10205101353E+01 0.  0.
     999903    2    3    3    0    0 -0.74906534948E-01  0.85159064981E-01 -0.59276581179E-01  0.12958901054E+00  0.20409391253E-01 0.  0.
         14    1    1    2    0    0 -0.35336339508E-02 -0.19777318367E-02 -0.22800352652E-01  0.23157160300E-01  0.00000000000E+00 0.  1.
     999901    1    3    3    0    0  0.78440168898E-01 -0.83181333144E-01  0.82076933831E-01  0.89118382916E+00  0.88000000000E+00 0. -1.
        -11    1    4    4    0    0 -0.51013369098E-01  0.60774748090E-01 -0.30754063047E-01  0.85099984413E-01  0.51100000000E-03 0. -1.
         11    1    4    4    0    0 -0.23893165850E-01  0.24384316891E-01 -0.28522518132E-01  0.44489026132E-01  0.51100000000E-03 0.  1.
</event>
<event>
 8    1  0.1122465E+005  0.1043930E+01  0.7957747E-01            NaN
         13   -1    0    0    0    0  0.00000000000E+00  0.00000000000E+00  0.74505805969E-08  0.10566000000E+00  0.10566000000E+00 0.  1.
     999900   -1    0    0    0    0 -0.00000000000E+00 -0.00000000000E+00 -0.74505805969E-08  0.93827000000E+00  0.93827000000E+00 0. -1.
     999902    2    1    2    0    0  0.23378165724E-02 -0.12030450419E-01 -0.20302754883E-01  0.10202150473E+01  0.10199393824E+01 0.  0.
     999903    2    3    3    0    0 -0.11634262387E+00 -0.46958656793E-01  0.27890813405E-01  0.13025569627E+00  0.21164294485E-01 0.  0.
         14    1    1    2    0    0 -0.23378165724E-02  0.12030450419E-01  0.20302754883E-01  0.23714952655E-01  0.00000000000E+00 0.  1.
     999901    1    3    3    0    0  0.11868044044E+00  0.34928206374E-01 -0.48193568287E-01  0.88995935108E+00  0.88000000000E+00 0.  1.
        -11    1    4    4    0    0 -0.68950515302E-01 -0.17936482134E-01  0.20858963017E-01  0.74237782907E-01  0.51100000000E-03 0. -1.
         11    1    4    4    0    0 -0.47392108569E-01 -0.29022174659E-01  0.70318503878E-02  0.56017913362E-01  0.51100000000E-03 0.  1.
</event>
<event>
 8    1  0.1122465E+005  0.1043930E+01  0.7957747E-01            NaN
         13   -1    0    0    0    0  0.00000000000E+00  0.00000000000E+00  0.74505805969E-08  0.10566000000E+00  0.10566000000E+00 0. -1.
     999900   -1    0    0    0    0 -0.00000000000E+00 -0.00000000000E+00 -0.74505805969E-08  0.93827000000E+00  0.93827000000E+00 0.  1.
     999902    2    1    2    0    0  0.22847212628E-01 -0.22206725654E-02  0.50095490588E-02  0.10204348496E+01  0.10201643300E+01 0.  0.
     999903    2    3    3    0    0  0.19377901267E-01  0.10843723954E+00 -0.67240784258E-01  0.13055995933E+00  0.19759603611E-01 0.  0.
         14    1    1    2    0    0 -0.22847212628E-01  0.22206725654E-02 -0.50095490588E-02  0.23495150421E-01  0.00000000000E+00 0. -1.
     999901    1    3    3    0    0  0.34693113617E-02 -0.11065791211E+00  0.72250333317E-01  0.88987489025E+00  0.88000000000E+00 0. -1.
        -11    1    4    4    0    0  0.86616993129E-02  0.56059798403E-01 -0.45985093768E-01  0.73024762936E-01  0.51100000000E-03 0. -1.
         11    1    4    4    0    0  0.10716201954E-01  0.52377441141E-01 -0.21255690490E-01  0.57535196393E-01  0.51100000000E-03 0.  1.
</event>
<event>
 8    1  0.1122465E+005  0.1043930E+01  0.7957747E-01            NaN
         13   -1    0    0    0    0  0.00000000000E+00  0.00000000000E+00  0.74505805969E-08  0.10566000000E+00  0.10566000000E+00 0.  1.
     999900   -1    0    0    0    0 -0.00000000000E+00 -0.00000000000E+00 -0.74505805969E-08  0.93827000000E+00  0.93827000000E+00 0. -1.
     999902    2    1    2    0    0 -0.90065437543E-02  0.40809711974E-02 -0.21233739246E-01  0.10205068525E+01  0.10202380076E+01 0.  0.
     999903    2    3    3    0    0 -0.10580107583E-01 -0.59506207111E-01 -0.11729340033E+00  0.13299726730E+00  0.16661452102E-01 0.  0.
         14    1    1    2    0    0  0.90065437543E-02 -0.40809711974E-02  0.21233739246E-01  0.23423147497E-01  0.00000000000E+00 0.  1.
     999901    1    3    3    0    0  0.15735638283E-02  0.63587178308E-01  0.96059661083E-01  0.88750958521E+00  0.88000000000E+00 0.  1.
        -11    1    4    4    0    0 -0.47783594342E-03 -0.44207442960E-01 -0.78740430318E-01  0.90304168387E-01  0.51100000000E-03 0. -1.
         11    1    4    4    0    0 -0.10102271639E-01 -0.15298764151E-01 -0.38552970010E-01  0.42693098908E-01  0.51100000000E-03 0.  1.
</event>
<event>
 8    1  0.1122465E+005  0.1043930E+01  0.7957747E-01            NaN
         13   -1    0    0    0    0  0.00000000000E+00  0.00000000000E+00  0.74505805969E-08  0.10566000000E+00  0.10566000000E+00 0. -1.
     999900   -1    0    0    0    0 -0.00000000000E+00 -0.00000000000E+00 -0.74505805969E-08  0.93827000000E+00  0.93827000000E+00 0. -1.
     999902    2    1    2    0    0 -0.36749905946E-02  0.27421388196E-01 -0.40369881337E-03  0.10162605031E+01  0.10158837577E+01 0.  0.
     999903    2    3    3    0    0 -0.83814423145E-01 -0.73506366881E-01  0.53738023592E-01  0.12522735752E+00  0.19133018414E-01 0.  0.
         14    1    1    2    0    0  0.36749905946E-02 -0.27421388196E-01  0.40369881337E-03  0.27669496909E-01  0.00000000000E+00 0. -1.
     999901    1    3    3    0    0  0.80139432550E-01  0.10092775508E+00 -0.54141722405E-01  0.89103314557E+00  0.88000000000E+00 0. -1.
        -11    1    4    4    0    0 -0.20202090627E-01 -0.22899629203E-01  0.23348923076E-01  0.38444125860E-01  0.51100000000E-03 0. -1.
         11    1    4    4    0    0 -0.63612332518E-01 -0.50606737678E-01  0.30389100516E-01  0.86783231664E-01  0.51100000000E-03 0.  1.
</event>
<event>
 8    1  0.1122465E+005  0.1043930E+01  0.7957747E-01            NaN
         13   -1    0    0    0    0  0.00000000000E+00  0.00000000000E+00  0.74505805969E-08  0.10566000000E+00  0.10566000000E+00 0. -1.
     999900   -1    0    0    0    0 -0.00000000000E+00 -0.00000000000E+00 -0.74505805969E-08  0.93827000000E+00  0.93827000000E+00 0.  1.
     999902    2    1    2    0    0  0.17372178795E-01 -0.11253764484E-01  0.10722258734E-01  0.10206189159E+01  0.10203526669E+01 0.  0.
     999903    2    3    3    0    0  0.10756423630E+00 -0.14032081309E-02 -0.73763549891E-01  0.13192915416E+00  0.19804204166E-01 0.  0.
         14    1    1    2    0    0 -0.17372178795E-01  0.11253764484E-01 -0.10722258734E-01  0.23311084134E-01  0.00000000000E+00 0.  1.
     999901    1    3    3    0    0 -0.90192057501E-01 -0.98505563527E-02  0.84485808625E-01  0.88868976170E+00  0.88000000000E+00 0. -1.
        -11    1    4    4    0    0  0.47498068574E-01 -0.92132661889E-02 -0.27040980040E-01  0.55429473340E-01  0.51100000000E-03 0. -1.
         11    1    4    4    0    0  0.60066167722E-01  0.78100580580E-02 -0.46722569851E-01  0.76499680823E-01  0.51100000000E-03 0.  1.
</event>
<event>
 8    1  0.1122465E+005  0.1043930E+01  0.7957747E-01            NaN
         13   -1    0    0    0    0  0.00000000000E+00  0.00000000000E+00  0.74505805969E-08  0.10566000000E+00  0.10566000000E+00 0.  1.
     999900   -1    0    0    0    0 -0.00000000000E+00 -0.00000000000E+00 -0.74505805969E-08  0.93827000000E+00  0.93827000000E+00 0.  1.
     999902    2    1    2    0    0 -0.21825180219E-01 -0.24890750170E-03  0.60148191263E-02  0.10212898035E+01  0.10210388261E+01 0.  0.
     999903    2    3    3    0    0 -0.11293843489E+00  0.51492852383E-01  0.47477083962E-01  0.13410439209E+00  0.17980838508E-01 0.  0.
         14    1    1    2    0    0  0.21825180219E-01  0.24890750170E-03 -0.60148191263E-02  0.22640196458E-01  0.00000000000E+00 0.  1.
     999901    1    3    3    0    0  0.91113254672E-01 -0.51741759885E-01 -0.41462264836E-01  0.88718541145E+00  0.88000000000E+00 0.  1.
        -11    1    4    4    0    0 -0.84607858537E-01  0.41988558063E-01  0.28337489837E-01  0.98614416723E-01  0.51100000000E-03 0.  1.
         11    1    4    4    0    0 -0.28330576354E-01  0.95042943199E-02  0.19139594125E-01  0.35489975364E-01  0.51100000000E-03 0. -1.
</event>
<event>
 8    1  0.1122465E+005  0.1043930E+01  0.7957747E-01            NaN
         13   -1    0    0    0    0  0.00000000000E+00  0.00000000000E+00  0.74505805969E-08  0.10566000000E+00  0.10566000000E+00 0. -1.
     999900   -1    0    0    0    0 -0.00000000000E+00 -0.00000000000E+00 -0.74505805969E-08  0.93827000000E+00  0.93827000000E+00 0. -1.
     999902    2    1    2    0    0  0.66145718381E-02  0.22094325982E-01 -0.13442922887E-01  0.10172349822E+01  0.10168846468E+01 0.  0.
     999903    2    3    3    0    0 -0.10333171098E+00 -0.48497538768E-01 -0.51253266261E-01  0.12678508547E+00  0.20447660826E-01 0.  0.
         14    1    1    2    0    0 -0.66145718381E-02 -0.22094325982E-01  0.13442922887E-01  0.26695017830E-01  0.00000000000E+00 0. -1.
     999901    1    3    3    0    0  0.10994628282E+00  0.70591864750E-01  0.37810343374E-01  0.89044989670E+00  0.88000000000E+00 0. -1.
        -11    1    4    4    0    0 -0.31993721154E-01 -0.11732241111E-01 -0.58601539179E-02  0.34581009235E-01  0.51100000000E-03 0.  1.
         11    1    4    4    0    0 -0.71337989827E-01 -0.36765297657E-01 -0.45393112343E-01  0.92204076231E-01  0.51100000000E-03 0. -1.
</event>
<event>
 8    1  0.1122465E+005  0.1043930E+01  0.7957747E-01            NaN
         13   -1    0    0    0    0  0.00000000000E+00  0.00000000000E+00  0.74505805969E-08  0.10566000000E+00  0.10566000000E+00 0.  1.
     999900   -1    0    0    0    0 -0.00000000000E+00 -0.00000000000E+00 -0.74505805969E-08  0.93827000000E+00  0.93827000000E+00 0.  1.
     999902    2    1    2    0    0  0.49171686281E-02  0.23696125747E-01  0.66685433536E-02  0.10188271238E+01  0.10185178220E+01 0.  0.
     999903    2    3    3    0    0 -0.11065922661E+00  0.62932352689E-01 -0.75256067489E-02  0.13028964090E+00  0.26698507791E-01 0.  0.
         14    1    1    2    0    0 -0.49171686281E-02 -0.23696125747E-01 -0.66685433536E-02  0.25102876193E-01  0.00000000000E+00 0.  1.
     999901    1    3    3    0    0  0.11557639524E+00 -0.39236226942E-01  0.14194150102E-01  0.88853748291E+00  0.88000000000E+00 0.  1.
        -11    1    4    4    0    0 -0.58705867329E-01  0.29810434141E-01  0.91040330934E-02  0.66469431938E-01  0.51100000000E-03 0. -1.
         11    1    4    4    0    0 -0.51953359283E-01  0.33121918548E-01 -0.16629639842E-01  0.63820208957E-01  0.51100000000E-03 0.  1.
</event>
<event>
 8    1  0.1122465E+005  0.1043930E+01  0.7957747E-01            NaN
         13   -1    0    0    0    0  0.00000000000E+00  0.00000000000E+00  0.74505805969E-08  0.10566000000E+00  0.10566000000E+00 0. -1.
     999900   -1    0    0    0    0 -0.00000000000E+00 -0.00000000000E+00 -0.74505805969E-08  0.93827000000E+00  0.93827000000E+00 0.  1.
     999902    2    1    2    0    0 -0.13509604536E-02  0.19637339982E-01 -0.14310559861E-01  0.10195939703E+01  0.10193034985E+01 0.  0.
     999903    2    3    3    0    0  0.33409964371E-01 -0.11802729493E+00  0.27282377880E-01  0.12724322873E+00  0.19996075748E-01 0.  0.
         14    1    1    2    0    0  0.13509604536E-02 -0.19637339982E-01  0.14310559861E-01  0.24336029653E-01  0.00000000000E+00 0. -1.
     999901    1    3    3    0    0 -0.34760924825E-01  0.13766463492E+00 -0.41592937741E-01  0.89235074162E+00  0.88000000000E+00 0. -1.
        -11    1    4    4    0    0 -0.19582561270E-03 -0.16649609223E-01 -0.12154036023E-02  0.16702878849E-01  0.51100000000E-03 0.  1.
         11    1    4    4    0    0  0.33605789984E-01 -0.10137768571E+00  0.28497781483E-01  0.11054034988E+00  0.51100000000E-03 0. -1.
</event>
<event>
 8    1  0.1122465E+005  0.1043930E+01  0.7957747E-01            NaN
         13   -1    0    0    0    0  0.00000000000E+00  0.00000000000E+00  0.74505805969E-08  0.10566000000E+00  0.10566000000E+00 0.  1.
     999900   -1    0    0    0    0 -0.00000000000E+00 -0.00000000000E+00 -0.74505805969E-08  0.93827000000E+00  0.93827000000E+00 0. -1.
     999902    2    1    2    0    0 -0.11798205748E-01 -0.20636697958E-01  0.18217904693E-02  0.10200890713E+01  0.10198104351E+01 0.  0.
     999903    2    3    3    0    0  0.51394345688E-01  0.58954757530E-01 -0.99870127608E-01  0.12842246064E+00  0.20031070951E-01 0.  0.
         14    1    1    2    0    0  0.11798205748E-01  0.20636697958E-01 -0.18217904693E-02  0.23840928714E-01  0.00000000000E+00 0.  1.
     999901    1    3    3    0    0 -0.63192551435E-01 -0.79591455488E-01  0.10169191808E+00  0.89166661065E+00  0.88000000000E+00 0.  1.
        -11    1    4    4    0    0  0.23384320076E-01  0.41115260619E-01 -0.53955059904E-01  0.71754447189E-01  0.51100000000E-03 0.  1.
         11    1    4    4    0    0  0.28010025612E-01  0.17839496911E-01 -0.45915067704E-01  0.56668013448E-01  0.51100000000E-03 0. -1.
</event>
<event>
 8    1  0.1122465E+005  0.1043930E+01  0.7957747E-01            NaN
         13   -1    0    0    0    0  0.00000000000E+00  0.00000000000E+00  0.74505805969E-08  0.10566000000E+00  0.10566000000E+00 0.  1.
     999900   -1    0    0    0    0 -0.00000000000E+00 -0.00000000000E+00 -0.74505805969E-08  0.93827000000E+00  0.93827000000E+00 0.  1.
     999902    2    1    2    0    0  0.50421855735E-02  0.21171188357E-01  0.10829194441E-01  0.10196212710E+01  0.10193314584E+01 0.  0.
     999903    2    3    3    0    0  0.43800362039E-01  0.12250182555E+00 -0.15995006909E-01  0.13255327361E+00  0.19732235586E-01 0.  0.
         14    1    1    2    0    0 -0.50421855735E-02 -0.21171188357E-01 -0.10829194441E-01  0.24308728968E-01  0.00000000000E+00 0. -1.
     999901    1    3    3    0    0 -0.38758176465E-01 -0.10133063719E+00  0.26824201350E-01  0.88706799742E+00  0.88000000000E+00 0. -1.
        -11    1    4    4    0    0  0.36853125256E-01  0.80477863937E-01 -0.55269033621E-02  0.88688484071E-01  0.51100000000E-03 0. -1.
         11    1    4    4    0    0  0.69472367827E-02  0.42023961609E-01 -0.10468103547E-01  0.43864789537E-01  0.51100000000E-03 0.  1.
</event>
<event>
 8    1  0.1122465E+005  0.1043930E+01  0.7957747E-01            NaN
         13   -1    0    0    0    0  0.00000000000E+00  0.00000000000E+00  0.74505805969E-08  0.10566000000E+00  0.10566000000E+00 0. -1.
     999900   -1    0    0    0    0 -0.00000000000E+00 -0.00000000000E+00 -0.74505805969E-08  0.93827000000E+00  0.93827000000E+00 0.  1.
     999902    2    1    2    0    0  0.59508766655E-02  0.13782565983E-01  0.18767040119E-01  0.10198972338E+01  0.10196140415E+01 0.  0.
     999903    2    3    3    0    0 -0.85411152587E-01 -0.71399001380E-01 -0.58280989664E-01  0.12774292049E+00  0.22993425006E-01 0.  0.
         14    1    1    2    0    0 -0.59508766655E-02 -0.13782565983E-01 -0.18767040119E-01  0.24032766237E-01  0.00000000000E+00 0.  1.
     999901    1    3    3    0    0  0.91362029253E-01  0.85181567363E-01  0.77048029783E-01  0.89215431328E+00  0.88000000000E+00 0.  1.
        -11    1    4    4    0    0 -0.25187976945E-01 -0.32494900186E-01 -0.28903792060E-01  0.50259755642E-01  0.51100000000E-03 0. -1.
         11    1    4    4    0    0 -0.60223175642E-01 -0.38904101194E-01 -0.29377197604E-01  0.77483164843E-01  0.51100000000E-03 0.  1.
</event>
<event>
 8    1  0.1122465E+005  0.1043930E+01  0.7957747E-01            NaN
         13   -1    0    0    0    0  0.00000000000E+00  0.00000000000E+00  0.74505805969E-08  0.10566000000E+00  0.10566000000E+00 0. -1.
     999900   -1    0    0    0    0 -0.00000000000E+00 -0.00000000000E+00 -0.74505805969E-08  0.93827000000E+00  0.93827000000E+00 0. -1.
     999902    2    1    2    0    0  0.86349349288E-02  0.11589307221E-01 -0.18947627309E-01  0.10200996260E+01  0.10198212394E+01 0.  0.
     999903    2    3    3    0    0 -0.98449443896E-01  0.64222784810E-01 -0.55148757691E-01  0.13130951076E+00  0.19594464767E-01 0.  0.
         14    1    1    2    0    0 -0.86349349288E-02 -0.11589307221E-01  0.18947627309E-01  0.23830373973E-01  0.00000000000E+00 0. -1.
     999901    1    3    3    0    0  0.10708437882E+00 -0.52633477589E-01  0.36201130383E-01  0.88879011526E+00  0.88000000000E+00 0.  1.
        -11    1    4    4    0    0 -0.40252089844E-01  0.30525361690E-01 -0.33668546700E-01  0.60711288909E-01  0.51100000000E-03 0. -1.
         11    1    4    4    0    0 -0.58197354051E-01  0.33697423120E-01 -0.21480210991E-01  0.70598221852E-01  0.51100000000E-03 0.  1.
</event>
<event>
 8    1  0.1122465E+005  0.1043930E+01  0.7957747E-01            NaN
         13   -1    0    0    0    0  0.00000000000E+00  0.00000000000E+00  0.74505805969E-08  0.10566000000E+00  0.10566000000E+00 0. -1.
     999900   -1    0    0    0    0 -0.00000000000E+00 -0.00000000000E+00 -0.74505805969E-08  0.93827000000E+00  0.93827000000E+00 0. -1.
     999902    2    1    2    0    0  0.69546102614E-02 -0.18388462755E-01  0.13564154713E-01  0.10200450998E+01  0.10197654226E+01 0.  0.
     999903    2    3    3    0    0  0.12626895219E+00 -0.23908114876E-01 -0.19772231098E-01  0.13135072408E+00  0.18617877134E-01 0.  0.
         14    1    1    2    0    0 -0.69546102614E-02  0.18388462755E-01 -0.13564154713E-01  0.23884900239E-01  0.00000000000E+00 0. -1.
     999901    1    3    3    0    0 -0.11931434193E+00  0.55196521208E-02  0.33336385810E-01  0.88869437568E+00  0.88000000000E+00 0.  1.
        -11    1    4    4    0    0  0.34165287138E-01 -0.14752895642E-01 -0.36281725501E-02  0.37394378349E-01  0.51100000000E-03 0.  1.
         11    1    4    4    0    0  0.92103665054E-01 -0.91552192336E-02 -0.16144058548E-01  0.93956345730E-01  0.51100000000E-03 0. -1.
</event>
<event>
 8    1  0.1122465E+005  0.1043930E+01  0.7957747E-01            NaN
         13   -1    0    0    0    0  0.00000000000E+00  0.00000000000E+00  0.74505805969E-08  0.10566000000E+00  0.10566000000E+00 0. -1.
     999900   -1    0    0    0    0 -0.00000000000E+00 -0.00000000000E+00 -0.74505805969E-08  0.93827000000E+00  0.93827000000E+00 0.  1.
     999902    2    1    2    0    0 -0.21142039157E-01 -0.15091267335E-01 -0.73379669004E-02  0.10169378173E+01  0.10165795327E+01 0.  0.
     999903    2    3    3    0    0 -0.90178616932E-02 -0.11059469742E+00  0.62426402591E-01  0.12894290284E+00  0.20413415291E-01 0.  0.
         14    1    1    2    0    0  0.21142039157E-01  0.15091267335E-01  0.73379669004E-02  0.26992182715E-01  0.00000000000E+00 0. -1.
     999901    1    3    3    0    0 -0.12124177464E-01  0.95503430086E-01 -0.69764369492E-01  0.88799491445E+00  0.88000000000E+00 0.  1.
        -11    1    4    4    0    0  0.23666494232E-02 -0.64791469794E-01  0.28547804729E-01  0.70843305001E-01  0.51100000000E-03 0.  1.
         11    1    4    4    0    0 -0.11384511116E-01 -0.45803227627E-01  0.33878597862E-01  0.58099597834E-01  0.51100000000E-03 0. -1.
</event>
<event>
 8    1  0.1122465E+005  0.1043930E+01  0.7957747E-01            NaN
         13   -1    0    0    0    0  0.00000000000E+00  0.00000000000E+00  0.74505805969E-08  0.10566000000E+00  0.10566000000E+00 0. -1.
     999900   -1    0    0    0    0 -0.00000000000E+00 -0.00000000000E+00 -0.74505805969E-08  0.93827000000E+00  0.93827000000E+00 0.  1.
     999902    2    1    2    0    0 -0.29264873833E-02 -0.24069127706E-01  0.42559632623E-05  0.10196836136E+01  0.10193953034E+01 0.  0.
     999903    2    3    3    0    0  0.49306735037E-01 -0.12264160001E+00  0.24978370700E-02  0.13263735786E+00  0.10691741476E-01 0.  0.
         14    1    1    2    0    0  0.29264873833E-02  0.24069127706E-01 -0.42559632623E-05  0.24246386432E-01  0.00000000000E+00 0.  1.
     999901    1    3    3    0    0 -0.52233222421E-01  0.98572472307E-01 -0.24935811068E-02  0.88704625571E+00  0.88000000000E+00 0. -1.
        -11    1    4    4    0    0  0.93541016970E-02 -0.36045763440E-01  0.96201085348E-03  0.37255642075E-01  0.51100000000E-03 0.  1.
         11    1    4    4    0    0  0.39952633340E-01 -0.86595836573E-01  0.15358262166E-02  0.95381715784E-01  0.51100000000E-03 0. -1.
</event>
<event>
 8    1  0.1122465E+005  0.1043930E+01  0.7957747E-01            NaN
         13   -1    0    0    0    0  0.00000000000E+00  0.00000000000E+00  0.74505805969E-08  0.10566000000E+00  0.10566000000E+00 0. -1.
     999900   -1    0    0    0    0 -0.00000000000E+00 -0.00000000000E+00 -0.74505805969E-08  0.93827000000E+00  0.93827000000E+00 0. -1.
     999902    2    1    2    0    0  0.16982214342E-01 -0.27487946859E-02  0.16084592746E-01  0.10203786603E+01  0.10201068301E+01 0.  0.
     999903    2    3    3    0    0 -0.45773070430E-02 -0.11945522254E+00  0.51705291013E-01  0.13169759414E+00  0.19501724350E-01 0.  0.
         14    1    1    2    0    0 -0.16982214342E-01  0.27487946859E-02 -0.16084592746E-01  0.23551339664E-01  0.00000000000E+00 0.  1.
     999901    1    3    3    0    0  0.21559521385E-01  0.11670642785E+00 -0.35620698267E-01  0.88868106619E+00  0.88000000000E+00 0. -1.
        -11    1    4    4    0    0 -0.99164373016E-02 -0.10815816896E+00  0.46019206699E-01  0.11795996671E+00  0.51100000000E-03 0. -1.
         11    1    4    4    0    0  0.53391302587E-02 -0.11297053583E-01  0.56860843142E-02  0.13737627430E-01  0.51100000000E-03 0.  1.
</event>
<event>
 8    1  0.1122465E+005  0.1043930E+01  0.7957747E-01            NaN
         13   -1    0    0    0    0  0.00000000000E+00  0.00000000000E+00  0.74505805969E-08  0.10566000000E+00  0.10566000000E+00 0. -1.
     999900   -1    0    0    0    0 -0.00000000000E+00 -0.00000000000E+00 -0.74505805969E-08  0.93827000000E+00  0.93827000000E+00 0.  1.
     999902    2    1    2    0    0  0.34330427588E-02  0.43013598849E-02 -0.23648211452E-01  0.10196498562E+01  0.10193607329E+01 0.  0.
     999903    2    3    3    0    0 -0.42333725362E-01  0.64730407636E-01 -0.10563134915E+00  0.13259433269E+00  0.21002503681E-01 0.  0.
         14    1    1    2    0    0 -0.34330427588E-02 -0.43013598849E-02  0.23648211452E-01  0.24280143828E-01  0.00000000000E+00 0. -1.
     999901    1    3    3    0    0  0.45766768121E-01 -0.60429047752E-01  0.81983137702E-01  0.88705552348E+00  0.88000000000E+00 0. -1.
        -11    1    4    4    0    0 -0.60066977129E-02  0.66380362132E-03 -0.12200092448E-01  0.13624405653E-01  0.51100000000E-03 0.  1.
         11    1    4    4    0    0 -0.36327027649E-01  0.64066604015E-01 -0.93431256707E-01  0.11896992703E+00  0.51100000000E-03 0. -1.
</event>
<event>
 8    1  0.1122465E+005  0.1043930E+01  0.7957747E-01            NaN
         13   -1    0    0    0    0  0.00000000000E+00  0.00000000000E+00  0.74505805969E-08  0.10566000000E+00  0.10566000000E+00 0.  1.
     999900   -1    0    0    0    0 -0.00000000000E+00 -0.00000000000E+00 -0.74505805969E-08  0.93827000000E+00  0.93827000000E+00 0. -1.
     999902    2    1    2    0    0 -0.20097702603E-01  0.10338268048E-01  0.10314436254E-01  0.10190867910E+01  0.10187839332E+01 0.  0.
     999903    2    3    3    0    0  0.40961520273E-01  0.43524535985E-01  0.11404424684E+00  0.13027329504E+00  0.19819429541E-01 0.  0.
         14    1    1    2    0    0  0.20097702603E-01 -0.10338268048E-01 -0.10314436254E-01  0.24843208959E-01  0.00000000000E+00 0. -1.
     999901    1    3    3    0    0 -0.61059222876E-01 -0.33186267936E-01 -0.10372981058E+00  0.88881349601E+00  0.88000000000E+00 0. -1.
        -11    1    4    4    0    0  0.34476717928E-01  0.39595313767E-01  0.82219559318E-01  0.97553831328E-01  0.51100000000E-03 0. -1.
         11    1    4    4    0    0  0.64848023456E-02  0.39292222179E-02  0.31824687518E-01  0.32719463707E-01  0.51100000000E-03 0.  1.
</event>
<event>
 8    1  0.1122465E+005  0.1043930E+01  0.7957747E-01            NaN
         13   -1    0    0    0    0  0.00000000000E+00  0.00000000000E+00  0.74505805969E-08  0.10566000000E+00  0.10566000000E+00 0. -1.
     999900   -1    0    0    0    0 -0.00000000000E+00 -0.00000000000E+00 -0.74505805969E-08  0.93827000000E+00  0.93827000000E+00 0. -1.
     999902    2    1    2    0    0  0.23397851621E-03  0.17915074857E-01 -0.15991767175E-01  0.10199145618E+01  0.10196317826E+01 0.  0.
     999903    2    3    3    0    0 -0.69118594187E-01  0.14914805472E-01 -0.10973327303E+00  0.13221740014E+00  0.20981377590E-01 0.  0.
         14    1    1    2    0    0 -0.23397851621E-03 -0.17915074857E-01  0.15991767175E-01  0.24015438169E-01  0.00000000000E+00 0. -1.
     999901    1    3    3    0    0  0.69352572703E-01  0.30002693850E-02  0.93741505853E-01  0.88769716169E+00  0.88000000000E+00 0.  1.
        -11    1    4    4    0    0 -0.41568405030E-01  0.17587073710E-01 -0.57497815080E-01  0.73099229260E-01  0.51100000000E-03 0. -1.
         11    1    4    4    0    0 -0.27550189157E-01 -0.26722682381E-02 -0.52235457948E-01  0.59118170879E-01  0.51100000000E-03 0.  1.
</event>
<event>
 8    1  0.1122465E+005  0.1043930E+01  0.7957747E-01            NaN
         13   -1    0    0    0    0  0.00000000000E+00  0.00000000000E+00  0.74505805969E-08  0.10566000000E+00  0.10566000000E+00 0. -1.
     999900   -1    0    0    0    0 -0.00000000000E+00 -0.00000000000E+00 -0.74505805969E-08  0.93827000000E+00  0.93827000000E+00 0. -1.
     999902    2    1    2    0    0 -0.20988859526E-01  0.43822715963E-02  0.10181043842E-01  0.10201941583E+01  0.10199180018E+01 0.  0.
     999903    2    3    3    0    0  0.58580224784E-01 -0.73278645335E-01 -0.84869056440E-01  0.12811962173E+00  0.20260259940E-01 0.  0.
         14    1    1    2    0    0  0.20988859526E-01 -0.43822715963E-02 -0.10181043842E-01  0.23735841722E-01  0.00000000000E+00 0.  1.
     999901    1    3    3    0    0 -0.79569084310E-01  0.77660916931E-01  0.95050100282E-01  0.89207453655E+00  0.88000000000E+00 0.  1.
        -11    1    4    4    0    0  0.22914492008E-01 -0.39798524689E-01 -0.50928268258E-01  0.68578029573E-01  0.51100000000E-03 0.  1.
         11    1    4    4    0    0  0.35665732776E-01 -0.33480120647E-01 -0.33940788183E-01  0.59541592155E-01  0.51100000000E-03 0. -1.
</event>
<event>
 8    1  0.1122465E+005  0.1043930E+01  0.7957747E-01            NaN
         13   -1    0    0    0    0  0.00000000000E+00  0.00000000000E+00  0.74505805969E-08  0.10566000000E+00  0.10566000000E+00 0. -1.
     999900   -1    0    0    0    0 -0.00000000000E+00 -0.00000000000E+00 -0.74505805969E-08  0.93827000000E+00  0.93827000000E+00 0. -1.
     999902    2    1    2    0    0  0.42870350102E-02 -0.19868576756E-01  0.14294325543E-01  0.10190811217E+01  0.10187781239E+01 0.  0.
     999903    2    3    3    0    0 -0.45412695935E-01 -0.26424431651E-01  0.11877714167E+00  0.13148340798E+00  0.20477149459E-01 0.  0.
         14    1    1    2    0    0 -0.42870350102E-02  0.19868576756E-01 -0.14294325543E-01  0.24848878329E-01  0.00000000000E+00 0. -1.
     999901    1    3    3    0    0  0.49699730945E-01  0.65558548948E-02 -0.10448281613E+00  0.88759771369E+00  0.88000000000E+00 0. -1.
        -11    1    4    4    0    0 -0.25523253970E-01 -0.25689502709E-01  0.82566393548E-01  0.90160176948E-01  0.51100000000E-03 0. -1.
         11    1    4    4    0    0 -0.19889441964E-01 -0.73492894165E-03  0.36210748121E-01  0.41323231029E-01  0.51100000000E-03 0.  1.
</event>
<event>
 8    1  0.1122465E+005  0.1043930E+01  0.7957747E-01            NaN
         13   -1    0    0    0    0  0.00000000000E+00  0.00000000000E+00  0.74505805969E-08  0.10566000000E+00  0.10566000000E+00 0. -1.
     999900   -1    0    0    0    0 -0.00000000000E+00 -0.00000000000E+00 -0.74505805969E-08  0.93827000000E+00  0.93827000000E+00 0. -1.
     999902    2    1    2    0    0 -0.47106030367E-02 -0.21927183044E-01 -0.88386354051E-02  0.10198237225E+01  0.10195387744E+01 0.  0.
     999903    2    3    3    0    0 -0.36858766712E-01 -0.13907676838E-01 -0.12397882820E+00  0.13170487863E+00  0.20577489057E-01 0.  0.
         14    1    1    2    0    0  0.47106030367E-02  0.21927183044E-01  0.88386354051E-02  0.24106277461E-01  0.00000000000E+00 0. -1.
     999901    1    3    3    0    0  0.32148163675E-01 -0.80195062059E-02  0.11514019279E+00  0.88811884391E+00  0.88000000000E+00 0.  1.
        -11    1    4    4    0    0 -0.14412845439E-01 -0.16134631482E-01 -0.53833507909E-01  0.58020376951E-01  0.51100000000E-03 0.  1.
         11    1    4    4    0    0 -0.22445921273E-01  0.22269546440E-02 -0.70145320287E-01  0.73684501681E-01  0.51100000000E-03 0. -1.
</event>
<event>
 8    1  0.1122465E+005  0.1043930E+01  0.7957747E-01            NaN
         13   -1    0    0    0    0  0.00000000000E+00  0.00000000000E+00  0.74505805969E-08  0.10566000000E+00  0.10566000000E+00 0.  1.
     999900   -1    0    0    0    0 -0.00000000000E+00 -0.00000000000E+00 -0.74505805969E-08  0.93827000000E+00  0.93827000000E+00 0. -1.
     999902    2    1    2    0    0 -0.13256074673E-01  0.46255320076E-02  0.19671219292E-01  0.10197623371E+01  0.10194759184E+01 0.  0.
     999903    2    3    3    0    0 -0.13205268957E-01 -0.12494595728E+00  0.28063533282E-01  0.13023481961E+00  0.19689463405E-01 0.  0.
         14    1    1    2    0    0  0.13256074673E-01 -0.46255320076E-02 -0.19671219292E-01  0.24167662910E-01  0.00000000000E+00 0. -1.
     999901    1    3    3    0    0 -0.50805716457E-04  0.12957148929E+00 -0.83923139901E-02  0.88952751748E+00  0.88000000000E+00 0. -1.
        -11    1    4    4    0    0 -0.82603689953E-03 -0.91493021839E-01  0.19757776975E-01  0.93607084423E-01  0.51100000000E-03 0. -1.
         11    1    4    4    0    0 -0.12379232057E-01 -0.33452935444E-01  0.83057563071E-02  0.36627735188E-01  0.51100000000E-03 0.  1.
</event>
<event>
 8    1  0.1122465E+005  0.1043930E+01  0.7957747E-01            NaN
         13   -1    0    0    0    0  0.00000000000E+00  0.00000000000E+00  0.74505805969E-08  0.10566000000E+00  0.10566000000E+00 0.  1.
     999900   -1    0    0    0    0 -0.00000000000E+00 -0.00000000000E+00 -0.74505805969E-08  0.93827000000E+00  0.93827000000E+00 0. -1.
     999902    2    1    2    0    0  0.42351906051E-02  0.11674696211E-01  0.24463309516E-01  0.10164948240E+01  0.10161245191E+01 0.  0.
     999903    2    3    3    0    0 -0.19860569781E-01 -0.11317031870E+00 -0.44221191622E-01  0.12470760490E+00  0.19862267352E-01 0.  0.
         14    1    1    2    0    0 -0.42351906051E-02 -0.11674696211E-01 -0.24463309516E-01  0.27435176025E-01  0.00000000000E+00 0. -1.
     999901    1    3    3    0    0  0.24095760386E-01  0.12484501491E+00  0.68684501137E-01  0.89178721908E+00  0.88000000000E+00 0.  1.
        -11    1    4    4    0    0 -0.50434569105E-02 -0.41070230844E-01 -0.26018371447E-01  0.48881664180E-01  0.51100000000E-03 0. -1.
         11    1    4    4    0    0 -0.14817112871E-01 -0.72100087852E-01 -0.18202820175E-01  0.75825940716E-01  0.51100000000E-03 0.  1.
</event>
<event>
 8    1  0.1122465E+005  0.1043930E+01  0.7957747E-01            NaN
         13   -1    0    0    0    0  0.00000000000E+00  0.00000000000E+00  0.74505805969E-08  0.10566000000E+00  0.10566000000E+00 0. -1.
     999900   -1    0    0    0    0 -0.00000000000E+00 -0.00000000000E+00 -0.74505805969E-08  0.93827000000E+00  0.93827000000E+00 0. -1.
     999902    2    1    2    0    0  0.22269624210E-01 -0.78764706016E-02  0.56076493106E-03  0.10203018513E+01  0.10200282243E+01 0.  0.
     999903    2    3    3    0    0 -0.49216453187E-01  0.11024876583E+00 -0.39884615110E-01  0.12861824181E+00  0.19360267910E-01 0.  0.
         14    1    1    2    0    0 -0.22269624210E-01  0.78764706016E-02 -0.56076493106E-03  0.23628148656E-01  0.00000000000E+00 0.  1.
     999901    1    3    3    0    0  0.71486077397E-01 -0.11812523643E+00  0.40445380041E-01  0.89168360953E+00  0.88000000000E+00 0.  1.
        -11    1    4    4    0    0 -0.14684955805E-01  0.53866744512E-01 -0.22936767426E-01  0.60362492595E-01  0.51100000000E-03 0. -1.
         11    1    4    4    0    0 -0.34531497382E-01  0.56382021315E-01 -0.16947847684E-01  0.68255749217E-01  0.51100000000E-03 0.  1.
</event>
<event>
 8    1  0.1122465E+005  0.1043930E+01  0.7957747E-01            NaN
         13   -1    0    0    0    0  0.00000000000E+00  0.00000000000E+00  0.74505805969E-08  0.10566000000E+00  0.10566000000E+00 0. -1.
     999900   -1    0    0    0    0 -0.00000000000E+00 -0.00000000000E+00 -0.74505805969E-08  0.93827000000E+00  0.93827000000E+00 0.  1.
     999902    2    1    2    0    0  0.17983757576E-01  0.52912871621E-02 -0.11910505935E-01  0.10217202407E+01  0.10214788186E+01 0.  0.
     999903    2    3    3    0    0 -0.12332954075E+00  0.51315820550E-02  0.32048585040E-01  0.12936275882E+00  0.21704902918E-01 0.  0.
         14    1    1    2    0    0 -0.17983757576E-01 -0.52912871621E-02  0.11910505935E-01  0.22209759297E-01  0.00000000000E+00 0. -1.
     999901    1    3    3    0    0  0.14131329833E+00  0.15970510711E-03 -0.43959090975E-01  0.89235748188E+00  0.88000000000E+00 0.  1.
        -11    1    4    4    0    0 -0.63702843933E-02 -0.46595363333E-02  0.29377093749E-02  0.84370053611E-02  0.51100000000E-03 0. -1.
         11    1    4    4    0    0 -0.11695925636E+00  0.97911183883E-02  0.29110875665E-01  0.12092575346E+00  0.51100000000E-03 0.  1.
</event>
<event>
 8    1  0.1122465E+005  0.1043930E+01  0.7957747E-01            NaN
         13   -1    0    0    0    0  0.00000000000E+00  0.00000000000E+00  0.74505805969E-08  0.10566000000E+00  0.10566000000E+00 0. -1.
     999900   -1    0    0    0    0 -0.00000000000E+00 -0.00000000000E+00 -0.74505805969E-08  0.93827000000E+00  0.93827000000E+00 0.  1.
     999902    2    1    2    0    0 -0.19720098945E-01  0.16574364340E-01 -0.17072502777E-03  0.10181691576E+01  0.10178432160E+01 0.  0.
     999903    2    3    3    0    0 -0.42310739726E-01 -0.13748209874E-01 -0.11970545713E+00  0.12928314253E+00  0.20137589323E-01 0.  0.
         14    1    1    2    0    0  0.19720098945E-01 -0.16574364340E-01  0.17072502777E-03  0.25760842430E-01  0.00000000000E+00 0. -1.
     999901    1    3    3    0    0  0.22590640781E-01  0.30322574214E-01  0.11953473210E+00  0.88888601504E+00  0.88000000000E+00 0. -1.
        -11    1    4    4    0    0 -0.27685527016E-01 -0.35244378966E-02 -0.49341775255E-01  0.56690228214E-01  0.51100000000E-03 0. -1.
         11    1    4    4    0    0 -0.14625212710E-01 -0.10223771977E-01 -0.70363681877E-01  0.72592914314E-01  0.51100000000E-03 0.  1.
</event>
<event>
 8    1  0.1122465E+005  0.1043930E+01  0.7957747E-01            NaN
         13   -1    0    0    0    0  0.00000000000E+00  0.00000000000E+00  0.74505805969E-08  0.10566000000E+00  0.10566000000E+00 0.  1.
     999900   -1    0    0    0    0 -0.00000000000E+00 -0.00000000000E+00 -0.74505805969E-08  0.93827000000E+00  0.93827000000E+00 0. -1.
     999902    2    1    2    0    0 -0.57665821200E-02  0.45850455395E-02  0.22374351332E-01  0.10203739454E+01  0.10201020050E+01 0.  0.
     999903    2    3    3    0    0 -0.10737200273E+00 -0.72026496758E-01 -0.52681322702E-02  0.13079140462E+00  0.19028271108E-01 0.  0.
         14    1    1    2    0    0  0.57665821200E-02 -0.45850455395E-02 -0.22374351332E-01  0.23556054625E-01  0.00000000000E+00 0. -1.
     999901    1    3    3    0    0  0.10160542061E+00  0.76611542297E-01  0.27642483602E-01  0.88958254075E+00  0.88000000000E+00 0.  1.
        -11    1    4    4    0    0 -0.44440490121E-01 -0.32890423603E-01  0.67953357490E-02  0.55706147201E-01  0.51100000000E-03 0.  1.
         11    1    4    4    0    0 -0.62931512605E-01 -0.39136073155E-01 -0.12063468019E-01  0.75085257424E-01  0.51100000000E-03 0. -1.
</event>
<event>
 8    1  0.1122465E+005  0.1043930E+01  0.7957747E-01            NaN
         13   -1    0    0    0    0  0.00000000000E+00  0.00000000000E+00  0.74505805969E-08  0.10566000000E+00  0.10566000000E+00 0. -1.
     999900   -1    0    0    0    0 -0.00000000000E+00 -0.00000000000E+00 -0.74505805969E-08  0.93827000000E+00  0.93827000000E+00 0. -1.
     999902    2    1    2    0    0  0.92316057755E-02  0.18800501277E-02  0.21086143242E-01  0.10208349232E+01  0.10205736416E+01 0.  0.
     999903    2    3    3    0    0  0.63930237069E-01 -0.88989189670E-01  0.72465701624E-01  0.13297850578E+00  0.20636230223E-01 0.  0.
         14    1    1    2    0    0 -0.92316057755E-02 -0.18800501277E-02 -0.21086143242E-01  0.23095076759E-01  0.00000000000E+00 0.  1.
     999901    1    3    3    0    0 -0.54698631294E-01  0.90869239798E-01 -0.51379558381E-01  0.88785641746E+00  0.88000000000E+00 0. -1.
        -11    1    4    4    0    0  0.44078049718E-01 -0.46884472541E-01  0.35225386593E-01  0.73362914433E-01  0.51100000000E-03 0.  1.
         11    1    4    4    0    0  0.19852187351E-01 -0.42104717129E-01  0.37240315030E-01  0.59615591347E-01  0.51100000000E-03 0. -1.
</event>
<event>
 8    1  0.1122465E+005  0.1043930E+01  0.7957747E-01            NaN
         13   -1    0    0    0    0  0.00000000000E+00  0.00000000000E+00  0.74505805969E-08  0.10566000000E+00  0.10566000000E+00 0. -1.
     999900   -1    0    0    0    0 -0.00000000000E+00 -0.00000000000E+00 -0.74505805969E-08  0.93827000000E+00  0.93827000000E+00 0. -1.
     999902    2    1    2    0    0  0.90938823995E-03 -0.39257148467E-02 -0.22844436954E-01  0.10207328768E+01  0.10204692545E+01 0.  0.
     999903    2    3    3    0    0  0.95861707147E-01  0.73631295322E-01 -0.45624737331E-01  0.13194157692E+00  0.26756840551E-01 0.  0.
         14    1    1    2    0    0 -0.90938823995E-03  0.39257148467E-02  0.22844436954E-01  0.23197123178E-01  0.00000000000E+00 0. -1.
     999901    1    3    3    0    0 -0.94952318907E-01 -0.77557010168E-01  0.22780300377E-01  0.88879129990E+00  0.88000000000E+00 0.  1.
        -11    1    4    4    0    0  0.72307343802E-01  0.68260969548E-01 -0.39626116703E-01  0.10704392639E+00  0.51100000000E-03 0. -1.
         11    1    4    4    0    0  0.23554363345E-01  0.53703257736E-02 -0.59986206281E-02  0.24897650531E-01  0.51100000000E-03 0.  1.
</event>
<event>
 8    1  0.1122465E+005  0.1043930E+01  0.7957747E-01            NaN
         13   -1    0    0    0    0  0.00000000000E+00  0.00000000000E+00  0.74505805969E-08  0.10566000000E+00  0.10566000000E+00 0.  1.
     999900   -1    0    0    0    0 -0.00000000000E+00 -0.00000000000E+00 -0.74505805969E-08  0.93827000000E+00  0.93827000000E+00 0. -1.
     999902    2    1    2    0    0  0.16757361800E-01 -0.24436098441E-02  0.16722299957E-01  0.10201305101E+01  0.10198528531E+01 0.  0.
     999903    2    3    3    0    0 -0.84299627897E-01  0.64898099897E-01  0.72072380908E-01  0.13006812324E+00  0.20127045502E-01 0.  0.
         14    1    1    2    0    0 -0.16757361800E-01  0.24436098441E-02 -0.16722299957E-01  0.23799489898E-01  0.00000000000E+00 0. -1.
     999901    1    3    3    0    0  0.10105698970E+00 -0.67341709741E-01 -0.55350080952E-01  0.89006238686E+00  0.88000000000E+00 0.  1.
        -11    1    4    4    0    0 -0.19519744263E-01  0.19016174658E-01  0.28813493709E-01  0.39662499359E-01  0.51100000000E-03 0.  1.
         11    1    4    4    0    0 -0.64779883634E-01  0.45881925239E-01  0.43258887200E-01  0.90405623885E-01  0.51100000000E-03 0. -1.
</event>
<event>
 8    1  0.1122465E+005  0.1043930E+01  0.7957747E-01            NaN
         13   -1    0    0    0    0  0.00000000000E+00  0.00000000000E+00  0.74505805969E-08  0.10566000000E+00  0.10566000000E+00 0. -1.
     999900   -1    0    0    0    0 -0.00000000000E+00 -0.00000000000E+00 -0.74505805969E-08  0.93827000000E+00  0.93827000000E+00 0.  1.
     999902    2    1    2    0    0 -0.22746410632E-01 -0.30770062426E-02  0.41976051239E-02  0.10205957536E+01  0.10203289692E+01 0.  0.
     999903    2    3    3    0    0 -0.68560466226E-01 -0.10056206670E-01  0.11168653384E+00  0.13284494023E+00  0.19293301462E-01 0.  0.
         14    1    1    2    0    0  0.22746410632E-01  0.30770062426E-02 -0.41976051239E-02  0.23334246352E-01  0.00000000000E+00 0. -1.
     999901    1    3    3    0    0  0.45814055594E-01  0.69792004278E-02 -0.10748892872E+00  0.88775081342E+00  0.88000000000E+00 0.  1.
        -11    1    4    4    0    0 -0.25331855914E-02 -0.36250148130E-02  0.14546057091E-01  0.15212056387E-01  0.51100000000E-03 0.  1.
         11    1    4    4    0    0 -0.66027280634E-01 -0.64311918574E-02  0.97140476750E-01  0.11763288384E+00  0.51100000000E-03 0. -1.
</event>
<event>
 8    1  0.1122465E+005  0.1043930E+01  0.7957747E-01            NaN
         13   -1    0    0    0    0  0.00000000000E+00  0.00000000000E+00  0.74505805969E-08  0.10566000000E+00  0.10566000000E+00 0.  1.
     999900   -1    0    0    0    0 -0.00000000000E+00 -0.00000000000E+00 -0.74505805969E-08  0.93827000000E+00  0.93827000000E+00 0. -1.
     999902    2    1    2    0    0 -0.15608328868E-01  0.37883734458E-02 -0.15496051026E-01  0.10216118616E+01  0.10213680514E+01 0.  0.
     999903    2    3    3    0    0  0.27970231711E-01  0.95606175129E-01 -0.85782472892E-01  0.13297820215E+00  0.20042330351E-01 0.  0.
         14    1    1    2    0    0  0.15608328868E-01 -0.37883734458E-02  0.15496051026E-01  0.22318138381E-01  0.00000000000E+00 0.  1.
     999901    1    3    3    0    0 -0.43578560579E-01 -0.91817801683E-01  0.70286421866E-01  0.88863365947E+00  0.88000000000E+00 0.  1.
        -11    1    4    4    0    0  0.11128660289E-01  0.70263440018E-01 -0.61690132971E-01  0.94163324654E-01  0.51100000000E-03 0.  1.
         11    1    4    4    0    0  0.16841571422E-01  0.25342735112E-01 -0.24092339921E-01  0.38814877492E-01  0.51100000000E-03 0. -1.
</event>
<event>
 8    1  0.1122465E+005  0.1043930E+01  0.7957747E-01            NaN
         13   -1    0    0    0    0  0.00000000000E+00  0.00000000000E+00  0.74505805969E-08  0.10566000000E+00  0.10566000000E+00 0.  1.
     999900   -1    0    0    0    0 -0.00000000000E+00 -0.00000000000E+00 -0.74505805969E-08  0.93827000000E+00  0.93827000000E+00 0.  1.
     999902    2    1    2    0    0 -0.13704725797E-01  0.57874817082E-02  0.17992393001E-01  0.10205838941E+01  0.10203168352E+01 0.  0.
     999903    2    3    3    0    0 -0.13093765121E+00 -0.42061590567E-02  0.73064122061E-02  0.13268884298E+00  0.19763226285E-01 0.  0.
         14    1    1    2    0    0  0.13704725797E-01 -0.57874817082E-02 -0.17992393001E-01  0.23346105876E-01  0.00000000000E+00 0. -1.
     999901    1    3    3    0    0  0.11723292542E+00  0.99936407650E-02  0.10685980795E-01  0.88789505114E+00  0.88000000000E+00 0.  1.
        -11    1    4    4    0    0 -0.53752112264E-01  0.67129207564E-02 -0.18071232570E-02  0.54202211149E-01  0.51100000000E-03 0.  1.
         11    1    4    4    0    0 -0.77185538949E-01 -0.10919079813E-01  0.91135354631E-02  0.78486631833E-01  0.51100000000E-03 0. -1.
</event>
<event>
 8    1  0.1122465E+005  0.1043930E+01  0.7957747E-01            NaN
         13   -1    0    0    0    0  0.00000000000E+00  0.00000000000E+00  0.74505805969E-08  0.10566000000E+00  0.10566000000E+00 0. -1.
     999900   -1    0    0    0    0 -0.00000000000E+00 -0.00000000000E+00 -0.74505805969E-08  0.93827000000E+00  0.93827000000E+00 0. -1.
     999902    2    1    2    0    0  0.64443421960E-02  0.13407664585E-01  0.51518054697E-03  0.10290450940E+01  0.10289374349E+01 0.  0.
     999903    2    3    3    0    0  0.55640701984E-01  0.10481004365E+00  0.71135292010E-01  0.14013459408E+00  0.22280972173E-01 0.  0.
         14    1    1    2    0    0 -0.64443421960E-02 -0.13407664585E-01 -0.51518054697E-03  0.14884906011E-01  0.00000000000E+00 0. -1.
     999901    1    3    3    0    0 -0.49196359788E-01 -0.91402379061E-01 -0.70620111463E-01  0.88891049991E+00  0.88000000000E+00 0. -1.
        -11    1    4    4    0    0  0.33522866178E-01  0.49785197408E-01  0.46451094236E-01  0.75896730591E-01  0.51100000000E-03 0. -1.
         11    1    4    4    0    0  0.22117835807E-01  0.55024846238E-01  0.24684197775E-01  0.64237863484E-01  0.51100000000E-03 0.  1.
</event>
<event>
 8    1  0.1122465E+005  0.1043930E+01  0.7957747E-01            NaN
         13   -1    0    0    0    0  0.00000000000E+00  0.00000000000E+00  0.74505805969E-08  0.10566000000E+00  0.10566000000E+00 0. -1.
     999900   -1    0    0    0    0 -0.00000000000E+00 -0.00000000000E+00 -0.74505805969E-08  0.93827000000E+00  0.93827000000E+00 0.  1.
     999902    2    1    2    0    0  0.17277007420E-01  0.42764989028E-03  0.17343013966E-01  0.10194461685E+01  0.10191521145E+01 0.  0.
     999903    2    3    3    0    0  0.40229748953E-01 -0.11199680134E+00 -0.47502003076E-01  0.12963104065E+00  0.19648160012E-01 0.  0.
         14    1    1    2    0    0 -0.17277007420E-01 -0.42764989028E-03 -0.17343013966E-01  0.24483831466E-01  0.00000000000E+00 0.  1.
     999901    1    3    3    0    0 -0.22952741533E-01  0.11242445123E+00  0.64845017042E-01  0.88981512789E+00  0.88000000000E+00 0. -1.
        -11    1    4    4    0    0  0.23747837323E-01 -0.40042121613E-01 -0.22346882684E-01  0.51642768782E-01  0.51100000000E-03 0. -1.
         11    1    4    4    0    0  0.16481911630E-01 -0.71954679728E-01 -0.25155120392E-01  0.77988271866E-01  0.51100000000E-03 0.  1.
</event>
<event>
 8    1  0.1122465E+005  0.1043930E+01  0.7957747E-01            NaN
         13   -1    0    0    0    0  0.00000000000E+00  0.00000000000E+00  0.74505805969E-08  0.10566000000E+00  0.10566000000E+00 0. -1.
     999900   -1    0    0    0    0 -0.00000000000E+00 -0.00000000000E+00 -0.74505805969E-08  0.93827000000E+00  0.93827000000E+00 0.  1.
     999902    2    1    2    0    0  0.91750281445E-02  0.20807308181E-01 -0.75409848738E-02  0.10199718768E+01  0.10196904617E+01 0.  0.
     999903    2    3    3    0    0  0.49890150785E-01 -0.11581190867E+00 -0.14690611793E-01  0.12847109227E+00  0.19687105894E-01 0.  0.
         14    1    1    2    0    0 -0.91750281445E-02 -0.20807308181E-01  0.75409848738E-02  0.23958123216E-01  0.00000000000E+00 0.  1.
     999901    1    3    3    0    0 -0.40715122641E-01  0.13661921685E+00  0.71496269192E-02  0.89150078451E+00  0.88000000000E+00 0.  1.
        -11    1    4    4    0    0  0.17808496262E-01 -0.50860433622E-01 -0.15313566504E-01  0.56024036694E-01  0.51100000000E-03 0.  1.
         11    1    4    4    0    0  0.32081654523E-01 -0.64951475049E-01  0.62295471123E-03  0.72447055576E-01  0.51100000000E-03 0. -1.
</event>
<event>
 8    1  0.1122465E+005  0.1043930E+01  0.7957747E-01            NaN
         13   -1    0    0    0    0  0.00000000000E+00  0.00000000000E+00  0.74505805969E-08  0.10566000000E+00  0.10566000000E+00 0.  1.
     999900   -1    0    0    0    0 -0.00000000000E+00 -0.00000000000E+00 -0.74505805969E-08  0.93827000000E+00  0.93827000000E+00 0.  1.
     999902    2    1    2    0    0 -0.45775286123E-02 -0.12329588937E-01 -0.19656936838E-01  0.10202790445E+01  0.10200048828E+01 0.  0.
     999903    2    3    3    0    0  0.42760203525E-01 -0.81924236970E-01  0.88711975951E-01  0.12964550750E+00  0.19953128304E-01 0.  0.
         14    1    1    2    0    0  0.45775286123E-02  0.12329588937E-01  0.19656936838E-01  0.23650955529E-01  0.00000000000E+00 0.  1.
     999901    1    3    3    0    0 -0.47337732138E-01  0.69594648033E-01 -0.10836891279E+00  0.89063353697E+00  0.88000000000E+00 0.  1.
        -11    1    4    4    0    0  0.35444395115E-01 -0.74752243513E-01  0.85313236640E-01  0.11883944010E+00  0.51100000000E-03 0. -1.
         11    1    4    4    0    0  0.73158084100E-02 -0.71719934572E-02  0.33987393117E-02  0.10806067404E-01  0.51100000000E-03 0.  1.
</event>
<event>
 8    1  0.1122465E+005  0.1043930E+01  0.7957747E-01            NaN
         13   -1    0    0    0    0  0.00000000000E+00  0.00000000000E+00  0.74505805969E-08  0.10566000000E+00  0.10566000000E+00 0. -1.
     999900   -1    0    0    0    0 -0.00000000000E+00 -0.00000000000E+00 -0.74505805969E-08  0.93827000000E+00  0.93827000000E+00 0.  1.
     999902    2    1    2    0    0  0.19113758403E-01  0.54471652588E-02  0.12195313651E-01  0.10206119159E+01  0.10203455052E+01 0.  0.
     999903    2    3    3    0    0  0.16085612191E-01  0.26753297205E-01  0.12760936957E+00  0.13281490916E+00  0.19523397839E-01 0.  0.
         14    1    1    2    0    0 -0.19113758403E-01 -0.54471652588E-02 -0.12195313651E-01  0.23318084070E-01  0.00000000000E+00 0.  1.
     999901    1    3    3    0    0  0.30281462121E-02 -0.21306131946E-01 -0.11541405591E+00  0.88779700677E+00  0.88000000000E+00 0.  1.
        -11    1    4    4    0    0  0.71687910051E-02  0.24629330382E-01  0.71596653520E-01  0.76054831509E-01  0.51100000000E-03 0.  1.
         11    1    4    4    0    0  0.89168211856E-02  0.21239668231E-02  0.56012716046E-01  0.56760077651E-01  0.51100000000E-03 0. -1.
</event>
<event>
 8    1  0.1122465E+005  0.1043930E+01  0.7957747E-01            NaN
         13   -1    0    0    0    0  0.00000000000E+00  0.00000000000E+00  0.74505805969E-08  0.10566000000E+00  0.10566000000E+00 0.  1.
     999900   -1    0    0    0    0 -0.00000000000E+00 -0.00000000000E+00 -0.74505805969E-08  0.93827000000E+00  0.93827000000E+00 0.  1.
     999902    2    1    2    0    0  0.13218355785E-01  0.19059569765E-01  0.57021690447E-02  0.10200447145E+01  0.10197650282E+01 0.  0.
     999903    2    3    3    0    0 -0.81154324180E-01  0.98496467072E-01  0.23018501126E-01  0.13127237096E+00  0.20371686816E-01 0.  0.
         14    1    1    2    0    0 -0.13218355785E-01 -0.19059569765E-01 -0.57021690447E-02  0.23885285451E-01  0.00000000000E+00 0.  1.
     999901    1    3    3    0    0  0.94372679965E-01 -0.79436897307E-01 -0.17316332081E-01  0.88877234359E+00  0.88000000000E+00 0. -1.
        -11    1    4    4    0    0 -0.48019798978E-01  0.70213167677E-01  0.21201396344E-01  0.87667270615E-01  0.51100000000E-03 0. -1.
         11    1    4    4    0    0 -0.33134525202E-01  0.28283299395E-01  0.18171047819E-02  0.43605100342E-01  0.51100000000E-03 0.  1.
</event>
<event>
 8    1  0.1122465E+005  0.1043930E+01  0.7957747E-01            NaN
         13   -1    0    0    0    0  0.00000000000E+00  0.00000000000E+00  0.74505805969E-08  0.10566000000E+00  0.10566000000E+00 0.  1.
     999900   -1    0    0    0    0 -0.00000000000E+00 -0.00000000000E+00 -0.74505805969E-08  0.93827000000E+00  0.93827000000E+00 0. -1.
     999902    2    1    2    0    0 -0.47923452377E-02 -0.17734852946E-01 -0.25644881627E-01  0.10123839775E+01  0.10118923690E+01 0.  0.
     999903    2    3    3    0    0 -0.82126726384E-01 -0.67567126601E-01  0.59308598983E-01  0.12351899570E+00  0.20719956596E-01 0.  0.
         14    1    1    2    0    0  0.47923452377E-02  0.17734852946E-01  0.25644881627E-01  0.31546022500E-01  0.00000000000E+00 0.  1.
     999901    1    3    3    0    0  0.77334381146E-01  0.49832273654E-01 -0.84953480610E-01  0.88886498180E+00  0.88000000000E+00 0. -1.
        -11    1    4    4    0    0 -0.21456739882E-01 -0.68901359479E-02  0.12435765632E-01  0.25744417795E-01  0.51100000000E-03 0.  1.
         11    1    4    4    0    0 -0.60669986502E-01 -0.60676990653E-01  0.46872833351E-01  0.97774577904E-01  0.51100000000E-03 0. -1.
</event>
<event>
 8    1  0.1122465E+005  0.1043930E+01  0.7957747E-01            NaN
         13   -1    0    0    0    0  0.00000000000E+00  0.00000000000E+00  0.74505805969E-08  0.10566000000E+00  0.10566000000E+00 0.  1.
     999900   -1    0    0    0    0 -0.00000000000E+00 -0.00000000000E+00 -0.74505805969E-08  0.93827000000E+00  0.93827000000E+00 0. -1.
     999902    2    1    2    0    0  0.95720748284E-02 -0.86804523959E-02 -0.19491030465E-01  0.10205446384E+01  0.10202766702E+01 0.  0.
     999903    2    3    3    0    0  0.30391225013E-02  0.10516475780E+00 -0.76036879948E-01  0.13138725947E+00  0.20301287868E-01 0.  0.
         14    1    1    2    0    0 -0.95720748284E-02  0.86804523959E-02  0.19491030465E-01  0.23385361637E-01  0.00000000000E+00 0.  1.
     999901    1    3    3    0    0  0.65329523270E-02 -0.11384521020E+00  0.56545849484E-01  0.88915737890E+00  0.88000000000E+00 0.  1.
        -11    1    4    4    0    0  0.64890875125E-02  0.62727445879E-01 -0.34415574263E-01  0.71843813903E-01  0.51100000000E-03 0.  1.
         11    1    4    4    0    0 -0.34499650111E-02  0.42437311922E-01 -0.41621305685E-01  0.59543445564E-01  0.51100000000E-03 0. -1.
</event>
<event>
 8    1  0.1122465E+005  0.1043930E+01  0.7957747E-01            NaN
         13   -1    0    0    0    0  0.00000000000E+00  0.00000000000E+00  0.74505805969E-08  0.10566000000E+00  0.10566000000E+00 0. -1.
     999900   -1    0    0    0    0 -0.00000000000E+00 -0.00000000000E+00 -0.74505805969E-08  0.93827000000E+00  0.93827000000E+00 0. -1.
     999902    2    1    2    0    0 -0.13014713755E-01 -0.13971604746E-01 -0.14731893554E-01  0.10198132589E+01  0.10195280603E+01 0.  0.
     999903    2    3    3    0    0 -0.11657421611E+00 -0.10695253636E-01 -0.58902461546E-01  0.13263439076E+00  0.20455936142E-01 0.  0.
         14    1    1    2    0    0  0.13014713755E-01  0.13971604746E-01  0.14731893554E-01  0.24116741094E-01  0.00000000000E+00 0. -1.
     999901    1    3    3    0    0  0.10355950236E+00 -0.32763511100E-02  0.44170567992E-01  0.88717886814E+00  0.88000000000E+00 0.  1.
        -11    1    4    4    0    0 -0.66111668311E-01 -0.30789688285E-02 -0.43963941345E-01  0.79456415697E-01  0.51100000000E-03 0. -1.
         11    1    4    4    0    0 -0.50462547804E-01 -0.76162848072E-02 -0.14938520201E-01  0.53177975064E-01  0.51100000000E-03 0.  1.
</event>
<event>
 8    1  0.1122465E+005  0.1043930E+01  0.7957747E-01            NaN
         13   -1    0    0    0    0  0.00000000000E+00  0.00000000000E+00  0.74505805969E-08  0.10566000000E+00  0.10566000000E+00 0. -1.
     999900   -1    0    0    0    0 -0.00000000000E+00 -0.00000000000E+00 -0.74505805969E-08  0.93827000000E+00  0.93827000000E+00 0.  1.
     999902    2    1    2    0    0 -0.53498200754E-02  0.28103738709E-01 -0.87146941853E-02  0.10140237030E+01  0.10135825984E+01 0.  0.
     999903    2    3    3    0    0  0.90096838428E-01 -0.20377722313E-01  0.78880624601E-01  0.12321875436E+00  0.20688562729E-01 0.  0.
         14    1    1    2    0    0  0.53498200754E-02 -0.28103738709E-01  0.87146941853E-02  0.29906296979E-01  0.00000000000E+00 0.  1.
     999901    1    3    3    0    0 -0.95446658503E-01  0.48481461022E-01 -0.87595318786E-01  0.89080494866E+00  0.88000000000E+00 0.  1.
        -11    1    4    4    0    0  0.52603847123E-01 -0.21598680681E-01  0.52089925571E-01  0.77118669635E-01  0.51100000000E-03 0. -1.
         11    1    4    4    0    0  0.37492991305E-01  0.12209583684E-02  0.26790699030E-01  0.46100084727E-01  0.51100000000E-03 0.  1.
</event>
<event>
 8    1  0.1122465E+005  0.1043930E+01  0.7957747E-01            NaN
         13   -1    0    0    0    0  0.00000000000E+00  0.00000000000E+00  0.74505805969E-08  0.10566000000E+00  0.10566000000E+00 0.  1.
     999900   -1    0    0    0    0 -0.00000000000E+00 -0.00000000000E+00 -0.74505805969E-08  0.93827000000E+00  0.93827000000E+00 0.  1.
     999902    2    1    2    0    0 -0.12334412305E-01 -0.17588354421E-01  0.89009871430E-02  0.10206767097E+01  0.10204117944E+01 0.  0.
     999903    2    3    3    0    0 -0.10464600744E+00 -0.78081715724E-01  0.21310855936E-01  0.13369594203E+00  0.19310907047E-01 0.  0.
         14    1    1    2    0    0  0.12334412305E-01  0.17588354421E-01 -0.89009871430E-02  0.23253290310E-01  0.00000000000E+00 0. -1.
     999901    1    3    3    0    0  0.92311595133E-01  0.60493361304E-01 -0.12409868793E-01  0.88698076766E+00  0.88000000000E+00 0.  1.
        -11    1    4    4    0    0 -0.82908367814E-01 -0.56258048765E-01  0.23149043600E-01  0.10283435635E+00  0.51100000000E-03 0. -1.
         11    1    4    4    0    0 -0.21737639623E-01 -0.21823666959E-01 -0.18381876638E-02  0.30861585682E-01  0.51100000000E-03 0.  1.
</event>
<event>
 8    1  0.1122465E+005  0.1043930E+01  0.7957747E-01            NaN
         13   -1    0    0    0    0  0.00000000000E+00  0.00000000000E+00  0.74505805969E-08  0.10566000000E+00  0.10566000000E+00 0. -1.
     999900   -1    0    0    0    0 -0.00000000000E+00 -0.00000000000E+00 -0.74505805969E-08  0.93827000000E+00  0.93827000000E+00 0.  1.
     999902    2    1    2    0    0 -0.78002700840E-02  0.26522165542E-01 -0.33956495373E-02  0.10160768150E+01  0.10156949808E+01 0.  0.
     999903    2    3    3    0    0 -0.56780201355E-01 -0.20482226236E-01  0.10922664331E+00  0.12630593025E+00  0.19473457562E-01 0.  0.
         14    1    1    2    0    0  0.78002700840E-02 -0.26522165542E-01  0.33956495373E-02  0.27853184992E-01  0.00000000000E+00 0.  1.
     999901    1    3    3    0    0  0.48979931271E-01  0.47004391778E-01 -0.11262229285E+00  0.88977088476E+00  0.88000000000E+00 0.  1.
        -11    1    4    4    0    0 -0.40002034157E-01 -0.17569571375E-01  0.93117548932E-01  0.10285908621E+00  0.51100000000E-03 0. -1.
         11    1    4    4    0    0 -0.16778167198E-01 -0.29126548609E-02  0.16109094382E-01  0.23446844045E-01  0.51100000000E-03 0.  1.
</event>
<event>
 8    1  0.1122465E+005  0.1043930E+01  0.7957747E-01            NaN
         13   -1    0    0    0    0  0.00000000000E+00  0.00000000000E+00  0.74505805969E-08  0.10566000000E+00  0.10566000000E+00 0. -1.
     999900   -1    0    0    0    0 -0.00000000000E+00 -0.00000000000E+00 -0.74505805969E-08  0.93827000000E+00  0.93827000000E+00 0.  1.
     999902    2    1    2    0    0  0.38482203905E-02  0.22742886128E-01  0.63310144288E-02  0.10200107731E+01  0.10197302819E+01 0.  0.
     999903    2    3    3    0    0  0.76439170581E-01 -0.62085206363E-02  0.10450721259E+00  0.13110909361E+00  0.19655645909E-01 0.  0.
         14    1    1    2    0    0 -0.38482203905E-02 -0.22742886128E-01 -0.63310144288E-02  0.23919226854E-01  0.00000000000E+00 0.  1.
     999901    1    3    3    0    0 -0.72590950191E-01  0.28951406764E-01 -0.98176198158E-01  0.88890167954E+00  0.88000000000E+00 0.  1.
        -11    1    4    4    0    0  0.39704428102E-01  0.35313590412E-02  0.65276777520E-01  0.76486802208E-01  0.51100000000E-03 0.  1.
         11    1    4    4    0    0  0.36734742479E-01 -0.97398796775E-02  0.39230435067E-01  0.54622291399E-01  0.51100000000E-03 0. -1.
</event>
<event>
 8    1  0.1122465E+005  0.1043930E+01  0.7957747E-01            NaN
         13   -1    0    0    0    0  0.00000000000E+00  0.00000000000E+00  0.74505805969E-08  0.10566000000E+00  0.10566000000E+00 0. -1.
     999900   -1    0    0    0    0 -0.00000000000E+00 -0.00000000000E+00 -0.74505805969E-08  0.93827000000E+00  0.93827000000E+00 0. -1.
     999902    2    1    2    0    0 -0.16626527185E-01 -0.16237113474E-01 -0.31425430839E-02  0.10204787562E+01  0.10202092584E+01 0.  0.
     999903    2    3    3    0    0  0.74565123007E-01 -0.38865935741E-01 -0.97566747522E-01  0.13045408738E+00  0.20699762396E-01 0.  0.
         14    1    1    2    0    0  0.16626527185E-01  0.16237113474E-01  0.31425430839E-02  0.23451243831E-01  0.00000000000E+00 0. -1.
     999901    1    3    3    0    0 -0.91191650191E-01  0.22628822268E-01  0.94424204438E-01  0.89002466878E+00  0.88000000000E+00 0.  1.
        -11    1    4    4    0    0  0.31231509727E-01 -0.16076721474E-01 -0.25846114619E-01  0.43613655374E-01  0.51100000000E-03 0. -1.
         11    1    4    4    0    0  0.43333613279E-01 -0.22789214268E-01 -0.71720632902E-01  0.86840432010E-01  0.51100000000E-03 0.  1.
</event>
<event>
 8    1  0.1538631E+005  0.1043930E+01  0.7957747E-01            NaN
         13   -1    0    0    0    0  0.00000000000E+00  0.00000000000E+00  0.74505805969E-08  0.10566000000E+00  0.10566000000E+00 0.  1.
     999900   -1    0    0    0    0 -0.00000000000E+00 -0.00000000000E+00 -0.74505805969E-08  0.93827000000E+00  0.93827000000E+00 0.  1.
     999902    2    1    2    0    0 -0.20436563405E-01  0.13513353307E-01  0.22441226459E-01  0.10107054235E+01  0.10101591857E+01 0.  0.
     999903    2    3    3    0    0  0.11434240043E+00  0.11215885823E-01  0.28409531474E-01  0.12042104860E+00  0.22229413743E-01 0.  0.
         14    1    1    2    0    0  0.20436563405E-01 -0.13513353307E-01 -0.22441226459E-01  0.33224576542E-01  0.00000000000E+00 0. -1.
     999901    1    3    3    0    0 -0.13477896384E+00  0.22974674837E-02 -0.59683050149E-02  0.89028437486E+00  0.88000000000E+00 0.  1.
        -11    1    4    4    0    0  0.52904349794E-01  0.16196638975E-01  0.11687016930E-01  0.56551293769E-01  0.51100000000E-03 0.  1.
         11    1    4    4    0    0  0.61438050641E-01 -0.49807531520E-02  0.16722514544E-01  0.63869754831E-01  0.51100000000E-03 0. -1.
</event>
<event>
 8    1  0.1122465E+005  0.1043930E+01  0.7957747E-01            NaN
         13   -1    0    0    0    0  0.00000000000E+00  0.00000000000E+00  0.74505805969E-08  0.10566000000E+00  0.10566000000E+00 0. -1.
     999900   -1    0    0    0    0 -0.00000000000E+00 -0.00000000000E+00 -0.74505805969E-08  0.93827000000E+00  0.93827000000E+00 0.  1.
     999902    2    1    2    0    0 -0.16108479882E-01 -0.14158878404E-01  0.10543916740E-01  0.10200316498E+01  0.10197516538E+01 0.  0.
     999903    2    3    3    0    0  0.47413606020E-01  0.18067884129E-01 -0.11590202785E+00  0.12814477552E+00  0.20329903082E-01 0.  0.
         14    1    1    2    0    0  0.16108479882E-01  0.14158878404E-01 -0.10543916740E-01  0.23898350194E-01  0.00000000000E+00 0. -1.
     999901    1    3    3    0    0 -0.63522085902E-01 -0.32226762533E-01  0.12644594459E+00  0.89188687429E+00  0.88000000000E+00 0. -1.
        -11    1    4    4    0    0  0.45855271401E-01  0.11092312009E-01 -0.95455028413E-01  0.10647849018E+00  0.51100000000E-03 0. -1.
         11    1    4    4    0    0  0.15583346195E-02  0.69755721193E-02 -0.20446999441E-01  0.21666285338E-01  0.51100000000E-03 0.  1.
</event>
<event>
 8    1  0.1122465E+005  0.1043930E+01  0.7957747E-01            NaN
         13   -1    0    0    0    0  0.00000000000E+00  0.00000000000E+00  0.74505805969E-08  0.10566000000E+00  0.10566000000E+00 0.  1.
     999900   -1    0    0    0    0 -0.00000000000E+00 -0.00000000000E+00 -0.74505805969E-08  0.93827000000E+00  0.93827000000E+00 0.  1.
     999902    2    1    2    0    0  0.26707203685E-01  0.14695908819E-01 -0.21472677181E-01  0.10066430005E+01  0.10059521908E+01 0.  0.
     999903    2    3    3    0    0  0.21746816291E-02 -0.36833687234E-01 -0.11258427172E+00  0.12010001422E+00  0.19681092989E-01 0.  0.
         14    1    1    2    0    0 -0.26707203685E-01 -0.14695908819E-01  0.21472677181E-01  0.37286999477E-01  0.00000000000E+00 0.  1.
     999901    1    3    3    0    0  0.24532522055E-01  0.51529596053E-01  0.91111594538E-01  0.88654298631E+00  0.88000000000E+00 0. -1.
        -11    1    4    4    0    0  0.86458427129E-02 -0.17568645589E-01 -0.37438318127E-01  0.42252771379E-01  0.51100000000E-03 0. -1.
         11    1    4    4    0    0 -0.64711610838E-02 -0.19265041646E-01 -0.75145953592E-01  0.77847242839E-01  0.51100000000E-03 0.  1.
</event>
<event>
 8    1  0.1122465E+005  0.1043930E+01  0.7957747E-01            NaN
         13   -1    0    0    0    0  0.00000000000E+00  0.00000000000E+00  0.74505805969E-08  0.10566000000E+00  0.10566000000E+00 0. -1.
     999900   -1    0    0    0    0 -0.00000000000E+00 -0.00000000000E+00 -0.74505805969E-08  0.93827000000E+00  0.93827000000E+00 0.  1.
     999902    2    1    2    0    0 -0.94157106231E-02 -0.82135080529E-02 -0.19380325929E-01  0.10208710678E+01  0.10206106127E+01 0.  0.
     999903    2    3    3    0    0  0.10073788081E+00 -0.78359135835E-01  0.18415728735E-01  0.13043142102E+00  0.19619931864E-01 0.  0.
         14    1    1    2    0    0  0.94157106231E-02  0.82135080529E-02  0.19380325929E-01  0.23058932200E-01  0.00000000000E+00 0. -1.
     999901    1    3    3    0    0 -0.11015359143E+00  0.70145627782E-01 -0.37796054664E-01  0.89043964678E+00  0.88000000000E+00 0.  1.
        -11    1    4    4    0    0  0.36325747716E-01 -0.24830257250E-01 -0.26044543185E-02  0.44081128905E-01  0.51100000000E-03 0.  1.
         11    1    4    4    0    0  0.64412133095E-01 -0.53528878585E-01  0.21020183054E-01  0.86350292119E-01  0.51100000000E-03 0. -1.
</event>
<event>
 8    1  0.1122465E+005  0.1043930E+01  0.7957747E-01            NaN
         13   -1    0    0    0    0  0.00000000000E+00  0.00000000000E+00  0.74505805969E-08  0.10566000000E+00  0.10566000000E+00 0.  1.
     999900   -1    0    0    0    0 -0.00000000000E+00 -0.00000000000E+00 -0.74505805969E-08  0.93827000000E+00  0.93827000000E+00 0. -1.
     999902    2    1    2    0    0  0.50442697575E-02 -0.16962218572E-01  0.15968837218E-01  0.10200937822E+01  0.10198152574E+01 0.  0.
     999903    2    3    3    0    0 -0.66707787894E-01 -0.90609843093E-01  0.67440888817E-01  0.13261324582E+00  0.19440340848E-01 0.  0.
         14    1    1    2    0    0 -0.50442697575E-02  0.16962218572E-01 -0.15968837218E-01  0.23836217787E-01  0.00000000000E+00 0.  1.
     999901    1    3    3    0    0  0.71752057652E-01  0.73647624521E-01 -0.51472051599E-01  0.88748053639E+00  0.88000000000E+00 0. -1.
        -11    1    4    4    0    0 -0.59744754103E-01 -0.68162908265E-01  0.52213739765E-01  0.10460474868E+00  0.51100000000E-03 0.  1.
         11    1    4    4    0    0 -0.69630337911E-02 -0.22446934828E-01  0.15227149053E-01  0.28008497140E-01  0.51100000000E-03 0. -1.
</event>
<event>
 8    1  0.1122465E+005  0.1043930E+01  0.7957747E-01            NaN
         13   -1    0    0    0    0  0.00000000000E+00  0.00000000000E+00  0.74505805969E-08  0.10566000000E+00  0.10566000000E+00 0. -1.
     999900   -1    0    0    0    0 -0.00000000000E+00 -0.00000000000E+00 -0.74505805969E-08  0.93827000000E+00  0.93827000000E+00 0. -1.
     999902    2    1    2    0    0  0.16902373520E-02  0.23541867087E-01  0.20870444758E-02  0.10202354402E+01  0.10199602548E+01 0.  0.
     999903    2    3    3    0    0 -0.22822731899E-01  0.60494001141E-01 -0.11286304587E+00  0.13165237200E+00  0.20344008055E-01 0.  0.
         14    1    1    2    0    0 -0.16902373520E-02 -0.23541867087E-01 -0.20870444758E-02  0.23694559775E-01  0.00000000000E+00 0.  1.
     999901    1    3    3    0    0  0.24512969251E-01 -0.36952134053E-01  0.11495009035E+00  0.88858306823E+00  0.88000000000E+00 0.  1.
        -11    1    4    4    0    0  0.23078279172E-02  0.42673099198E-02 -0.17194627042E-01  0.17873229248E-01  0.51100000000E-03 0. -1.
         11    1    4    4    0    0 -0.25130559816E-01  0.56226691221E-01 -0.95668418829E-01  0.11377914275E+00  0.51100000000E-03 0.  1.
</event>
<event>
 8    1  0.1122465E+005  0.1043930E+01  0.7957747E-01            NaN
         13   -1    0    0    0    0  0.00000000000E+00  0.00000000000E+00  0.74505805969E-08  0.10566000000E+00  0.10566000000E+00 0. -1.
     999900   -1    0    0    0    0 -0.00000000000E+00 -0.00000000000E+00 -0.74505805969E-08  0.93827000000E+00  0.93827000000E+00 0.  1.
     999902    2    1    2    0    0 -0.13536626686E-01 -0.18779052334E-01  0.69395683568E-03  0.10207702365E+01  0.10205074723E+01 0.  0.
     999903    2    3    3    0    0  0.22136457483E-01  0.11795155002E+00 -0.41402234322E-01  0.12850350741E+00  0.19910186072E-01 0.  0.
         14    1    1    2    0    0  0.13536626686E-01  0.18779052334E-01 -0.69395683568E-03  0.23159763485E-01  0.00000000000E+00 0. -1.
     999901    1    3    3    0    0 -0.35673084169E-01 -0.13673060235E+00  0.42096191158E-01  0.89226672910E+00  0.88000000000E+00 0. -1.
        -11    1    4    4    0    0  0.20494728972E-01  0.85237366383E-01 -0.38062549481E-01  0.95574375946E-01  0.51100000000E-03 0.  1.
         11    1    4    4    0    0  0.16417285108E-02  0.32714183633E-01 -0.33396848410E-02  0.32929131466E-01  0.51100000000E-03 0. -1.
</event>
<event>
 8    1  0.1122465E+005  0.1043930E+01  0.7957747E-01            NaN
         13   -1    0    0    0    0  0.00000000000E+00  0.00000000000E+00  0.74505805969E-08  0.10566000000E+00  0.10566000000E+00 0.  1.
     999900   -1    0    0    0    0 -0.00000000000E+00 -0.00000000000E+00 -0.74505805969E-08  0.93827000000E+00  0.93827000000E+00 0. -1.
     999902    2    1    2    0    0 -0.12540818826E-01  0.11515313755E-01 -0.16574261683E-01  0.10201690922E+01  0.10198923453E+01 0.  0.
     999903    2    3    3    0    0  0.87457252511E-01 -0.29528308405E-01  0.85960053913E-01  0.12764599501E+00  0.19587678782E-01 0.  0.
         14    1    1    2    0    0  0.12540818826E-01 -0.11515313755E-01  0.16574261683E-01  0.23760907770E-01  0.00000000000E+00 0. -1.
     999901    1    3    3    0    0 -0.99998071337E-01  0.41043622161E-01 -0.10253431560E+00  0.89252309722E+00  0.88000000000E+00 0. -1.
        -11    1    4    4    0    0  0.54277303420E-01 -0.22248942974E-01  0.65752366132E-01  0.88117398412E-01  0.51100000000E-03 0. -1.
         11    1    4    4    0    0  0.33179949091E-01 -0.72793654314E-02  0.20207687781E-01  0.39528596601E-01  0.51100000000E-03 0.  1.
</event>
<event>
 8    1  0.1122465E+005  0.1043930E+01  0.7957747E-01            NaN
         13   -1    0    0    0    0  0.00000000000E+00  0.00000000000E+00  0.74505805969E-08  0.10566000000E+00  0.10566000000E+00 0. -1.
     999900   -1    0    0    0    0 -0.00000000000E+00 -0.00000000000E+00 -0.74505805969E-08  0.93827000000E+00  0.93827000000E+00 0.  1.
     999902    2    1    2    0    0  0.16034156558E-01 -0.14091087841E-01 -0.11741998083E-01  0.10195675812E+01  0.10192764714E+01 0.  0.
     999903    2    3    3    0    0  0.52652131560E-01 -0.11345390592E+00 -0.39689753675E-01  0.13277847277E+00  0.20268462103E-01 0.  0.
         14    1    1    2    0    0 -0.16034156558E-01  0.14091087841E-01  0.11741998083E-01  0.24362418847E-01  0.00000000000E+00 0. -1.
     999901    1    3    3    0    0 -0.36617975002E-01  0.99362818083E-01  0.27947755592E-01  0.88678910839E+00  0.88000000000E+00 0.  1.
        -11    1    4    4    0    0  0.32257129690E-01 -0.50723838310E-01 -0.12330651382E-01  0.61365595192E-01  0.51100000000E-03 0.  1.
         11    1    4    4    0    0  0.20395001871E-01 -0.62730067614E-01 -0.27359102293E-01  0.71412877575E-01  0.51100000000E-03 0. -1.
</event>
<event>
 8    1  0.1122465E+005  0.1043930E+01  0.7957747E-01            NaN
         13   -1    0    0    0    0  0.00000000000E+00  0.00000000000E+00  0.74505805969E-08  0.10566000000E+00  0.10566000000E+00 0. -1.
     999900   -1    0    0    0    0 -0.00000000000E+00 -0.00000000000E+00 -0.74505805969E-08  0.93827000000E+00  0.93827000000E+00 0. -1.
     999902    2    1    2    0    0 -0.93440417650E-02  0.16609454701E-01  0.91626370364E-02  0.10227843380E+01  0.10225657256E+01 0.  0.
     999903    2    3    3    0    0 -0.12341110008E-02  0.13338852502E+00  0.59824756160E-02  0.13502691866E+00  0.20061333759E-01 0.  0.
         14    1    1    2    0    0  0.93440417650E-02 -0.16609454701E-01 -0.91626370364E-02  0.21145661953E-01  0.00000000000E+00 0.  1.
     999901    1    3    3    0    0 -0.81099307642E-02 -0.11677907032E+00  0.31801614203E-02  0.88775741938E+00  0.88000000000E+00 0.  1.
        -11    1    4    4    0    0  0.11621437204E-02  0.66981678084E-02 -0.40273441161E-02  0.79181217246E-02  0.51100000000E-03 0.  1.
         11    1    4    4    0    0 -0.23962547212E-02  0.12669035721E+00  0.10009819732E-01  0.12710879694E+00  0.51100000000E-03 0. -1.
</event>
<event>
 8    1  0.1122465E+005  0.1043930E+01  0.7957747E-01            NaN
         13   -1    0    0    0    0  0.00000000000E+00  0.00000000000E+00  0.74505805969E-08  0.10566000000E+00  0.10566000000E+00 0.  1.
     999900   -1    0    0    0    0 -0.00000000000E+00 -0.00000000000E+00 -0.74505805969E-08  0.93827000000E+00  0.93827000000E+00 0.  1.
     999902    2    1    2    0    0 -0.69030215101E-02  0.21425098497E-01  0.69203219092E-02  0.10203805328E+01  0.10201087463E+01 0.  0.
     999903    2    3    3    0    0 -0.18938903072E-01  0.12590212849E+00 -0.33724828059E-01  0.13318701360E+00  0.19783542550E-01 0.  0.
         14    1    1    2    0    0  0.69030215101E-02 -0.21425098497E-01 -0.69203219092E-02  0.23549467231E-01  0.00000000000E+00 0. -1.
     999901    1    3    3    0    0  0.12035881562E-01 -0.10447702999E+00  0.40645149968E-01  0.88719351917E+00  0.88000000000E+00 0. -1.
        -11    1    4    4    0    0 -0.81813607845E-02  0.70400010635E-01 -0.28562478886E-01  0.76414478227E-01  0.51100000000E-03 0. -1.
         11    1    4    4    0    0 -0.10757542287E-01  0.55502117855E-01 -0.51623491731E-02  0.56772535371E-01  0.51100000000E-03 0.  1.
</event>
<event>
 8    1  0.1122465E+005  0.1043930E+01  0.7957747E-01            NaN
         13   -1    0    0    0    0  0.00000000000E+00  0.00000000000E+00  0.74505805969E-08  0.10566000000E+00  0.10566000000E+00 0.  1.
     999900   -1    0    0    0    0 -0.00000000000E+00 -0.00000000000E+00 -0.74505805969E-08  0.93827000000E+00  0.93827000000E+00 0.  1.
     999902    2    1    2    0    0  0.12878369106E-01  0.21779597073E-01  0.62951165207E-02  0.10178564170E+01  0.10175224095E+01 0.  0.
     999903    2    3    3    0    0  0.24023136791E-01 -0.11424800961E+00  0.44663398237E-01  0.12650921153E+00  0.19494682804E-01 0.  0.
         14    1    1    2    0    0 -0.12878369106E-01 -0.21779597073E-01 -0.62951165207E-02  0.26073583020E-01  0.00000000000E+00 0.  1.
     999901    1    3    3    0    0 -0.11144767685E-01  0.13602760668E+00 -0.38368281717E-01  0.89134720545E+00  0.88000000000E+00 0.  1.
        -11    1    4    4    0    0  0.47809248924E-02 -0.44590427034E-01  0.26116712472E-01  0.51899009791E-01  0.51100000000E-03 0. -1.
         11    1    4    4    0    0  0.19242211899E-01 -0.69657582577E-01  0.18546685766E-01  0.74610201736E-01  0.51100000000E-03 0.  1.
</event>
<event>
 8    1  0.1122465E+005  0.1043930E+01  0.7957747E-01            NaN
         13   -1    0    0    0    0  0.00000000000E+00  0.00000000000E+00  0.74505805969E-08  0.10566000000E+00  0.10566000000E+00 0. -1.
     999900   -1    0    0    0    0 -0.00000000000E+00 -0.00000000000E+00 -0.74505805969E-08  0.93827000000E+00  0.93827000000E+00 0. -1.
     999902    2    1    2    0    0  0.21708368379E-01  0.76116520205E-02  0.59740109837E-02  0.10201628102E+01  0.10198859152E+01 0.  0.
     999903    2    3    3    0    0 -0.10793236411E+00 -0.50187238963E-01  0.34762462525E-01  0.12832414414E+00  0.33022764766E-01 0.  0.
         14    1    1    2    0    0 -0.21708368379E-01 -0.76116520205E-02 -0.59740109837E-02  0.23767189809E-01  0.00000000000E+00 0.  1.
     999901    1    3    3    0    0  0.12964073249E+00  0.57798890983E-01 -0.28788451542E-01  0.89183866605E+00  0.88000000000E+00 0. -1.
        -11    1    4    4    0    0 -0.68591355516E-01 -0.17078107493E-01  0.10489236406E-01  0.71461325263E-01  0.51100000000E-03 0. -1.
         11    1    4    4    0    0 -0.39341008590E-01 -0.33109131470E-01  0.24273226119E-01  0.56862818879E-01  0.51100000000E-03 0.  1.
</event>
<event>
 8    1  0.1122465E+005  0.1043930E+01  0.7957747E-01            NaN
         13   -1    0    0    0    0  0.00000000000E+00  0.00000000000E+00  0.74505805969E-08  0.10566000000E+00  0.10566000000E+00 0.  1.
     999900   -1    0    0    0    0 -0.00000000000E+00 -0.00000000000E+00 -0.74505805969E-08  0.93827000000E+00  0.93827000000E+00 0.  1.
     999902    2    1    2    0    0  0.57435464139E-02 -0.60220866416E-04  0.22956774615E-01  0.10202655657E+01  0.10199910877E+01 0.  0.
     999903    2    3    3    0    0  0.60010427418E-01  0.76085047662E-01  0.90214478502E-01  0.13275973749E+00  0.98137603223E-02 0.  0.
         14    1    1    2    0    0 -0.57435464139E-02  0.60220866416E-04 -0.22956774615E-01  0.23664434341E-01  0.00000000000E+00 0. -1.
     999901    1    3    3    0    0 -0.54266881004E-01 -0.76145268528E-01 -0.67257703887E-01  0.88750582816E+00  0.88000000000E+00 0.  1.
        -11    1    4    4    0    0  0.17354031942E-01  0.27950484584E-01  0.34374300718E-01  0.47584090661E-01  0.51100000000E-03 0. -1.
         11    1    4    4    0    0  0.42656395475E-01  0.48134563078E-01  0.55840177784E-01  0.85175646834E-01  0.51100000000E-03 0.  1.
</event>
<event>
 8    1  0.1122465E+005  0.1043930E+01  0.7957747E-01            NaN
         13   -1    0    0    0    0  0.00000000000E+00  0.00000000000E+00  0.74505805969E-08  0.10566000000E+00  0.10566000000E+00 0. -1.
     999900   -1    0    0    0    0 -0.00000000000E+00 -0.00000000000E+00 -0.74505805969E-08  0.93827000000E+00  0.93827000000E+00 0. -1.
     999902    2    1    2    0    0  0.15917356971E-01 -0.16138673298E-01 -0.71193455990E-02  0.10201707048E+01  0.10198939958E+01 0.  0.
     999903    2    3    3    0    0  0.88867776566E-01  0.92822996481E-01 -0.10227868649E-01  0.13044935955E+00  0.19970871845E-01 0.  0.
         14    1    1    2    0    0 -0.15917356971E-01  0.16138673298E-01  0.71193455990E-02  0.23759295244E-01  0.00000000000E+00 0.  1.
     999901    1    3    3    0    0 -0.72950419595E-01 -0.10896166978E+00  0.31085230501E-02  0.88972134521E+00  0.88000000000E+00 0.  1.
        -11    1    4    4    0    0  0.57810515380E-01  0.46103529070E-01 -0.57507049755E-02  0.74168206193E-01  0.51100000000E-03 0. -1.
         11    1    4    4    0    0  0.31057261186E-01  0.46719467411E-01 -0.44771636736E-02  0.56281153356E-01  0.51100000000E-03 0.  1.
</event>
<event>
 8    1  0.1122465E+005  0.1043930E+01  0.7957747E-01            NaN
         13   -1    0    0    0    0  0.00000000000E+00  0.00000000000E+00  0.74505805969E-08  0.10566000000E+00  0.10566000000E+00 0.  1.
     999900   -1    0    0    0    0 -0.00000000000E+00 -0.00000000000E+00 -0.74505805969E-08  0.93827000000E+00  0.93827000000E+00 0. -1.
     999902    2    1    2    0    0  0.65982451861E-02  0.20417366091E-01 -0.12640809586E-01  0.10190262705E+01  0.10187219170E+01 0.  0.
     999903    2    3    3    0    0  0.11382959681E+00  0.23656191935E-01 -0.58080347337E-01  0.13134738463E+00  0.19026722667E-01 0.  0.
         14    1    1    2    0    0 -0.65982451861E-02 -0.20417366091E-01  0.12640809586E-01  0.24903729533E-01  0.00000000000E+00 0.  1.
     999901    1    3    3    0    0 -0.10723135163E+00 -0.32388258443E-02  0.45439537751E-01  0.88767888583E+00  0.88000000000E+00 0.  1.
        -11    1    4    4    0    0  0.35732130799E-01  0.80591405021E-02 -0.87428253971E-02  0.37662090144E-01  0.51100000000E-03 0. -1.
         11    1    4    4    0    0  0.78097466015E-01  0.15597051433E-01 -0.49337521940E-01  0.93685294489E-01  0.51100000000E-03 0.  1.
</event>
<event>
 8    1  0.1122465E+005  0.1043930E+01  0.7957747E-01            NaN
         13   -1    0    0    0    0  0.00000000000E+00  0.00000000000E+00  0.74505805969E-08  0.10566000000E+00  0.10566000000E+00 0. -1.
     999900   -1    0    0    0    0 -0.00000000000E+00 -0.00000000000E+00 -0.74505805969E-08  0.93827000000E+00  0.93827000000E+00 0.  1.
     999902    2    1    2    0    0 -0.18267582900E-01  0.73675100908E-02  0.18368208139E-01  0.10169971973E+01  0.10166405085E+01 0.  0.
     999903    2    3    3    0    0  0.33591734540E-01 -0.11880292771E+00  0.18932399658E-01  0.12648684562E+00  0.19948586289E-01 0.  0.
         14    1    1    2    0    0  0.18267582900E-01 -0.73675100908E-02 -0.18368208139E-01  0.26932802680E-01  0.00000000000E+00 0.  1.
     999901    1    3    3    0    0 -0.51859317440E-01  0.12617043780E+00 -0.56419151839E-03  0.89051035170E+00  0.88000000000E+00 0. -1.
        -11    1    4    4    0    0  0.18677966493E-01 -0.58610738126E-01  0.19292993246E-01  0.64471433715E-01  0.51100000000E-03 0.  1.
         11    1    4    4    0    0  0.14913768047E-01 -0.60192189585E-01 -0.36059358802E-03  0.62015411900E-01  0.51100000000E-03 0. -1.
</event>
<event>
 8    1  0.1122465E+005  0.1043930E+01  0.7957747E-01            NaN
         13   -1    0    0    0    0  0.00000000000E+00  0.00000000000E+00  0.74505805969E-08  0.10566000000E+00  0.10566000000E+00 0. -1.
     999900   -1    0    0    0    0 -0.00000000000E+00 -0.00000000000E+00 -0.74505805969E-08  0.93827000000E+00  0.93827000000E+00 0.  1.
     999902    2    1    2    0    0  0.77561586105E-02  0.17292363452E-01 -0.14525187744E-01  0.10200518738E+01  0.10197723571E+01 0.  0.
     999903    2    3    3    0    0  0.84641721027E-01 -0.91754830288E-01 -0.29650047771E-01  0.12986569019E+00  0.20069936100E-01 0.  0.
         14    1    1    2    0    0 -0.77561586105E-02 -0.17292363452E-01  0.14525187744E-01  0.23878126165E-01  0.00000000000E+00 0. -1.
     999901    1    3    3    0    0 -0.76885562416E-01  0.10904719374E+00  0.15124860027E-01  0.89018618365E+00  0.88000000000E+00 0.  1.
        -11    1    4    4    0    0  0.17665771479E-01 -0.25325002719E-01  0.32456408227E-03  0.30883680278E-01  0.51100000000E-03 0. -1.
         11    1    4    4    0    0  0.66975949547E-01 -0.66429827569E-01 -0.29974611853E-01  0.98982009908E-01  0.51100000000E-03 0.  1.
</event>
<event>
 8    1  0.1122465E+005  0.1043930E+01  0.7957747E-01            NaN
         13   -1    0    0    0    0  0.00000000000E+00  0.00000000000E+00  0.74505805969E-08  0.10566000000E+00  0.10566000000E+00 0. -1.
     999900   -1    0    0    0    0 -0.00000000000E+00 -0.00000000000E+00 -0.74505805969E-08  0.93827000000E+00  0.93827000000E+00 0.  1.
     999902    2    1    2    0    0 -0.29659390880E-01 -0.16399886921E-02 -0.45486449482E-03  0.10142218205E+01  0.10137866270E+01 0.  0.
     999903    2    3    3    0    0  0.57305001324E-02  0.11822609093E+00 -0.33566092312E-01  0.12477442188E+00  0.20778031499E-01 0.  0.
         14    1    1    2    0    0  0.29659390880E-01  0.16399886921E-02  0.45486449482E-03  0.29708179547E-01  0.00000000000E+00 0.  1.
     999901    1    3    3    0    0 -0.35389891012E-01 -0.11986607962E+00  0.33111227817E-01  0.88944739858E+00  0.88000000000E+00 0. -1.
        -11    1    4    4    0    0 -0.52194196236E-02  0.72473576488E-01 -0.25699590708E-01  0.77073936669E-01  0.51100000000E-03 0. -1.
         11    1    4    4    0    0  0.10949919756E-01  0.45752514442E-01 -0.78665016037E-02  0.47700485206E-01  0.51100000000E-03 0.  1.
</event>
<event>
 8    1  0.1122465E+005  0.1043930E+01  0.7957747E-01            NaN
         13   -1    0    0    0    0  0.00000000000E+00  0.00000000000E+00  0.74505805969E-08  0.10566000000E+00  0.10566000000E+00 0.  1.
     999900   -1    0    0    0    0 -0.00000000000E+00 -0.00000000000E+00 -0.74505805969E-08  0.93827000000E+00  0.93827000000E+00 0. -1.
     999902    2    1    2    0    0 -0.19223064516E-01 -0.10276526505E-01  0.99683023825E-02  0.10199612650E+01  0.10196795976E+01 0.  0.
     999903    2    3    3    0    0 -0.94280651452E-02  0.71034270562E-01  0.10780363518E+00  0.13075985917E+00  0.18486779208E-01 0.  0.
         14    1    1    2    0    0  0.19223064516E-01  0.10276526505E-01 -0.99683023825E-02  0.23968735026E-01  0.00000000000E+00 0. -1.
     999901    1    3    3    0    0 -0.97949993705E-02 -0.81310797066E-01 -0.97835332802E-01  0.88920140580E+00  0.88000000000E+00 0.  1.
        -11    1    4    4    0    0 -0.47187415022E-02  0.44002154308E-02  0.15694051078E-01  0.16976241558E-01  0.51100000000E-03 0. -1.
         11    1    4    4    0    0 -0.47093236431E-02  0.66634055131E-01  0.92109584106E-01  0.11378361762E+00  0.51100000000E-03 0.  1.
</event>
<event>
 8    1  0.1122465E+005  0.1043930E+01  0.7957747E-01            NaN
         13   -1    0    0    0    0  0.00000000000E+00  0.00000000000E+00  0.74505805969E-08  0.10566000000E+00  0.10566000000E+00 0. -1.
     999900   -1    0    0    0    0 -0.00000000000E+00 -0.00000000000E+00 -0.74505805969E-08  0.93827000000E+00  0.93827000000E+00 0.  1.
     999902    2    1    2    0    0  0.95470759312E-02  0.57370996984E-03  0.21662881957E-01  0.10202497074E+01  0.10199748572E+01 0.  0.
     999903    2    3    3    0    0  0.41747593886E-01 -0.10162571254E+00  0.71067654674E-01  0.13237447582E+00  0.20043534221E-01 0.  0.
         14    1    1    2    0    0 -0.95470759312E-02 -0.57370996984E-03 -0.21662881957E-01  0.23680292579E-01  0.00000000000E+00 0.  1.
     999901    1    3    3    0    0 -0.32200517955E-01  0.10219942251E+00 -0.49404772718E-01  0.88787523160E+00  0.88000000000E+00 0.  1.
        -11    1    4    4    0    0  0.31369037085E-01 -0.51545125463E-01  0.42304951929E-01  0.73694548817E-01  0.51100000000E-03 0. -1.
         11    1    4    4    0    0  0.10378556801E-01 -0.50080587077E-01  0.28762702745E-01  0.58679927006E-01  0.51100000000E-03 0.  1.
</event>
<event>
 8    1  0.1122465E+005  0.1043930E+01  0.7957747E-01            NaN
         13   -1    0    0    0    0  0.00000000000E+00  0.00000000000E+00  0.74505805969E-08  0.10566000000E+00  0.10566000000E+00 0. -1.
     999900   -1    0    0    0    0 -0.00000000000E+00 -0.00000000000E+00 -0.74505805969E-08  0.93827000000E+00  0.93827000000E+00 0.  1.
     999902    2    1    2    0    0 -0.65494541419E-02 -0.22746043953E-01  0.22735180776E-02  0.10201508758E+01  0.10198736993E+01 0.  0.
     999903    2    3    3    0    0 -0.12936841902E+00 -0.85910094706E-02 -0.67391702776E-02  0.13146302748E+00  0.20666830753E-01 0.  0.
         14    1    1    2    0    0  0.65494541419E-02  0.22746043953E-01 -0.22735180776E-02  0.23779124238E-01  0.00000000000E+00 0. -1.
     999901    1    3    3    0    0  0.12281896488E+00 -0.14155034483E-01  0.90126883552E-02  0.88868784828E+00  0.88000000000E+00 0.  1.
        -11    1    4    4    0    0 -0.85967011069E-01 -0.10202499650E-01  0.41955724157E-02  0.86673421186E-01  0.51100000000E-03 0.  1.
         11    1    4    4    0    0 -0.43401407954E-01  0.16114901792E-02 -0.10934742693E-01  0.44789606292E-01  0.51100000000E-03 0. -1.
</event>
<event>
 8    1  0.1122465E+005  0.1043930E+01  0.7957747E-01            NaN
         13   -1    0    0    0    0  0.00000000000E+00  0.00000000000E+00  0.74505805969E-08  0.10566000000E+00  0.10566000000E+00 0.  1.
     999900   -1    0    0    0    0 -0.00000000000E+00 -0.00000000000E+00 -0.74505805969E-08  0.93827000000E+00  0.93827000000E+00 0. -1.
     999902    2    1    2    0    0  0.21141676704E-01  0.78428688050E-02  0.37428502885E-02  0.10210719595E+01  0.10208160738E+01 0.  0.
     999903    2    3    3    0    0 -0.61695213088E-01  0.11081491989E+00 -0.24789554194E-01  0.13074657424E+00  0.19846886186E-01 0.  0.
         14    1    1    2    0    0 -0.21141676704E-01 -0.78428688050E-02 -0.37428502885E-02  0.22858040450E-01  0.00000000000E+00 0. -1.
     999901    1    3    3    0    0  0.82836889791E-01 -0.10297205108E+00  0.28532404482E-01  0.89032538531E+00  0.88000000000E+00 0.  1.
        -11    1    4    4    0    0 -0.73467163840E-02  0.29731095585E-01 -0.34168884100E-02  0.30819612809E-01  0.51100000000E-03 0.  1.
         11    1    4    4    0    0 -0.54348496704E-01  0.81083824305E-01 -0.21372665784E-01  0.99926961435E-01  0.51100000000E-03 0. -1.
</event>
<event>
 8    1  0.1122465E+005  0.1043930E+01  0.7957747E-01            NaN
         13   -1    0    0    0    0  0.00000000000E+00  0.00000000000E+00  0.74505805969E-08  0.10566000000E+00  0.10566000000E+00 0.  1.
     999900   -1    0    0    0    0 -0.00000000000E+00 -0.00000000000E+00 -0.74505805969E-08  0.93827000000E+00  0.93827000000E+00 0.  1.
     999902    2    1    2    0    0  0.88568420148E-02 -0.19522747002E-01  0.11049944283E-01  0.10198119037E+01  0.10195266727E+01 0.  0.
     999903    2    3    3    0    0 -0.12741010788E+00 -0.71523697783E-02  0.17211649101E-02  0.12918923724E+00  0.20060025623E-01 0.  0.
         14    1    1    2    0    0 -0.88568420148E-02  0.19522747002E-01 -0.11049944283E-01  0.24118096311E-01  0.00000000000E+00 0.  1.
     999901    1    3    3    0    0  0.13626694989E+00 -0.12370377224E-01  0.93287793730E-02  0.89062266645E+00  0.88000000000E+00 0. -1.
        -11    1    4    4    0    0 -0.72913567494E-01 -0.13746258996E-01 -0.12805974168E-02  0.74210841606E-01  0.51100000000E-03 0. -1.
         11    1    4    4    0    0 -0.54496540382E-01  0.65938892180E-02  0.30017623269E-02  0.54978395636E-01  0.51100000000E-03 0.  1.
</event>
<event>
 8    1  0.1122465E+005  0.1043930E+01  0.7957747E-01            NaN
         13   -1    0    0    0    0  0.00000000000E+00  0.00000000000E+00  0.74505805969E-08  0.10566000000E+00  0.10566000000E+00 0. -1.
     999900   -1    0    0    0    0 -0.00000000000E+00 -0.00000000000E+00 -0.74505805969E-08  0.93827000000E+00  0.93827000000E+00 0.  1.
     999902    2    1    2    0    0  0.23418012921E-01 -0.29905995254E-02  0.15550612275E-02  0.10202706418E+01  0.10199962830E+01 0.  0.
     999903    2    3    3    0    0 -0.79985076115E-01  0.10188169748E-01 -0.98040493848E-01  0.12853909399E+00  0.20222488615E-01 0.  0.
         14    1    1    2    0    0 -0.23418012921E-01  0.29905995254E-02 -0.15550612275E-02  0.23659358193E-01  0.00000000000E+00 0.  1.
     999901    1    3    3    0    0  0.10340308904E+00 -0.13178769273E-01  0.99595555076E-01  0.89173154782E+00  0.88000000000E+00 0. -1.
        -11    1    4    4    0    0 -0.25841587162E-01  0.96493305754E-02 -0.22526411721E-01  0.35617377130E-01  0.51100000000E-03 0. -1.
         11    1    4    4    0    0 -0.54143488953E-01  0.53883917211E-03 -0.75514082127E-01  0.92921716860E-01  0.51100000000E-03 0.  1.
</event>
<event>
 8    1  0.1122465E+005  0.1043930E+01  0.7957747E-01            NaN
         13   -1    0    0    0    0  0.00000000000E+00  0.00000000000E+00  0.74505805969E-08  0.10566000000E+00  0.10566000000E+00 0. -1.
     999900   -1    0    0    0    0 -0.00000000000E+00 -0.00000000000E+00 -0.74505805969E-08  0.93827000000E+00  0.93827000000E+00 0. -1.
     999902    2    1    2    0    0  0.14737752136E-01 -0.46281495548E-02  0.18458329470E-01  0.10198607035E+01  0.10195766394E+01 0.  0.
     999903    2    3    3    0    0 -0.39047526734E-01  0.11667463163E+00  0.35862924263E-01  0.12974265468E+00  0.20231858446E-01 0.  0.
         14    1    1    2    0    0 -0.14737752136E-01  0.46281495548E-02 -0.18458329470E-01  0.24069296482E-01  0.00000000000E+00 0.  1.
     999901    1    3    3    0    0  0.53785278870E-01 -0.12130278119E+00 -0.17404594793E-01  0.89011804884E+00  0.88000000000E+00 0. -1.
        -11    1    4    4    0    0 -0.36965694700E-01  0.87302584892E-01  0.22714245526E-01  0.97490522535E-01  0.51100000000E-03 0. -1.
         11    1    4    4    0    0 -0.20818320343E-02  0.29372046741E-01  0.13148678737E-01  0.32252132145E-01  0.51100000000E-03 0.  1.
</event>
<event>
 8    1  0.1122465E+005  0.1043930E+01  0.7957747E-01            NaN
         13   -1    0    0    0    0  0.00000000000E+00  0.00000000000E+00  0.74505805969E-08  0.10566000000E+00  0.10566000000E+00 0.  1.
     999900   -1    0    0    0    0 -0.00000000000E+00 -0.00000000000E+00 -0.74505805969E-08  0.93827000000E+00  0.93827000000E+00 0. -1.
     999902    2    1    2    0    0  0.20885065671E-01 -0.45237471679E-02 -0.76480824358E-02  0.10212332288E+01  0.10209809813E+01 0.  0.
     999903    2    3    3    0    0 -0.87326156204E-01 -0.40003474155E-01  0.84127277054E-01  0.12916193338E+00  0.19474875794E-01 0.  0.
         14    1    1    2    0    0 -0.20885065671E-01  0.45237471679E-02  0.76480824358E-02  0.22696771168E-01  0.00000000000E+00 0.  1.
     999901    1    3    3    0    0  0.10821122187E+00  0.35479726987E-01 -0.91775359489E-01  0.89207129546E+00  0.88000000000E+00 0.  1.
        -11    1    4    4    0    0 -0.48994358064E-01 -0.12080275731E-01  0.40223327628E-01  0.64533381984E-01  0.51100000000E-03 0. -1.
         11    1    4    4    0    0 -0.38331798140E-01 -0.27923198424E-01  0.43903949426E-01  0.64628551392E-01  0.51100000000E-03 0.  1.
</event>
<event>
 8    1  0.1122465E+005  0.1043930E+01  0.7957747E-01            NaN
         13   -1    0    0    0    0  0.00000000000E+00  0.00000000000E+00  0.74505805969E-08  0.10566000000E+00  0.10566000000E+00 0. -1.
     999900   -1    0    0    0    0 -0.00000000000E+00 -0.00000000000E+00 -0.74505805969E-08  0.93827000000E+00  0.93827000000E+00 0.  1.
     999902    2    1    2    0    0  0.11504113888E-01 -0.18392383818E-01  0.89778814590E-02  0.10204517809E+01  0.10201816555E+01 0.  0.
     999903    2    3    3    0    0 -0.10522518683E+00  0.64227617746E-01 -0.29400244481E-01  0.12808152426E+00  0.18519601912E-01 0.  0.
         14    1    1    2    0    0 -0.11504113888E-01  0.18392383818E-01 -0.89778814590E-02  0.23478219148E-01  0.00000000000E+00 0.  1.
     999901    1    3    3    0    0  0.11672930072E+00 -0.82620001564E-01  0.38378125940E-01  0.89237025660E+00  0.88000000000E+00 0. -1.
        -11    1    4    4    0    0 -0.75267929367E-01  0.54802888734E-01 -0.19276843332E-01  0.95081415716E-01  0.51100000000E-03 0.  1.
         11    1    4    4    0    0 -0.29957257466E-01  0.94247290122E-02 -0.10123401150E-01  0.33000108541E-01  0.51100000000E-03 0. -1.
</event>
<event>
 8    1  0.1122465E+005  0.1043930E+01  0.7957747E-01            NaN
         13   -1    0    0    0    0  0.00000000000E+00  0.00000000000E+00  0.74505805969E-08  0.10566000000E+00  0.10566000000E+00 0. -1.
     999900   -1    0    0    0    0 -0.00000000000E+00 -0.00000000000E+00 -0.74505805969E-08  0.93827000000E+00  0.93827000000E+00 0. -1.
     999902    2    1    2    0    0 -0.13968163042E-01  0.65548369288E-02 -0.17956017255E-01  0.10202552451E+01  0.10199805248E+01 0.  0.
     999903    2    3    3    0    0 -0.64309158016E-01 -0.99461967550E-01 -0.54088974052E-01  0.13172872932E+00  0.19962219811E-01 0.  0.
         14    1    1    2    0    0  0.13968163042E-01 -0.65548369288E-02  0.17956017255E-01  0.23674754943E-01  0.00000000000E+00 0. -1.
     999901    1    3    3    0    0  0.50340994974E-01  0.10601680448E+00  0.36132956797E-01  0.88852651574E+00  0.88000000000E+00 0.  1.
        -11    1    4    4    0    0 -0.15610752683E-01 -0.14007572639E-01 -0.40252332760E-02  0.21362848932E-01  0.51100000000E-03 0. -1.
         11    1    4    4    0    0 -0.48698405332E-01 -0.85454394912E-01 -0.50063740776E-01  0.11036588038E+00  0.51100000000E-03 0.  1.
</event>
<event>
 8    1  0.1122465E+005  0.1043930E+01  0.7957747E-01            NaN
         13   -1    0    0    0    0  0.00000000000E+00  0.00000000000E+00  0.74505805969E-08  0.10566000000E+00  0.10566000000E+00 0.  1.
     999900   -1    0    0    0    0 -0.00000000000E+00 -0.00000000000E+00 -0.74505805969E-08  0.93827000000E+00  0.93827000000E+00 0. -1.
     999902    2    1    2    0    0 -0.14535544229E-01 -0.17963006725E-01  0.54662461701E-02  0.10201848636E+01  0.10199084882E+01 0.  0.
     999903    2    3    3    0    0  0.14714532945E-01  0.12050458090E+00  0.36738052390E-01  0.12832906486E+00  0.19513915481E-01 0.  0.
         14    1    1    2    0    0  0.14535544229E-01  0.17963006725E-01 -0.54662461701E-02  0.23745136424E-01  0.00000000000E+00 0. -1.
     999901    1    3    3    0    0 -0.29250077174E-01 -0.13846758762E+00 -0.31271806220E-01  0.89185579871E+00  0.88000000000E+00 0.  1.
        -11    1    4    4    0    0 -0.22831056698E-02  0.48861156865E-01  0.19797840936E-01  0.52771591301E-01  0.51100000000E-03 0. -1.
         11    1    4    4    0    0  0.16997638615E-01  0.71643424033E-01  0.16940211455E-01  0.75557473560E-01  0.51100000000E-03 0.  1.
</event>
<event>
 8    1  0.1122465E+005  0.1043930E+01  0.7957747E-01            NaN
         13   -1    0    0    0    0  0.00000000000E+00  0.00000000000E+00  0.74505805969E-08  0.10566000000E+00  0.10566000000E+00 0. -1.
     999900   -1    0    0    0    0 -0.00000000000E+00 -0.00000000000E+00 -0.74505805969E-08  0.93827000000E+00  0.93827000000E+00 0.  1.
     999902    2    1    2    0    0 -0.49709606518E-02  0.21534401540E-01  0.85703007436E-02  0.10202257608E+01  0.10199503479E+01 0.  0.
     999903    2    3    3    0    0 -0.80171321962E-02 -0.11801206106E+00  0.46204918454E-01  0.12843045986E+00  0.19192904108E-01 0.  0.
         14    1    1    2    0    0  0.49709606518E-02 -0.21534401540E-01 -0.85703007436E-02  0.23704239164E-01  0.00000000000E+00 0.  1.
     999901    1    3    3    0    0  0.30461715445E-02  0.13954646260E+00 -0.37634617710E-01  0.89179530097E+00  0.88000000000E+00 0.  1.
        -11    1    4    4    0    0  0.14031857867E-02 -0.16105226518E-01  0.81275680128E-04  0.16174516323E-01  0.51100000000E-03 0. -1.
         11    1    4    4    0    0 -0.94203179829E-02 -0.10190683454E+00  0.46123642773E-01  0.11225594354E+00  0.51100000000E-03 0.  1.
</event>
<event>
 8    1  0.1122465E+005  0.1043930E+01  0.7957747E-01            NaN
         13   -1    0    0    0    0  0.00000000000E+00  0.00000000000E+00  0.74505805969E-08  0.10566000000E+00  0.10566000000E+00 0. -1.
     999900   -1    0    0    0    0 -0.00000000000E+00 -0.00000000000E+00 -0.74505805969E-08  0.93827000000E+00  0.93827000000E+00 0. -1.
     999902    2    1    2    0    0  0.15868008114E-01  0.15715196160E-01  0.69203692754E-02  0.10205493973E+01  0.10202815394E+01 0.  0.
     999903    2    3    3    0    0 -0.12167538673E-01  0.64513924369E-01 -0.11138374348E+00  0.13085103782E+00  0.20138529023E-01 0.  0.
         14    1    1    2    0    0 -0.15868008114E-01 -0.15715196160E-01 -0.69203692754E-02  0.23380602704E-01  0.00000000000E+00 0.  1.
     999901    1    3    3    0    0  0.28035546787E-01 -0.48798728209E-01  0.11830411276E+00  0.88969835948E+00  0.88000000000E+00 0.  1.
        -11    1    4    4    0    0 -0.14309944359E-01  0.44660699876E-01 -0.63283785583E-01  0.78768339196E-01  0.51100000000E-03 0. -1.
         11    1    4    4    0    0  0.21424056860E-02  0.19853224493E-01 -0.48099957901E-01  0.52082698624E-01  0.51100000000E-03 0.  1.
</event>
<event>
 8    1  0.1122465E+005  0.1043930E+01  0.7957747E-01            NaN
         13   -1    0    0    0    0  0.00000000000E+00  0.00000000000E+00  0.74505805969E-08  0.10566000000E+00  0.10566000000E+00 0. -1.
     999900   -1    0    0    0    0 -0.00000000000E+00 -0.00000000000E+00 -0.74505805969E-08  0.93827000000E+00  0.93827000000E+00 0. -1.
     999902    2    1    2    0    0 -0.65125470288E-02  0.21038706573E-01 -0.10693022265E-01  0.10194477377E+01  0.10191537218E+01 0.  0.
     999903    2    3    3    0    0 -0.61190153275E-01 -0.10258984113E+00 -0.42912612668E-01  0.12854271444E+00  0.20318138415E-01 0.  0.
         14    1    1    2    0    0  0.65125470288E-02 -0.21038706573E-01  0.10693022265E-01  0.24482262319E-01  0.00000000000E+00 0. -1.
     999901    1    3    3    0    0  0.54677606246E-01  0.12362854770E+00  0.32219590403E-01  0.89090502324E+00  0.88000000000E+00 0. -1.
        -11    1    4    4    0    0 -0.37420626017E-01 -0.69323651689E-01 -0.18509595603E-01  0.80925510103E-01  0.51100000000E-03 0. -1.
         11    1    4    4    0    0 -0.23769527258E-01 -0.33266189440E-01 -0.24403017065E-01  0.47617204337E-01  0.51100000000E-03 0.  1.
</event>
<event>
 8    1  0.1122465E+005  0.1043930E+01  0.7957747E-01            NaN
         13   -1    0    0    0    0  0.00000000000E+00  0.00000000000E+00  0.74505805969E-08  0.10566000000E+00  0.10566000000E+00 0.  1.
     999900   -1    0    0    0    0 -0.00000000000E+00 -0.00000000000E+00 -0.74505805969E-08  0.93827000000E+00  0.93827000000E+00 0. -1.
     999902    2    1    2    0    0  0.54823919001E-02 -0.92032031191E-03 -0.24345875216E-01  0.10189575101E+01  0.10186514528E+01 0.  0.
     999903    2    3    3    0    0 -0.24464465933E-01 -0.12015752351E+00 -0.38434884366E-01  0.13029963158E+00  0.21550246024E-01 0.  0.
         14    1    1    2    0    0 -0.54823919001E-02  0.92032031191E-03  0.24345875216E-01  0.24972489873E-01  0.00000000000E+00 0.  1.
     999901    1    3    3    0    0  0.29946857833E-01  0.11923720320E+00  0.14089009151E-01  0.88865787855E+00  0.88000000000E+00 0. -1.
        -11    1    4    4    0    0 -0.85179545739E-02 -0.30950239455E-01 -0.19987065450E-01  0.37818206974E-01  0.51100000000E-03 0. -1.
         11    1    4    4    0    0 -0.15946511359E-01 -0.89207284059E-01 -0.18447818917E-01  0.92481424608E-01  0.51100000000E-03 0.  1.
</event>
<event>
 8    1  0.1122465E+005  0.1043930E+01  0.7957747E-01            NaN
         13   -1    0    0    0    0  0.00000000000E+00  0.00000000000E+00  0.74505805969E-08  0.10566000000E+00  0.10566000000E+00 0.  1.
     999900   -1    0    0    0    0 -0.00000000000E+00 -0.00000000000E+00 -0.74505805969E-08  0.93827000000E+00  0.93827000000E+00 0. -1.
     999902    2    1    2    0    0  0.17978236254E-01  0.38547440677E-02 -0.11980671764E-01  0.10219843278E+01  0.10217486745E+01 0.  0.
     999903    2    3    3    0    0 -0.37098053011E-01  0.72907709623E-01 -0.10298451495E+00  0.13289298879E+00  0.19050892150E-01 0.  0.
         14    1    1    2    0    0 -0.17978236254E-01 -0.38547440677E-02  0.11980671764E-01  0.21945672160E-01  0.00000000000E+00 0.  1.
     999901    1    3    3    0    0  0.55076289264E-01 -0.69052965556E-01  0.91003843186E-01  0.88909133905E+00  0.88000000000E+00 0.  1.
        -11    1    4    4    0    0 -0.32039285621E-01  0.48075091078E-01 -0.62370557823E-01  0.85018102834E-01  0.51100000000E-03 0.  1.
         11    1    4    4    0    0 -0.50587673896E-02  0.24832618546E-01 -0.40613957127E-01  0.47874885961E-01  0.51100000000E-03 0. -1.
</event>
<event>
 8    1  0.1122465E+005  0.1043930E+01  0.7957747E-01            NaN
         13   -1    0    0    0    0  0.00000000000E+00  0.00000000000E+00  0.74505805969E-08  0.10566000000E+00  0.10566000000E+00 0. -1.
     999900   -1    0    0    0    0 -0.00000000000E+00 -0.00000000000E+00 -0.74505805969E-08  0.93827000000E+00  0.93827000000E+00 0. -1.
     999902    2    1    2    0    0  0.18504726186E-01 -0.12233592303E-01  0.81957706049E-02  0.10202813990E+01  0.10200072926E+01 0.  0.
     999903    2    3    3    0    0 -0.21355219890E-01  0.37373349190E-01  0.12180869871E+00  0.13069859717E+00  0.19797766873E-01 0.  0.
         14    1    1    2    0    0 -0.18504726186E-01  0.12233592303E-01 -0.81957706049E-02  0.23648600966E-01  0.00000000000E+00 0. -1.
     999901    1    3    3    0    0  0.39859946076E-01 -0.49606941493E-01 -0.11361292811E+00  0.88958280187E+00  0.88000000000E+00 0. -1.
        -11    1    4    4    0    0 -0.22931834295E-01  0.29765285258E-01  0.82912540908E-01  0.91030718944E-01  0.51100000000E-03 0. -1.
         11    1    4    4    0    0  0.15766144052E-02  0.76080639325E-02  0.38896157804E-01  0.39667878222E-01  0.51100000000E-03 0.  1.
</event>
<event>
 8    1  0.1122465E+005  0.1043930E+01  0.7957747E-01            NaN
         13   -1    0    0    0    0  0.00000000000E+00  0.00000000000E+00  0.74505805969E-08  0.10566000000E+00  0.10566000000E+00 0. -1.
     999900   -1    0    0    0    0 -0.00000000000E+00 -0.00000000000E+00 -0.74505805969E-08  0.93827000000E+00  0.93827000000E+00 0. -1.
     999902    2    1    2    0    0  0.63998481864E-02  0.22535968620E-01 -0.43992856494E-02  0.10200934387E+01  0.10198149058E+01 0.  0.
     999903    2    3    3    0    0 -0.11982555286E+00 -0.14127000935E-01 -0.40773780457E-01  0.12958789183E+00  0.23932932574E-01 0.  0.
         14    1    1    2    0    0 -0.63998481864E-02 -0.22535968620E-01  0.43992856494E-02  0.23836561259E-01  0.00000000000E+00 0. -1.
     999901    1    3    3    0    0  0.12622540105E+00  0.36662969554E-01  0.36374494807E-01  0.89050554691E+00  0.88000000000E+00 0.  1.
        -11    1    4    4    0    0 -0.62430755475E-01 -0.48328969808E-02 -0.88090684189E-02  0.63236199521E-01  0.51100000000E-03 0. -1.
         11    1    4    4    0    0 -0.57394797388E-01 -0.92941039538E-02 -0.31964712038E-01  0.66351692309E-01  0.51100000000E-03 0.  1.
</event>
<event>
 8    1  0.1122465E+005  0.1043930E+01  0.7957747E-01            NaN
         13   -1    0    0    0    0  0.00000000000E+00  0.00000000000E+00  0.74505805969E-08  0.10566000000E+00  0.10566000000E+00 0.  1.
     999900   -1    0    0    0    0 -0.00000000000E+00 -0.00000000000E+00 -0.74505805969E-08  0.93827000000E+00  0.93827000000E+00 0. -1.
     999902    2    1    2    0    0 -0.11801286158E-02  0.19537863494E-01  0.17922443776E-01  0.10173906932E+01  0.10170444867E+01 0.  0.
     999903    2    3    3    0    0 -0.30869105900E-01 -0.10215928819E+00 -0.61955051139E-01  0.12493786741E+00  0.19535109130E-01 0.  0.
         14    1    1    2    0    0  0.11801286158E-02 -0.19537863494E-01 -0.17922443776E-01  0.26539306780E-01  0.00000000000E+00 0. -1.
     999901    1    3    3    0    0  0.29688977285E-01  0.12169715168E+00  0.79877494916E-01  0.89245282581E+00  0.88000000000E+00 0.  1.
        -11    1    4    4    0    0 -0.27377624856E-01 -0.58924712311E-01 -0.34029318088E-01  0.73347881184E-01  0.51100000000E-03 0. -1.
         11    1    4    4    0    0 -0.34914810445E-02 -0.43234575880E-01 -0.27925733051E-01  0.51589986227E-01  0.51100000000E-03 0.  1.
</event>
<event>
 8    1  0.1122465E+005  0.1043930E+01  0.7957747E-01            NaN
         13   -1    0    0    0    0  0.00000000000E+00  0.00000000000E+00  0.74505805969E-08  0.10566000000E+00  0.10566000000E+00 0. -1.
     999900   -1    0    0    0    0 -0.00000000000E+00 -0.00000000000E+00 -0.74505805969E-08  0.93827000000E+00  0.93827000000E+00 0. -1.
     999902    2    1    2    0    0  0.89090023112E-02 -0.44420502645E-02 -0.21161794619E-01  0.10205436004E+01  0.10202756082E+01 0.  0.
     999903    2    3    3    0    0 -0.28485140429E-01  0.11257891382E+00 -0.57689940697E-01  0.13125931890E+00  0.20382945745E-01 0.  0.
         14    1    1    2    0    0 -0.89090023112E-02  0.44420502645E-02  0.21161794619E-01  0.23386399557E-01  0.00000000000E+00 0. -1.
     999901    1    3    3    0    0  0.37394142740E-01 -0.11702096409E+00  0.36528146078E-01  0.88928428155E+00  0.88000000000E+00 0.  1.
        -11    1    4    4    0    0 -0.25018295654E-01  0.62572188621E-01 -0.27830160164E-01  0.72910718293E-01  0.51100000000E-03 0. -1.
         11    1    4    4    0    0 -0.34668447750E-02  0.50006725201E-01 -0.29859780534E-01  0.58348600605E-01  0.51100000000E-03 0.  1.
</event>
<event>
 8    1  0.1122465E+005  0.1043930E+01  0.7957747E-01            NaN
         13   -1    0    0    0    0  0.00000000000E+00  0.00000000000E+00  0.74505805969E-08  0.10566000000E+00  0.10566000000E+00 0.  1.
     999900   -1    0    0    0    0 -0.00000000000E+00 -0.00000000000E+00 -0.74505805969E-08  0.93827000000E+00  0.93827000000E+00 0.  1.
     999902    2    1    2    0    0 -0.35387180644E-01  0.21152183010E-04  0.12287117924E-01  0.10064703381E+01  0.10057729939E+01 0.  0.
     999903    2    3    3    0    0 -0.80857990055E-01  0.45438987180E-01  0.76311643817E-01  0.12180683477E+00  0.20266275010E-01 0.  0.
         14    1    1    2    0    0  0.35387180644E-01 -0.21152183010E-04 -0.12287117924E-01  0.37459661880E-01  0.00000000000E+00 0. -1.
     999901    1    3    3    0    0  0.45470809412E-01 -0.45417834997E-01 -0.64024525893E-01  0.88466350335E+00  0.88000000000E+00 0.  1.
        -11    1    4    4    0    0 -0.27903432738E-01  0.25979666530E-01  0.36255338803E-01  0.52614212379E-01  0.51100000000E-03 0. -1.
         11    1    4    4    0    0 -0.52954557318E-01  0.19459320650E-01  0.40056305014E-01  0.69192622390E-01  0.51100000000E-03 0.  1.
</event>
<event>
 8    1  0.1122465E+005  0.1043930E+01  0.7957747E-01            NaN
         13   -1    0    0    0    0  0.00000000000E+00  0.00000000000E+00  0.74505805969E-08  0.10566000000E+00  0.10566000000E+00 0.  1.
     999900   -1    0    0    0    0 -0.00000000000E+00 -0.00000000000E+00 -0.74505805969E-08  0.93827000000E+00  0.93827000000E+00 0.  1.
     999902    2    1    2    0    0  0.10321541786E-01  0.17899158568E-01 -0.11525074239E-01  0.10202711446E+01  0.10199967976E+01 0.  0.
     999903    2    3    3    0    0  0.13367654586E-01  0.12926023089E+00 -0.21666426497E-01  0.13318974234E+00  0.19574778372E-01 0.  0.
         14    1    1    2    0    0 -0.10321541786E-01 -0.17899158568E-01  0.11525074239E-01  0.23658855392E-01  0.00000000000E+00 0.  1.
     999901    1    3    3    0    0 -0.30461128000E-02 -0.11136107232E+00  0.10141352258E-01  0.88708140227E+00  0.88000000000E+00 0. -1.
        -11    1    4    4    0    0  0.23020990406E-02  0.66760571709E-01 -0.23564554413E-02  0.66843755117E-01  0.51100000000E-03 0.  1.
         11    1    4    4    0    0  0.11065555545E-01  0.62499659178E-01 -0.19309971056E-01  0.66345987219E-01  0.51100000000E-03 0. -1.
</event>
<event>
 8    1  0.1122465E+005  0.1043930E+01  0.7957747E-01            NaN
         13   -1    0    0    0    0  0.00000000000E+00  0.00000000000E+00  0.74505805969E-08  0.10566000000E+00  0.10566000000E+00 0.  1.
     999900   -1    0    0    0    0 -0.00000000000E+00 -0.00000000000E+00 -0.74505805969E-08  0.93827000000E+00  0.93827000000E+00 0.  1.
     999902    2    1    2    0    0 -0.21832121232E-01  0.44082485012E-02 -0.62581720652E-02  0.10207947695E+01  0.10205325681E+01 0.  0.
     999903    2    3    3    0    0 -0.52052885046E-03 -0.12521075261E+00  0.27269794578E-01  0.13041316931E+00  0.24206394065E-01 0.  0.
         14    1    1    2    0    0  0.21832121232E-01 -0.44082485012E-02  0.62581720652E-02  0.23135230493E-01  0.00000000000E+00 0.  1.
     999901    1    3    3    0    0 -0.21311592382E-01  0.12961900111E+00 -0.33527966643E-01  0.89038160020E+00  0.88000000000E+00 0.  1.
        -11    1    4    4    0    0 -0.34111905413E-02 -0.28128858946E-01  0.16239199423E-01  0.32662541931E-01  0.51100000000E-03 0.  1.
         11    1    4    4    0    0  0.28906616909E-02 -0.97081893666E-01  0.11030595155E-01  0.97750627381E-01  0.51100000000E-03 0. -1.
</event>
<event>
 8    1  0.1122465E+005  0.1043930E+01  0.7957747E-01            NaN
         13   -1    0    0    0    0  0.00000000000E+00  0.00000000000E+00  0.74505805969E-08  0.10566000000E+00  0.10566000000E+00 0. -1.
     999900   -1    0    0    0    0 -0.00000000000E+00 -0.00000000000E+00 -0.74505805969E-08  0.93827000000E+00  0.93827000000E+00 0.  1.
     999902    2    1    2    0    0 -0.47069058294E-02  0.82179062928E-03  0.23398584843E-01  0.10200485412E+01  0.10197689455E+01 0.  0.
     999903    2    3    3    0    0  0.59749367733E-01 -0.93640899186E-01  0.63983995456E-01  0.13172146937E+00  0.30298331207E-01 0.  0.
         14    1    1    2    0    0  0.47069058294E-02 -0.82179062928E-03 -0.23398584843E-01  0.23881458811E-01  0.00000000000E+00 0.  1.
     999901    1    3    3    0    0 -0.64456273562E-01  0.94462689815E-01 -0.40585410614E-01  0.88832707182E+00  0.88000000000E+00 0.  1.
        -11    1    4    4    0    0  0.51416905868E-01 -0.55821044100E-01  0.36396261290E-01  0.84170280564E-01  0.51100000000E-03 0.  1.
         11    1    4    4    0    0  0.83324618646E-02 -0.37819855087E-01  0.27587734167E-01  0.47551188807E-01  0.51100000000E-03 0. -1.
</event>
<event>
 8    1  0.1122465E+005  0.1043930E+01  0.7957747E-01            NaN
         13   -1    0    0    0    0  0.00000000000E+00  0.00000000000E+00  0.74505805969E-08  0.10566000000E+00  0.10566000000E+00 0. -1.
     999900   -1    0    0    0    0 -0.00000000000E+00 -0.00000000000E+00 -0.74505805969E-08  0.93827000000E+00  0.93827000000E+00 0.  1.
     999902    2    1    2    0    0 -0.58214960503E-02  0.17514340609E-01 -0.16088769267E-01  0.10194455061E+01  0.10191514360E+01 0.  0.
     999903    2    3    3    0    0 -0.11691000578E+00  0.52684039698E-01 -0.23011517479E-01  0.13173750844E+00  0.19536727025E-01 0.  0.
         14    1    1    2    0    0  0.58214960503E-02 -0.17514340609E-01  0.16088769267E-01  0.24484493864E-01  0.00000000000E+00 0. -1.
     999901    1    3    3    0    0  0.11108850973E+00 -0.35169699088E-01  0.69227482125E-02  0.88770799769E+00  0.88000000000E+00 0. -1.
        -11    1    4    4    0    0 -0.50766076223E-01  0.25426718347E-01 -0.19765741027E-01  0.60122027081E-01  0.51100000000E-03 0. -1.
         11    1    4    4    0    0 -0.66143929559E-01  0.27257321351E-01 -0.32457764524E-02  0.71615481361E-01  0.51100000000E-03 0.  1.
</event>
<event>
 8    1  0.1122465E+005  0.1043930E+01  0.7957747E-01            NaN
         13   -1    0    0    0    0  0.00000000000E+00  0.00000000000E+00  0.74505805969E-08  0.10566000000E+00  0.10566000000E+00 0.  1.
     999900   -1    0    0    0    0 -0.00000000000E+00 -0.00000000000E+00 -0.74505805969E-08  0.93827000000E+00  0.93827000000E+00 0. -1.
     999902    2    1    2    0    0 -0.92564809351E-02  0.49129075300E-02 -0.21560845580E-01  0.10199573247E+01  0.10196755636E+01 0.  0.
     999903    2    3    3    0    0 -0.10894605850E+00  0.29913744766E-01  0.61425487084E-01  0.13009790593E+00  0.19705300664E-01 0.  0.
         14    1    1    2    0    0  0.92564809351E-02 -0.49129075300E-02  0.21560845580E-01  0.23972675316E-01  0.00000000000E+00 0.  1.
     999901    1    3    3    0    0  0.99689577568E-01 -0.25000837236E-01 -0.82986332664E-01  0.88985941876E+00  0.88000000000E+00 0. -1.
        -11    1    4    4    0    0 -0.28182885719E-01 -0.17161231552E-03  0.19342211860E-01  0.34186061178E-01  0.51100000000E-03 0. -1.
         11    1    4    4    0    0 -0.80763172784E-01  0.30085357082E-01  0.42083275224E-01  0.95911844751E-01  0.51100000000E-03 0.  1.
</event>
<event>
 8    1  0.1122465E+005  0.1043930E+01  0.7957747E-01            NaN
         13   -1    0    0    0    0  0.00000000000E+00  0.00000000000E+00  0.74505805969E-08  0.10566000000E+00  0.10566000000E+00 0.  1.
     999900   -1    0    0    0    0 -0.00000000000E+00 -0.00000000000E+00 -0.74505805969E-08  0.93827000000E+00  0.93827000000E+00 0. -1.
     999902    2    1    2    0    0  0.14668793990E-01  0.28142139915E-02  0.15579216181E-01  0.10223474771E+01  0.10221196401E+01 0.  0.
     999903    2    3    3    0    0  0.23708448774E-01 -0.10621222516E+00 -0.70880536062E-01  0.13136837042E+00  0.19760340047E-01 0.  0.
         14    1    1    2    0    0 -0.14668793990E-01 -0.28142139915E-02 -0.15579216181E-01  0.21582522891E-01  0.00000000000E+00 0. -1.
     999901    1    3    3    0    0 -0.90396547840E-02  0.10902643915E+00  0.86459752243E-01  0.89097910669E+00  0.88000000000E+00 0.  1.
        -11    1    4    4    0    0  0.53349518266E-02 -0.46329426059E-01 -0.40411933204E-01  0.61711124575E-01  0.51100000000E-03 0.  1.
         11    1    4    4    0    0  0.18373496948E-01 -0.59882799100E-01 -0.30468602857E-01  0.69657245849E-01  0.51100000000E-03 0. -1.
</event>
<event>
 7    1  0.1122465E+005  0.1043930E+01  0.7957747E-01            NaN
         13   -1    0    0    0    0  0.00000000000E+00  0.00000000000E+00  0.74505805969E-08  0.10566000000E+00  0.10566000000E+00 0. -1.
     999900   -1    0    0    0    0 -0.00000000000E+00 -0.00000000000E+00 -0.74505805969E-08  0.93827000000E+00  0.93827000000E+00 0. -1.
     999903    2    1    2    0    0 -0.12064526950E-02 -0.11331491352E+00 -0.12656807587E-02  0.11555189507E+00  0.22559107975E-01 0.  0.
         14    1    1    2    0    0  0.40078859280E-01 -0.91072416135E-03 -0.19933675670E-02  0.40138733088E-01  0.00000000000E+00 0.  1.
     999901    1    1    2    0    0 -0.38872406585E-01  0.11422563768E+00  0.32590483257E-02  0.88823937184E+00  0.88000000000E+00 0. -1.
        -11    1    3    3    0    0 -0.10577782703E-01 -0.38917748949E-01  0.29965947990E-02  0.40444052363E-01  0.51100000000E-03 0. -1.
         11    1    3    3    0    0  0.93713300080E-02 -0.74397164568E-01 -0.42622755578E-02  0.75107842705E-01  0.51100000000E-03 0.  1.
</event>
<event>
 8    1  0.1122465E+005  0.1043930E+01  0.7957747E-01            NaN
         13   -1    0    0    0    0  0.00000000000E+00  0.00000000000E+00  0.74505805969E-08  0.10566000000E+00  0.10566000000E+00 0. -1.
     999900   -1    0    0    0    0 -0.00000000000E+00 -0.00000000000E+00 -0.74505805969E-08  0.93827000000E+00  0.93827000000E+00 0.  1.
     999902    2    1    2    0    0 -0.66295361476E-02  0.19855923927E-01  0.10793096774E-01  0.10203779427E+01  0.10201060957E+01 0.  0.
     999903    2    3    3    0    0 -0.20804883081E-01  0.11475578748E-01  0.12855396703E+00  0.13238087447E+00  0.20833660733E-01 0.  0.
         14    1    1    2    0    0  0.66295361476E-02 -0.19855923927E-01 -0.10793096774E-01  0.23552057289E-01  0.00000000000E+00 0.  1.
     999901    1    3    3    0    0  0.14175346934E-01  0.83803451797E-02 -0.11776087025E+00  0.88799706824E+00  0.88000000000E+00 0.  1.
        -11    1    4    4    0    0 -0.20066813025E-01  0.53245197635E-02  0.58973671722E-01  0.62523456183E-01  0.51100000000E-03 0.  1.
         11    1    4    4    0    0 -0.73807005615E-03  0.61510589842E-02  0.69580295303E-01  0.69857418286E-01  0.51100000000E-03 0. -1.
</event>
<event>
 8    1  0.1122465E+005  0.1043930E+01  0.7957747E-01            NaN
         13   -1    0    0    0    0  0.00000000000E+00  0.00000000000E+00  0.74505805969E-08  0.10566000000E+00  0.10566000000E+00 0.  1.
     999900   -1    0    0    0    0 -0.00000000000E+00 -0.00000000000E+00 -0.74505805969E-08  0.93827000000E+00  0.93827000000E+00 0. -1.
     999902    2    1    2    0    0  0.17587949183E-01 -0.16130693569E-01  0.62955019324E-02  0.10192486594E+01  0.10189497834E+01 0.  0.
     999903    2    3    3    0    0 -0.26859036867E-01  0.11025960277E+00  0.55070463115E-01  0.12777289501E+00  0.20360965741E-01 0.  0.
         14    1    1    2    0    0 -0.17587949183E-01  0.16130693569E-01 -0.62955019324E-02  0.24681340646E-01  0.00000000000E+00 0. -1.
     999901    1    3    3    0    0  0.44446986050E-01 -0.12639029634E+00 -0.48774961183E-01  0.89147576435E+00  0.88000000000E+00 0. -1.
        -11    1    4    4    0    0 -0.35931682418E-02  0.86993516088E-02  0.11416925144E-01  0.14805298956E-01  0.51100000000E-03 0.  1.
         11    1    4    4    0    0 -0.23265868625E-01  0.10156025116E+00  0.43653537972E-01  0.11296759605E+00  0.51100000000E-03 0. -1.
</event>
<event>
 8    1  0.1122465E+005  0.1043930E+01  0.7957747E-01            NaN
         13   -1    0    0    0    0  0.00000000000E+00  0.00000000000E+00  0.74505805969E-08  0.10566000000E+00  0.10566000000E+00 0. -1.
     999900   -1    0    0    0    0 -0.00000000000E+00 -0.00000000000E+00 -0.74505805969E-08  0.93827000000E+00  0.93827000000E+00 0.  1.
     999902    2    1    2    0    0 -0.49757415543E-02 -0.22040412523E-01  0.65626974829E-02  0.10204011499E+01  0.10201298447E+01 0.  0.
     999903    2    3    3    0    0 -0.41565692475E-01 -0.11839447612E+00 -0.40307118751E-01  0.13314712216E+00  0.18934982225E-01 0.  0.
         14    1    1    2    0    0  0.49757415543E-02  0.22040412523E-01 -0.65626974829E-02  0.23528850088E-01  0.00000000000E+00 0. -1.
     999901    1    3    3    0    0  0.36589950921E-01  0.96354063598E-01  0.46869816234E-01  0.88725402775E+00  0.88000000000E+00 0.  1.
        -11    1    4    4    0    0 -0.28297324450E-01 -0.60885567456E-01 -0.28578788599E-01  0.72971221548E-01  0.51100000000E-03 0. -1.
         11    1    4    4    0    0 -0.13268368026E-01 -0.57508908664E-01 -0.11728330153E-01  0.60175900617E-01  0.51100000000E-03 0.  1.
</event>
<event>
 8    1  0.1122465E+005  0.1043930E+01  0.7957747E-01            NaN
         13   -1    0    0    0    0  0.00000000000E+00  0.00000000000E+00  0.74505805969E-08  0.10566000000E+00  0.10566000000E+00 0.  1.
     999900   -1    0    0    0    0 -0.00000000000E+00 -0.00000000000E+00 -0.74505805969E-08  0.93827000000E+00  0.93827000000E+00 0.  1.
     999902    2    1    2    0    0 -0.13780123235E-01  0.44139341210E-03 -0.18706914258E-01  0.10206913411E+01  0.10204267630E+01 0.  0.
     999903    2    3    3    0    0 -0.61137735148E-01  0.10247743998E+00 -0.54640113352E-01  0.13280323276E+00  0.20290595892E-01 0.  0.
         14    1    1    2    0    0  0.13780123235E-01 -0.44139341210E-03  0.18706914258E-01  0.23238658859E-01  0.00000000000E+00 0.  1.
     999901    1    3    3    0    0  0.47357611913E-01 -0.10203604656E+00  0.35933199094E-01  0.88788810838E+00  0.88000000000E+00 0.  1.
        -11    1    4    4    0    0 -0.27683641378E-01  0.46123730268E-01 -0.35770639786E-01  0.64603268381E-01  0.51100000000E-03 0.  1.
         11    1    4    4    0    0 -0.33454093770E-01  0.56353709708E-01 -0.18869473566E-01  0.68199964380E-01  0.51100000000E-03 0. -1.
</event>
<event>
 8    1  0.1122465E+005  0.1043930E+01  0.7957747E-01            NaN
         13   -1    0    0    0    0  0.00000000000E+00  0.00000000000E+00  0.74505805969E-08  0.10566000000E+00  0.10566000000E+00 0. -1.
     999900   -1    0    0    0    0 -0.00000000000E+00 -0.00000000000E+00 -0.74505805969E-08  0.93827000000E+00  0.93827000000E+00 0.  1.
     999902    2    1    2    0    0  0.22203069785E-01 -0.10225270856E-01  0.20227469399E-02  0.10194019757E+01  0.10191068462E+01 0.  0.
     999903    2    3    3    0    0  0.47649441570E-01 -0.43393929091E-01 -0.11222735378E+00  0.13103225352E+00  0.20517557409E-01 0.  0.
         14    1    1    2    0    0 -0.22203069785E-01  0.10225270856E-01 -0.20227469399E-02  0.24528024322E-01  0.00000000000E+00 0.  1.
     999901    1    3    3    0    0 -0.25446371785E-01  0.33168658235E-01  0.11425010072E+00  0.88836972215E+00  0.88000000000E+00 0. -1.
        -11    1    4    4    0    0  0.39121701308E-01 -0.23083825721E-01 -0.71066510838E-01  0.84345009377E-01  0.51100000000E-03 0.  1.
         11    1    4    4    0    0  0.85277402619E-02 -0.20310103370E-01 -0.41160842947E-01  0.46687244146E-01  0.51100000000E-03 0. -1.
</event>
<event>
 7    1  0.1166074E+005  0.1043930E+01  0.7957747E-01            NaN
         13   -1    0    0    0    0  0.00000000000E+00  0.00000000000E+00  0.74505805969E-08  0.10566000000E+00  0.10566000000E+00 0. -1.
     999900   -1    0    0    0    0 -0.00000000000E+00 -0.00000000000E+00 -0.74505805969E-08  0.93827000000E+00  0.93827000000E+00 0. -1.
     999903    2    1    2    0    0 -0.60637649439E-01  0.43798650049E-01 -0.84219202906E-01  0.11443302811E+00  0.20169221829E-01 0.  0.
         14    1    1    2    0    0 -0.33847508126E-01 -0.16244318751E-01 -0.10431498623E-01  0.38965983391E-01  0.00000000000E+00 0. -1.
     999901    1    1    2    0    0  0.94485157566E-01 -0.27554331298E-01  0.94650701529E-01  0.89053098850E+00  0.88000000000E+00 0.  1.
        -11    1    3    3    0    0 -0.25675140218E-01  0.72060791733E-02 -0.32916666577E-01  0.42366360026E-01  0.51100000000E-03 0.  1.
         11    1    3    3    0    0 -0.34962509221E-01  0.36592570876E-01 -0.51302536328E-01  0.72066668086E-01  0.51100000000E-03 0. -1.
</event>
<event>
 8    1  0.1122465E+005  0.1043930E+01  0.7957747E-01            NaN
         13   -1    0    0    0    0  0.00000000000E+00  0.00000000000E+00  0.74505805969E-08  0.10566000000E+00  0.10566000000E+00 0.  1.
     999900   -1    0    0    0    0 -0.00000000000E+00 -0.00000000000E+00 -0.74505805969E-08  0.93827000000E+00  0.93827000000E+00 0.  1.
     999902    2    1    2    0    0 -0.95372520300E-02  0.18408691318E-01 -0.11643972784E-01  0.10201514131E+01  0.10198742493E+01 0.  0.
     999903    2    3    3    0    0  0.97745098124E-01  0.75360009694E-01  0.37009762805E-01  0.13047723606E+00  0.20526843859E-01 0.  0.
         14    1    1    2    0    0  0.95372520300E-02 -0.18408691318E-01  0.11643972784E-01  0.23778586891E-01  0.00000000000E+00 0.  1.
     999901    1    3    3    0    0 -0.10728235015E+00 -0.56951318376E-01 -0.48653735590E-01  0.88967417705E+00  0.88000000000E+00 0. -1.
        -11    1    4    4    0    0  0.31964264897E-01  0.13287173608E-01  0.85537291379E-02  0.35660771389E-01  0.51100000000E-03 0. -1.
         11    1    4    4    0    0  0.65780833227E-01  0.62072836086E-01  0.28456033667E-01  0.94816464672E-01  0.51100000000E-03 0.  1.
</event>
<event>
 8    1  0.1122465E+005  0.1043930E+01  0.7957747E-01            NaN
         13   -1    0    0    0    0  0.00000000000E+00  0.00000000000E+00  0.74505805969E-08  0.10566000000E+00  0.10566000000E+00 0. -1.
     999900   -1    0    0    0    0 -0.00000000000E+00 -0.00000000000E+00 -0.74505805969E-08  0.93827000000E+00  0.93827000000E+00 0.  1.
     999902    2    1    2    0    0 -0.88738316024E-02 -0.19731659098E-01  0.23581813564E-02  0.10221666299E+01  0.10219349172E+01 0.  0.
     999903    2    3    3    0    0 -0.35406584545E-01 -0.36000446769E-01  0.12190966204E+00  0.13353778897E+00  0.20511386795E-01 0.  0.
         14    1    1    2    0    0  0.88738316024E-02  0.19731659098E-01 -0.23581813564E-02  0.21763370083E-01  0.00000000000E+00 0. -1.
     999901    1    3    3    0    0  0.26532752943E-01  0.16268787671E-01 -0.11955148068E+00  0.88862884095E+00  0.88000000000E+00 0.  1.
        -11    1    4    4    0    0 -0.23934615695E-01 -0.97878141773E-02  0.56075665170E-01  0.61752801395E-01  0.51100000000E-03 0.  1.
         11    1    4    4    0    0 -0.11471968851E-01 -0.26212632592E-01  0.65833996866E-01  0.71784987574E-01  0.51100000000E-03 0. -1.
</event>
<event>
 8    1  0.1122465E+005  0.1043930E+01  0.7957747E-01            NaN
         13   -1    0    0    0    0  0.00000000000E+00  0.00000000000E+00  0.74505805969E-08  0.10566000000E+00  0.10566000000E+00 0. -1.
     999900   -1    0    0    0    0 -0.00000000000E+00 -0.00000000000E+00 -0.74505805969E-08  0.93827000000E+00  0.93827000000E+00 0.  1.
     999902    2    1    2    0    0  0.48224790297E-02  0.77935523684E-02 -0.22145582190E-01  0.10199628856E+01  0.10196812568E+01 0.  0.
     999903    2    3    3    0    0  0.12472206938E+00 -0.80174816223E-02 -0.35947935285E-01  0.13158435956E+00  0.20057792175E-01 0.  0.
         14    1    1    2    0    0 -0.48224790297E-02 -0.77935523684E-02  0.22145582190E-01  0.23967114408E-01  0.00000000000E+00 0. -1.
     999901    1    3    3    0    0 -0.11989959035E+00  0.15811033991E-01  0.13802353095E-01  0.88837852603E+00  0.88000000000E+00 0.  1.
        -11    1    4    4    0    0  0.41755217515E-01 -0.12170237650E-01 -0.13171830165E-01  0.45446354145E-01  0.51100000000E-03 0.  1.
         11    1    4    4    0    0  0.82966851868E-01  0.41527560276E-02 -0.22776105120E-01  0.86138005415E-01  0.51100000000E-03 0. -1.
</event>
<event>
 8    1  0.1122465E+005  0.1043930E+01  0.7957747E-01            NaN
         13   -1    0    0    0    0  0.00000000000E+00  0.00000000000E+00  0.74505805969E-08  0.10566000000E+00  0.10566000000E+00 0. -1.
     999900   -1    0    0    0    0 -0.00000000000E+00 -0.00000000000E+00 -0.74505805969E-08  0.93827000000E+00  0.93827000000E+00 0. -1.
     999902    2    1    2    0    0  0.36587891107E-02 -0.74852416209E-02  0.22066615758E-01  0.10203429037E+01  0.10200702378E+01 0.  0.
     999903    2    3    3    0    0 -0.58297437912E-01  0.10360656401E+00 -0.44984250858E-01  0.12867268326E+00  0.20004130022E-01 0.  0.
         14    1    1    2    0    0 -0.36587891107E-02  0.74852416209E-02 -0.22066615758E-01  0.23587096279E-01  0.00000000000E+00 0.  1.
     999901    1    3    3    0    0  0.61956227023E-01 -0.11109180563E+00  0.67050866616E-01  0.89167022046E+00  0.88000000000E+00 0.  1.
        -11    1    4    4    0    0 -0.18960171693E-01  0.54039828704E-01 -0.21399483250E-01  0.61139105337E-01  0.51100000000E-03 0. -1.
         11    1    4    4    0    0 -0.39337266219E-01  0.49566735308E-01 -0.23584767608E-01  0.67533577921E-01  0.51100000000E-03 0.  1.
</event>
<event>
 8    1  0.1122465E+005  0.1043930E+01  0.7957747E-01            NaN
         13   -1    0    0    0    0  0.00000000000E+00  0.00000000000E+00  0.74505805969E-08  0.10566000000E+00  0.10566000000E+00 0. -1.
     999900   -1    0    0    0    0 -0.00000000000E+00 -0.00000000000E+00 -0.74505805969E-08  0.93827000000E+00  0.93827000000E+00 0.  1.
     999902    2    1    2    0    0 -0.13639875755E-01  0.19426806288E-01 -0.32718913538E-02  0.10199685250E+01  0.10196870302E+01 0.  0.
     999903    2    3    3    0    0 -0.17529062366E-01  0.12843531693E+00 -0.26482771020E-01  0.13293034872E+00  0.12893478471E-01 0.  0.
         14    1    1    2    0    0  0.13639875755E-01 -0.19426806288E-01  0.32718913538E-02  0.23961475042E-01  0.00000000000E+00 0.  1.
     999901    1    3    3    0    0  0.38891866108E-02 -0.10900851064E+00  0.23210879667E-01  0.88703817624E+00  0.88000000000E+00 0. -1.
        -11    1    4    4    0    0 -0.13558406381E-01  0.60739842067E-01 -0.16489915245E-01  0.64384293300E-01  0.51100000000E-03 0. -1.
         11    1    4    4    0    0 -0.39706559848E-02  0.67695474866E-01 -0.99928557752E-02  0.68546055421E-01  0.51100000000E-03 0.  1.
</event>
<event>
 8    1  0.1122465E+005  0.1043930E+01  0.7957747E-01            NaN
         13   -1    0    0    0    0  0.00000000000E+00  0.00000000000E+00  0.74505805969E-08  0.10566000000E+00  0.10566000000E+00 0.  1.
     999900   -1    0    0    0    0 -0.00000000000E+00 -0.00000000000E+00 -0.74505805969E-08  0.93827000000E+00  0.93827000000E+00 0.  1.
     999902    2    1    2    0    0  0.75182644255E-02  0.15814942925E-01  0.15605964700E-01  0.10204740231E+01  0.10202044153E+01 0.  0.
     999903    2    3    3    0    0 -0.88246722171E-01 -0.89979829668E-01  0.18333524335E-01  0.12897477677E+00  0.20359793886E-01 0.  0.
         14    1    1    2    0    0 -0.75182644255E-02 -0.15814942925E-01 -0.15605964700E-01  0.23455976934E-01  0.00000000000E+00 0.  1.
     999901    1    3    3    0    0  0.95764986597E-01  0.10579477259E+00 -0.27275596345E-02  0.89149924630E+00  0.88000000000E+00 0. -1.
        -11    1    4    4    0    0 -0.43677366043E-01 -0.53434804965E-01  0.18040742700E-01  0.71335266203E-01  0.51100000000E-03 0. -1.
         11    1    4    4    0    0 -0.44569356128E-01 -0.36545024703E-01  0.29278163498E-03  0.57639510566E-01  0.51100000000E-03 0.  1.
</event>
<event>
 8    1  0.1122465E+005  0.1043930E+01  0.7957747E-01            NaN
         13   -1    0    0    0    0  0.00000000000E+00  0.00000000000E+00  0.74505805969E-08  0.10566000000E+00  0.10566000000E+00 0.  1.
     999900   -1    0    0    0    0 -0.00000000000E+00 -0.00000000000E+00 -0.74505805969E-08  0.93827000000E+00  0.93827000000E+00 0.  1.
     999902    2    1    2    0    0  0.35246075168E-02  0.17236276374E-01 -0.15910956620E-01  0.10202093208E+01  0.10199335212E+01 0.  0.
     999903    2    3    3    0    0  0.26004005926E-01  0.39987277890E-01 -0.12287376965E+00  0.13315578532E+00  0.18902623645E-01 0.  0.
         14    1    1    2    0    0 -0.35246075168E-02 -0.17236276374E-01  0.15910956620E-01  0.23720679205E-01  0.00000000000E+00 0.  1.
     999901    1    3    3    0    0 -0.22479398409E-01 -0.22751001515E-01  0.10696281303E+00  0.88705353547E+00  0.88000000000E+00 0. -1.
        -11    1    4    4    0    0  0.10659969053E-01  0.19894465672E-01 -0.34458425957E-01  0.41195496659E-01  0.51100000000E-03 0.  1.
         11    1    4    4    0    0  0.15344036872E-01  0.20092812217E-01 -0.88415343690E-01  0.91960288664E-01  0.51100000000E-03 0. -1.
</event>
<event>
 8    1  0.1122465E+005  0.1043930E+01  0.7957747E-01            NaN
         13   -1    0    0    0    0  0.00000000000E+00  0.00000000000E+00  0.74505805969E-08  0.10566000000E+00  0.10566000000E+00 0. -1.
     999900   -1    0    0    0    0 -0.00000000000E+00 -0.00000000000E+00 -0.74505805969E-08  0.93827000000E+00  0.93827000000E+00 0.  1.
     999902    2    1    2    0    0 -0.20229158296E-01  0.12534847438E-01 -0.11117962502E-02  0.10201061184E+01  0.10198278852E+01 0.  0.
     999903    2    3    3    0    0 -0.24432250487E-01 -0.11160620473E+00 -0.57820950576E-01  0.12957560512E+00  0.19841756963E-01 0.  0.
         14    1    1    2    0    0  0.20229158296E-01 -0.12534847438E-01  0.11117962502E-02  0.23823881643E-01  0.00000000000E+00 0.  1.
     999901    1    3    3    0    0  0.42030921917E-02  0.12414105217E+00  0.56709154326E-01  0.89053051323E+00  0.88000000000E+00 0.  1.
        -11    1    4    4    0    0 -0.18900030515E-01 -0.45453979559E-01 -0.19708293252E-01  0.53027854522E-01  0.51100000000E-03 0. -1.
         11    1    4    4    0    0 -0.55322199721E-02 -0.66152225170E-01 -0.38112657324E-01  0.76547750601E-01  0.51100000000E-03 0.  1.
</event>
<event>
 8    1  0.1122465E+005  0.1043930E+01  0.7957747E-01            NaN
         13   -1    0    0    0    0  0.00000000000E+00  0.00000000000E+00  0.74505805969E-08  0.10566000000E+00  0.10566000000E+00 0. -1.
     999900   -1    0    0    0    0 -0.00000000000E+00 -0.00000000000E+00 -0.74505805969E-08  0.93827000000E+00  0.93827000000E+00 0. -1.
     999902    2    1    2    0    0 -0.74952351883E-02 -0.10737965301E-01 -0.19906258360E-01  0.10201026718E+01  0.10198243571E+01 0.  0.
     999903    2    3    3    0    0  0.58604722971E-01  0.10908701471E+00 -0.32642579995E-01  0.12943469535E+00  0.18796595419E-01 0.  0.
         14    1    1    2    0    0  0.74952351883E-02  0.10737965301E-01  0.19906258360E-01  0.23827328244E-01  0.00000000000E+00 0. -1.
     999901    1    3    3    0    0 -0.66099958159E-01 -0.11982498001E+00  0.12736321634E-01  0.89066797640E+00  0.88000000000E+00 0. -1.
        -11    1    4    4    0    0  0.98853002742E-02  0.36346993327E-01 -0.11133219883E-01  0.39281456075E-01  0.51100000000E-03 0.  1.
         11    1    4    4    0    0  0.48719422697E-01  0.72740021383E-01 -0.21509360111E-01  0.90153239277E-01  0.51100000000E-03 0. -1.
</event>
<event>
 8    1  0.1122465E+005  0.1043930E+01  0.7957747E-01            NaN
         13   -1    0    0    0    0  0.00000000000E+00  0.00000000000E+00  0.74505805969E-08  0.10566000000E+00  0.10566000000E+00 0.  1.
     999900   -1    0    0    0    0 -0.00000000000E+00 -0.00000000000E+00 -0.74505805969E-08  0.93827000000E+00  0.93827000000E+00 0. -1.
     999902    2    1    2    0    0 -0.12749613582E-01  0.21920587693E-01  0.11697145390E-01  0.10160035247E+01  0.10156196504E+01 0.  0.
     999903    2    3    3    0    0  0.22822711877E-01 -0.82290001694E-01 -0.87107489102E-01  0.12365404549E+00  0.20250623515E-01 0.  0.
         14    1    1    2    0    0  0.12749613582E-01 -0.21920587693E-01 -0.11697145390E-01  0.27926475280E-01  0.00000000000E+00 0. -1.
     999901    1    3    3    0    0 -0.35572325459E-01  0.10421058939E+00  0.98804634492E-01  0.89234947923E+00  0.88000000000E+00 0.  1.
        -11    1    4    4    0    0  0.14874027586E-01 -0.76291267245E-01 -0.75656664467E-01  0.10847020860E+00  0.51100000000E-03 0. -1.
         11    1    4    4    0    0  0.79486842911E-02 -0.59987344489E-02 -0.11450824635E-01  0.15183836892E-01  0.51100000000E-03 0.  1.
</event>
<event>
 8    1  0.1122465E+005  0.1043930E+01  0.7957747E-01            NaN
         13   -1    0    0    0    0  0.00000000000E+00  0.00000000000E+00  0.74505805969E-08  0.10566000000E+00  0.10566000000E+00 0. -1.
     999900   -1    0    0    0    0 -0.00000000000E+00 -0.00000000000E+00 -0.74505805969E-08  0.93827000000E+00  0.93827000000E+00 0. -1.
     999902    2    1    2    0    0  0.10194448332E-01  0.19905569267E-01  0.81531538709E-02  0.10201259587E+01  0.10198481942E+01 0.  0.
     999903    2    3    3    0    0  0.10109833022E+00  0.68958408361E-01 -0.46790895643E-01  0.13238244543E+00  0.18962844832E-01 0.  0.
         14    1    1    2    0    0 -0.10194448332E-01 -0.19905569267E-01 -0.81531538709E-02  0.23804041310E-01  0.00000000000E+00 0.  1.
     999901    1    3    3    0    0 -0.90903881892E-01 -0.49052839094E-01  0.54944049514E-01  0.88774351326E+00  0.88000000000E+00 0.  1.
        -11    1    4    4    0    0  0.60922421010E-01  0.40097942519E-01 -0.37630676882E-01  0.82071403909E-01  0.51100000000E-03 0. -1.
         11    1    4    4    0    0  0.40175909214E-01  0.28860465841E-01 -0.91602187608E-02  0.50311041516E-01  0.51100000000E-03 0.  1.
</event>
<event>
 8    1  0.1122465E+005  0.1043930E+01  0.7957747E-01            NaN
         13   -1    0    0    0    0  0.00000000000E+00  0.00000000000E+00  0.74505805969E-08  0.10566000000E+00  0.10566000000E+00 0.  1.
     999900   -1    0    0    0    0 -0.00000000000E+00 -0.00000000000E+00 -0.74505805969E-08  0.93827000000E+00  0.93827000000E+00 0. -1.
     999902    2    1    2    0    0 -0.16476645138E-01  0.14126487966E-01 -0.10347470221E-01  0.10198861310E+01  0.10196026739E+01 0.  0.
     999903    2    3    3    0    0  0.77821015735E-02 -0.57379726031E-03 -0.12960719595E+00  0.13138882240E+00  0.20102414338E-01 0.  0.
         14    1    1    2    0    0  0.16476645138E-01 -0.14126487966E-01  0.10347470221E-01  0.24043869015E-01  0.00000000000E+00 0.  1.
     999901    1    3    3    0    0 -0.24258746711E-01  0.14700285227E-01  0.11925972573E+00  0.88849730858E+00  0.88000000000E+00 0.  1.
        -11    1    4    4    0    0 -0.62712708168E-02 -0.25810819056E-02 -0.57069556075E-01  0.57473351852E-01  0.51100000000E-03 0.  1.
         11    1    4    4    0    0  0.14053372390E-01  0.20072846453E-02 -0.72537639874E-01  0.73915470550E-01  0.51100000000E-03 0. -1.
</event>
<event>
 8    1  0.1122465E+005  0.1043930E+01  0.7957747E-01            NaN
         13   -1    0    0    0    0  0.00000000000E+00  0.00000000000E+00  0.74505805969E-08  0.10566000000E+00  0.10566000000E+00 0.  1.
     999900   -1    0    0    0    0 -0.00000000000E+00 -0.00000000000E+00 -0.74505805969E-08  0.93827000000E+00  0.93827000000E+00 0.  1.
     999902    2    1    2    0    0  0.10333833823E-01  0.45349365827E-02 -0.21085964917E-01  0.10200140704E+01  0.10197336575E+01 0.  0.
     999903    2    3    3    0    0  0.76111439207E-01 -0.49908842994E-01 -0.94794364628E-01  0.13281412300E+00  0.19229558418E-01 0.  0.
         14    1    1    2    0    0 -0.10333833823E-01 -0.45349365827E-02  0.21085964917E-01  0.23915929582E-01  0.00000000000E+00 0.  1.
     999901    1    3    3    0    0 -0.65777605383E-01  0.54443779576E-01  0.73708399711E-01  0.88719994741E+00  0.88000000000E+00 0. -1.
        -11    1    4    4    0    0  0.37670862452E-01 -0.22039664902E-01 -0.58804952316E-01  0.73233354728E-01  0.51100000000E-03 0. -1.
         11    1    4    4    0    0  0.38440576755E-01 -0.27869178092E-01 -0.35989412312E-01  0.59580768276E-01  0.51100000000E-03 0.  1.
</event>
<event>
 8    1  0.1122465E+005  0.1043930E+01  0.7957747E-01            NaN
         13   -1    0    0    0    0  0.00000000000E+00  0.00000000000E+00  0.74505805969E-08  0.10566000000E+00  0.10566000000E+00 0. -1.
     999900   -1    0    0    0    0 -0.00000000000E+00 -0.00000000000E+00 -0.74505805969E-08  0.93827000000E+00  0.93827000000E+00 0. -1.
     999902    2    1    2    0    0  0.54574340049E-02 -0.12876914945E-02 -0.22619982650E-01  0.10206253792E+01  0.10203592795E+01 0.  0.
     999903    2    3    3    0    0  0.93266025173E-01  0.83046639535E-01  0.32541352052E-01  0.13053246219E+00  0.19608373284E-01 0.  0.
         14    1    1    2    0    0 -0.54574340049E-02  0.12876914945E-02  0.22619982650E-01  0.23304620795E-01  0.00000000000E+00 0. -1.
     999901    1    3    3    0    0 -0.87808591168E-01 -0.84334331029E-01 -0.55161334701E-01  0.89009291701E+00  0.88000000000E+00 0. -1.
        -11    1    4    4    0    0  0.27600563652E-01  0.37044163662E-01  0.10421698335E-01  0.47359625131E-01  0.51100000000E-03 0.  1.
         11    1    4    4    0    0  0.65665461521E-01  0.46002475872E-01  0.22119653717E-01  0.83172837060E-01  0.51100000000E-03 0. -1.
</event>
<event>
 8    1  0.1122465E+005  0.1043930E+01  0.7957747E-01            NaN
         13   -1    0    0    0    0  0.00000000000E+00  0.00000000000E+00  0.74505805969E-08  0.10566000000E+00  0.10566000000E+00 0.  1.
     999900   -1    0    0    0    0 -0.00000000000E+00 -0.00000000000E+00 -0.74505805969E-08  0.93827000000E+00  0.93827000000E+00 0.  1.
     999902    2    1    2    0    0  0.24967019566E-02 -0.19491162261E-01  0.13467072200E-01  0.10201077213E+01  0.10198295260E+01 0.  0.
     999903    2    3    3    0    0 -0.10430111485E-01 -0.53383307151E-01 -0.11626679696E+00  0.12985682592E+00  0.19653560845E-01 0.  0.
         14    1    1    2    0    0 -0.24967019566E-02  0.19491162261E-01 -0.13467072200E-01  0.23822278660E-01  0.00000000000E+00 0. -1.
     999901    1    3    3    0    0  0.12926813441E-01  0.33892144891E-01  0.12973386916E+00  0.89025089542E+00  0.88000000000E+00 0. -1.
        -11    1    4    4    0    0 -0.15796983300E-01 -0.31373716679E-01 -0.73137787688E-01  0.81137241070E-01  0.51100000000E-03 0.  1.
         11    1    4    4    0    0  0.53668718147E-02 -0.22009590473E-01 -0.43129009273E-01  0.48719584848E-01  0.51100000000E-03 0. -1.
</event>
<event>
 8    1  0.1122465E+005  0.1043930E+01  0.7957747E-01            NaN
         13   -1    0    0    0    0  0.00000000000E+00  0.00000000000E+00  0.74505805969E-08  0.10566000000E+00  0.10566000000E+00 0. -1.
     999900   -1    0    0    0    0 -0.00000000000E+00 -0.00000000000E+00 -0.74505805969E-08  0.93827000000E+00  0.93827000000E+00 0. -1.
     999902    2    1    2    0    0 -0.64884496560E-02  0.20250565947E-01  0.10444002265E-01  0.10202390189E+01  0.10199639176E+01 0.  0.
     999903    2    3    3    0    0  0.14064865938E-01  0.10872810275E+00 -0.71694466114E-01  0.13175860763E+00  0.14163807108E-01 0.  0.
         14    1    1    2    0    0  0.64884496560E-02 -0.20250565947E-01 -0.10444002265E-01  0.23690981057E-01  0.00000000000E+00 0.  1.
     999901    1    3    3    0    0 -0.20553315594E-01 -0.88477536802E-01  0.82138468380E-01  0.88848041131E+00  0.88000000000E+00 0.  1.
        -11    1    4    4    0    0  0.44740613522E-02  0.31014161054E-01 -0.28338527698E-01  0.42251966629E-01  0.51100000000E-03 0. -1.
         11    1    4    4    0    0  0.95908045854E-02  0.77713941695E-01 -0.43355938416E-01  0.89506641001E-01  0.51100000000E-03 0.  1.
</event>
<event>
 8    1  0.1122465E+005  0.1043930E+01  0.7957747E-01            NaN
         13   -1    0    0    0    0  0.00000000000E+00  0.00000000000E+00  0.74505805969E-08  0.10566000000E+00  0.10566000000E+00 0. -1.
     999900   -1    0    0    0    0 -0.00000000000E+00 -0.00000000000E+00 -0.74505805969E-08  0.93827000000E+00  0.93827000000E+00 0. -1.
     999902    2    1    2    0    0 -0.18040516230E-01 -0.37682796079E-02 -0.15610184688E-01  0.10197776083E+01  0.10194915558E+01 0.  0.
     999903    2    3    3    0    0 -0.23420382184E-01  0.76237970083E-01 -0.10307269451E+00  0.13181385144E+00  0.19752688246E-01 0.  0.
         14    1    1    2    0    0  0.18040516230E-01  0.37682796079E-02  0.15610184688E-01  0.24152391663E-01  0.00000000000E+00 0. -1.
     999901    1    3    3    0    0  0.53798659537E-02 -0.80006249691E-01  0.87462509821E-01  0.88796375690E+00  0.88000000000E+00 0.  1.
        -11    1    4    4    0    0 -0.22766642492E-01  0.54080317538E-01 -0.84576058587E-01  0.10293867865E+00  0.51100000000E-03 0.  1.
         11    1    4    4    0    0 -0.65373969184E-03  0.22157652545E-01 -0.18496635922E-01  0.28875172784E-01  0.51100000000E-03 0. -1.
</event>
<event>
 8    1  0.1122465E+005  0.1043930E+01  0.7957747E-01            NaN
         13   -1    0    0    0    0  0.00000000000E+00  0.00000000000E+00  0.74505805969E-08  0.10566000000E+00  0.10566000000E+00 0. -1.
     999900   -1    0    0    0    0 -0.00000000000E+00 -0.00000000000E+00 -0.74505805969E-08  0.93827000000E+00  0.93827000000E+00 0.  1.
     999902    2    1    2    0    0  0.10621334593E-01 -0.19918904784E-01 -0.17314154162E-03  0.10213555566E+01  0.10211060511E+01 0.  0.
     999903    2    3    3    0    0  0.68707395290E-01  0.31044325511E-01  0.10595990671E+00  0.13161656948E+00  0.20272227775E-01 0.  0.
         14    1    1    2    0    0 -0.10621334593E-01  0.19918904784E-01  0.17314154162E-03  0.22574443389E-01  0.00000000000E+00 0. -1.
     999901    1    3    3    0    0 -0.58086060697E-01 -0.50963230295E-01 -0.10613304825E+00  0.88973898713E+00  0.88000000000E+00 0. -1.
        -11    1    4    4    0    0  0.42528107504E-01  0.81861151419E-02  0.59396192330E-01  0.73510687612E-01  0.51100000000E-03 0.  1.
         11    1    4    4    0    0  0.26179287787E-01  0.22858210369E-01  0.46563714376E-01  0.58105881869E-01  0.51100000000E-03 0. -1.
</event>
<event>
 8    1  0.1122465E+005  0.1043930E+01  0.7957747E-01            NaN
         13   -1    0    0    0    0  0.00000000000E+00  0.00000000000E+00  0.74505805969E-08  0.10566000000E+00  0.10566000000E+00 0. -1.
     999900   -1    0    0    0    0 -0.00000000000E+00 -0.00000000000E+00 -0.74505805969E-08  0.93827000000E+00  0.93827000000E+00 0. -1.
     999902    2    1    2    0    0 -0.65120991426E-03 -0.66829549458E-02  0.22447513441E-01  0.10204997456E+01  0.10202307357E+01 0.  0.
     999903    2    3    3    0    0 -0.34862821942E-01  0.99642370144E-01 -0.71113413600E-01  0.12851927709E+00  0.17778321291E-01 0.  0.
         14    1    1    2    0    0  0.65120991426E-03  0.66829549458E-02 -0.22447513441E-01  0.23430254391E-01  0.00000000000E+00 0.  1.
     999901    1    3    3    0    0  0.34211612028E-01 -0.10632532509E+00  0.93560927041E-01  0.89198046852E+00  0.88000000000E+00 0. -1.
        -11    1    4    4    0    0 -0.16011901236E-01  0.51908129301E-01 -0.26172452078E-01  0.60300026846E-01  0.51100000000E-03 0.  1.
         11    1    4    4    0    0 -0.18850920705E-01  0.47734240842E-01 -0.44940961522E-01  0.68219250243E-01  0.51100000000E-03 0. -1.
</event>
<event>
 8    1  0.1122465E+005  0.1043930E+01  0.7957747E-01            NaN
         13   -1    0    0    0    0  0.00000000000E+00  0.00000000000E+00  0.74505805969E-08  0.10566000000E+00  0.10566000000E+00 0. -1.
     999900   -1    0    0    0    0 -0.00000000000E+00 -0.00000000000E+00 -0.74505805969E-08  0.93827000000E+00  0.93827000000E+00 0. -1.
     999902    2    1    2    0    0  0.19019153519E-01  0.12288866201E-01  0.68153476309E-02  0.10202827296E+01  0.10200086544E+01 0.  0.
     999903    2    3    3    0    0 -0.20164718073E-01 -0.13571571673E-01 -0.12534240828E+00  0.12917678166E+00  0.19624428533E-01 0.  0.
         14    1    1    2    0    0 -0.19019153519E-01 -0.12288866201E-01 -0.68153476309E-02  0.23647270380E-01  0.00000000000E+00 0. -1.
     999901    1    3    3    0    0  0.39183871592E-01  0.25860437874E-01  0.13215775591E+00  0.89110594796E+00  0.88000000000E+00 0.  1.
        -11    1    4    4    0    0 -0.58254264125E-02 -0.15212576692E-01 -0.77823816857E-01  0.79512047349E-01  0.51100000000E-03 0.  1.
         11    1    4    4    0    0 -0.14339291660E-01  0.16410050195E-02 -0.47518591421E-01  0.49664734313E-01  0.51100000000E-03 0. -1.
</event>
<event>
 8    1  0.1122465E+005  0.1043930E+01  0.7957747E-01            NaN
         13   -1    0    0    0    0  0.00000000000E+00  0.00000000000E+00  0.74505805969E-08  0.10566000000E+00  0.10566000000E+00 0. -1.
     999900   -1    0    0    0    0 -0.00000000000E+00 -0.00000000000E+00 -0.74505805969E-08  0.93827000000E+00  0.93827000000E+00 0. -1.
     999902    2    1    2    0    0 -0.10802949829E-01 -0.17311904733E-01  0.12233955463E-01  0.10201376601E+01  0.10198601719E+01 0.  0.
     999903    2    3    3    0    0 -0.89180218086E-01 -0.16108116275E-01  0.94842584414E-01  0.13279971387E+00  0.20689743294E-01 0.  0.
         14    1    1    2    0    0  0.10802949829E-01  0.17311904733E-01 -0.12233955463E-01  0.23792339876E-01  0.00000000000E+00 0. -1.
     999901    1    3    3    0    0  0.78377268257E-01 -0.12037884581E-02 -0.82608628951E-01  0.88733794625E+00  0.88000000000E+00 0. -1.
        -11    1    4    4    0    0 -0.69834909288E-01 -0.54555627144E-02  0.64156364330E-01  0.94989356903E-01  0.51100000000E-03 0. -1.
         11    1    4    4    0    0 -0.19345308798E-01 -0.10652553561E-01  0.30686220084E-01  0.37810356966E-01  0.51100000000E-03 0.  1.
</event>
<event>
 8    1  0.1122465E+005  0.1043930E+01  0.7957747E-01            NaN
         13   -1    0    0    0    0  0.00000000000E+00  0.00000000000E+00  0.74505805969E-08  0.10566000000E+00  0.10566000000E+00 0. -1.
     999900   -1    0    0    0    0 -0.00000000000E+00 -0.00000000000E+00 -0.74505805969E-08  0.93827000000E+00  0.93827000000E+00 0.  1.
     999902    2    1    2    0    0  0.14563619407E-01 -0.47489612314E-03  0.20010718885E-01  0.10191761436E+01  0.10188754871E+01 0.  0.
     999903    2    3    3    0    0  0.97897644881E-01  0.70478010032E-01 -0.43111475386E-01  0.13015236095E+00  0.23020403574E-01 0.  0.
         14    1    1    2    0    0 -0.14563619407E-01  0.47489612314E-03 -0.20010718885E-01  0.24753856404E-01  0.00000000000E+00 0.  1.
     999901    1    3    3    0    0 -0.83334025474E-01 -0.70952906156E-01  0.63122194271E-01  0.88902378264E+00  0.88000000000E+00 0.  1.
        -11    1    4    4    0    0  0.27662413027E-01  0.29097786115E-01 -0.60577645646E-02  0.40606007976E-01  0.51100000000E-03 0.  1.
         11    1    4    4    0    0  0.70235231854E-01  0.41380223918E-01 -0.37053710822E-01  0.89546352978E-01  0.51100000000E-03 0. -1.
</event>
<event>
 8    1  0.1122465E+005  0.1043930E+01  0.7957747E-01            NaN
         13   -1    0    0    0    0  0.00000000000E+00  0.00000000000E+00  0.74505805969E-08  0.10566000000E+00  0.10566000000E+00 0.  1.
     999900   -1    0    0    0    0 -0.00000000000E+00 -0.00000000000E+00 -0.74505805969E-08  0.93827000000E+00  0.93827000000E+00 0. -1.
     999902    2    1    2    0    0 -0.30509641686E-01  0.18968038103E-01  0.10699755996E-01  0.10064452100E+01  0.10057469121E+01 0.  0.
     999903    2    3    3    0    0  0.93375792428E-01  0.65728997805E-01  0.12904316645E-01  0.11653563691E+00  0.19357001768E-01 0.  0.
         14    1    1    2    0    0  0.30509641686E-01 -0.18968038103E-01 -0.10699755996E-01  0.37484790031E-01  0.00000000000E+00 0.  1.
     999901    1    3    3    0    0 -0.12388543411E+00 -0.46760959702E-01 -0.22045606486E-02  0.88990957306E+00  0.88000000000E+00 0.  1.
        -11    1    4    4    0    0  0.34321708378E-01  0.14958208212E-01  0.92552058631E-02  0.38570035201E-01  0.51100000000E-03 0.  1.
         11    1    4    4    0    0  0.59054084050E-01  0.50770789593E-01  0.36491107816E-02  0.77965601706E-01  0.51100000000E-03 0. -1.
</event>
<event>
 8    1  0.1122465E+005  0.1043930E+01  0.7957747E-01            NaN
         13   -1    0    0    0    0  0.00000000000E+00  0.00000000000E+00  0.74505805969E-08  0.10566000000E+00  0.10566000000E+00 0. -1.
     999900   -1    0    0    0    0 -0.00000000000E+00 -0.00000000000E+00 -0.74505805969E-08  0.93827000000E+00  0.93827000000E+00 0. -1.
     999902    2    1    2    0    0 -0.15087028255E-01  0.61829919214E-02 -0.17804905469E-01  0.10197874552E+01  0.10195016387E+01 0.  0.
     999903    2    3    3    0    0 -0.49781842435E-01 -0.77068165238E-01  0.88278912147E-01  0.12883949844E+00  0.19715884419E-01 0.  0.
         14    1    1    2    0    0  0.15087028255E-01 -0.61829919214E-02  0.17804905469E-01  0.24142544800E-01  0.00000000000E+00 0. -1.
     999901    1    3    3    0    0  0.34694814180E-01  0.83251157159E-01 -0.10608381762E+00  0.89094795676E+00  0.88000000000E+00 0. -1.
        -11    1    4    4    0    0 -0.47895907432E-01 -0.75178047218E-01  0.78794170621E-01  0.11897285059E+00  0.51100000000E-03 0.  1.
         11    1    4    4    0    0 -0.18859350033E-02 -0.18901180197E-02  0.94847415262E-02  0.98666478494E-02  0.51100000000E-03 0. -1.
</event>
<event>
 8    1  0.1122465E+005  0.1043930E+01  0.7957747E-01            NaN
         13   -1    0    0    0    0  0.00000000000E+00  0.00000000000E+00  0.74505805969E-08  0.10566000000E+00  0.10566000000E+00 0. -1.
     999900   -1    0    0    0    0 -0.00000000000E+00 -0.00000000000E+00 -0.74505805969E-08  0.93827000000E+00  0.93827000000E+00 0. -1.
     999902    2    1    2    0    0 -0.15500078642E-01 -0.60270889291E-03 -0.17571880555E-01  0.10204910008E+01  0.10202217877E+01 0.  0.
     999903    2    3    3    0    0 -0.10294617420E+00 -0.40547279126E-01  0.67778378789E-01  0.13115020277E+00  0.19091108647E-01 0.  0.
         14    1    1    2    0    0  0.15500078642E-01  0.60270889291E-03  0.17571880555E-01  0.23438999171E-01  0.00000000000E+00 0. -1.
     999901    1    3    3    0    0  0.87446095555E-01  0.39944570233E-01 -0.85350259344E-01  0.88934079806E+00  0.88000000000E+00 0. -1.
        -11    1    4    4    0    0 -0.58843430869E-01 -0.15716647913E-01  0.44536293905E-01  0.75453992432E-01  0.51100000000E-03 0. -1.
         11    1    4    4    0    0 -0.44102743328E-01 -0.24830631212E-01  0.23242084885E-01  0.55696210340E-01  0.51100000000E-03 0.  1.
</event>
<event>
 8    1  0.1122465E+005  0.1043930E+01  0.7957747E-01            NaN
         13   -1    0    0    0    0  0.00000000000E+00  0.00000000000E+00  0.74505805969E-08  0.10566000000E+00  0.10566000000E+00 0. -1.
     999900   -1    0    0    0    0 -0.00000000000E+00 -0.00000000000E+00 -0.74505805969E-08  0.93827000000E+00  0.93827000000E+00 0.  1.
     999902    2    1    2    0    0  0.96184999600E-02  0.11778020291E-01  0.18453736828E-01  0.10200181262E+01  0.10197378095E+01 0.  0.
     999903    2    3    3    0    0  0.43042475119E-04  0.12466640788E+00  0.35053333403E-01  0.13259994746E+00  0.28500785569E-01 0.  0.
         14    1    1    2    0    0 -0.96184999600E-02 -0.11778020291E-01 -0.18453736828E-01  0.23911873753E-01  0.00000000000E+00 0.  1.
     999901    1    3    3    0    0  0.95754574849E-02 -0.11288838758E+00 -0.16599596575E-01  0.88741817879E+00  0.88000000000E+00 0. -1.
        -11    1    4    4    0    0  0.10732784800E-01  0.74508841215E-01  0.30101783203E-01  0.81074894769E-01  0.51100000000E-03 0.  1.
         11    1    4    4    0    0 -0.10689742325E-01  0.50157566661E-01  0.49515502001E-02  0.51525052690E-01  0.51100000000E-03 0. -1.
</event>
<event>
 8    1  0.1122465E+005  0.1043930E+01  0.7957747E-01            NaN
         13   -1    0    0    0    0  0.00000000000E+00  0.00000000000E+00  0.74505805969E-08  0.10566000000E+00  0.10566000000E+00 0. -1.
     999900   -1    0    0    0    0 -0.00000000000E+00 -0.00000000000E+00 -0.74505805969E-08  0.93827000000E+00  0.93827000000E+00 0. -1.
     999902    2    1    2    0    0  0.12474194176E-01  0.93984670392E-02  0.15130930791E-01  0.10221841551E+01  0.10219528195E+01 0.  0.
     999903    2    3    3    0    0  0.11783405454E+00  0.58183943444E-01  0.19980771201E-01  0.13454445128E+00  0.20802462995E-01 0.  0.
         14    1    1    2    0    0 -0.12474194176E-01 -0.93984670392E-02 -0.15130930791E-01  0.21745844882E-01  0.00000000000E+00 0.  1.
     999901    1    3    3    0    0 -0.10535986037E+00 -0.48785476405E-01 -0.48498404092E-02  0.88763970384E+00  0.88000000000E+00 0. -1.
        -11    1    4    4    0    0  0.48862988157E-01  0.18482549557E-01 -0.95760784364E-03  0.52252984446E-01  0.51100000000E-03 0. -1.
         11    1    4    4    0    0  0.68971066386E-01  0.39701393887E-01  0.20938379044E-01  0.82291466830E-01  0.51100000000E-03 0.  1.
</event>
<event>
 8    1  0.1122465E+005  0.1043930E+01  0.7957747E-01            NaN
         13   -1    0    0    0    0  0.00000000000E+00  0.00000000000E+00  0.74505805969E-08  0.10566000000E+00  0.10566000000E+00 0.  1.
     999900   -1    0    0    0    0 -0.00000000000E+00 -0.00000000000E+00 -0.74505805969E-08  0.93827000000E+00  0.93827000000E+00 0.  1.
     999902    2    1    2    0    0 -0.12990535776E-01 -0.14043101584E-01 -0.14498753098E-01  0.10199263219E+01  0.10196438229E+01 0.  0.
     999903    2    3    3    0    0  0.33364622864E-01 -0.12566447836E+00  0.78670182547E-03  0.13153351596E+00  0.19891901377E-01 0.  0.
         14    1    1    2    0    0  0.12990535776E-01  0.14043101584E-01  0.14498753098E-01  0.24003678119E-01  0.00000000000E+00 0.  1.
     999901    1    3    3    0    0 -0.46355158640E-01  0.11162137677E+00 -0.15285454923E-01  0.88839280592E+00  0.88000000000E+00 0. -1.
        -11    1    4    4    0    0  0.11562141409E-01 -0.21056125080E-01 -0.49123514762E-02  0.24524188781E-01  0.51100000000E-03 0.  1.
         11    1    4    4    0    0  0.21802481455E-01 -0.10460835328E+00  0.56990533017E-02  0.10700932718E+00  0.51100000000E-03 0. -1.
</event>
<event>
 8    1  0.1122465E+005  0.1043930E+01  0.7957747E-01            NaN
         13   -1    0    0    0    0  0.00000000000E+00  0.00000000000E+00  0.74505805969E-08  0.10566000000E+00  0.10566000000E+00 0. -1.
     999900   -1    0    0    0    0 -0.00000000000E+00 -0.00000000000E+00 -0.74505805969E-08  0.93827000000E+00  0.93827000000E+00 0.  1.
     999902    2    1    2    0    0  0.14871745970E-01  0.13438139852E-01  0.50554533127E-02  0.10232585211E+01  0.10230497011E+01 0.  0.
     999903    2    3    3    0    0  0.13310831004E-02 -0.46525575074E-02  0.13211841748E+00  0.13384544513E+00  0.20878430771E-01 0.  0.
         14    1    1    2    0    0 -0.14871745970E-01 -0.13438139852E-01 -0.50554533127E-02  0.20671478880E-01  0.00000000000E+00 0.  1.
     999901    1    3    3    0    0  0.13540662870E-01  0.18090697359E-01 -0.12706296416E+00  0.88941307599E+00  0.88000000000E+00 0.  1.
        -11    1    4    4    0    0  0.10675001841E-01 -0.64205438597E-03  0.52654779102E-01  0.53732250850E-01  0.51100000000E-03 0.  1.
         11    1    4    4    0    0 -0.93439187405E-02 -0.40105031215E-02  0.79463638376E-01  0.80113194279E-01  0.51100000000E-03 0. -1.
</event>
<event>
 8    1  0.1122465E+005  0.1043930E+01  0.7957747E-01            NaN
         13   -1    0    0    0    0  0.00000000000E+00  0.00000000000E+00  0.74505805969E-08  0.10566000000E+00  0.10566000000E+00 0.  1.
     999900   -1    0    0    0    0 -0.00000000000E+00 -0.00000000000E+00 -0.74505805969E-08  0.93827000000E+00  0.93827000000E+00 0.  1.
     999902    2    1    2    0    0  0.10587051453E-01  0.14576384521E-01  0.83429084724E-02  0.10240765175E+01  0.10238840525E+01 0.  0.
     999903    2    3    3    0    0 -0.22957957835E-02  0.13433522298E+00  0.17931690943E-02  0.13584735441E+00  0.20001635777E-01 0.  0.
         14    1    1    2    0    0 -0.10587051453E-01 -0.14576384521E-01 -0.83429084724E-02  0.19853482464E-01  0.00000000000E+00 0. -1.
     999901    1    3    3    0    0  0.12882847236E-01 -0.11975883846E+00  0.65497393780E-02  0.88822916313E+00  0.88000000000E+00 0. -1.
        -11    1    4    4    0    0 -0.71993343574E-02  0.57358266959E-01  0.84547853821E-02  0.58425557084E-01  0.51100000000E-03 0.  1.
         11    1    4    4    0    0  0.49035385740E-02  0.76976956020E-01 -0.66616162877E-02  0.77421797326E-01  0.51100000000E-03 0. -1.
</event>
<event>
 8    1  0.1122465E+005  0.1043930E+01  0.7957747E-01            NaN
         13   -1    0    0    0    0  0.00000000000E+00  0.00000000000E+00  0.74505805969E-08  0.10566000000E+00  0.10566000000E+00 0.  1.
     999900   -1    0    0    0    0 -0.00000000000E+00 -0.00000000000E+00 -0.74505805969E-08  0.93827000000E+00  0.93827000000E+00 0. -1.
     999902    2    1    2    0    0  0.15504339600E-01 -0.37403434701E-02  0.14462348975E-01  0.10224001544E+01  0.10221734400E+01 0.  0.
     999903    2    3    3    0    0 -0.29150161879E-01  0.82405622020E-01  0.98364622142E-01  0.13310001193E+00  0.19989892654E-01 0.  0.
         14    1    1    2    0    0 -0.15504339600E-01  0.37403434701E-02 -0.14462348975E-01  0.21529845647E-01  0.00000000000E+00 0.  1.
     999901    1    3    3    0    0  0.44654501479E-01 -0.86145965490E-01 -0.83902273167E-01  0.88930014242E+00  0.88000000000E+00 0. -1.
        -11    1    4    4    0    0 -0.10859104467E-01  0.26693371717E-01  0.19399838097E-01  0.34742928527E-01  0.51100000000E-03 0. -1.
         11    1    4    4    0    0 -0.18291057413E-01  0.55712250303E-01  0.78964784045E-01  0.98357083402E-01  0.51100000000E-03 0.  1.
</event>
<event>
 8    1  0.1122465E+005  0.1043930E+01  0.7957747E-01            NaN
         13   -1    0    0    0    0  0.00000000000E+00  0.00000000000E+00  0.74505805969E-08  0.10566000000E+00  0.10566000000E+00 0.  1.
     999900   -1    0    0    0    0 -0.00000000000E+00 -0.00000000000E+00 -0.74505805969E-08  0.93827000000E+00  0.93827000000E+00 0. -1.
     999902    2    1    2    0    0 -0.14651717093E-01 -0.62351993378E-02  0.17816843748E-01  0.10200345936E+01  0.10197546674E+01 0.  0.
     999903    2    3    3    0    0  0.11702752568E+00 -0.31193184832E-01 -0.35988892479E-01  0.12826254805E+00  0.22082216959E-01 0.  0.
         14    1    1    2    0    0  0.14651717093E-01  0.62351993378E-02 -0.17816843748E-01  0.23895406372E-01  0.00000000000E+00 0. -1.
     999901    1    3    3    0    0 -0.13167924277E+00  0.24957985494E-01  0.53805736227E-01  0.89177204557E+00  0.88000000000E+00 0.  1.
        -11    1    4    4    0    0  0.76100176836E-01 -0.27374197640E-01 -0.31944677208E-01  0.86955776885E-01  0.51100000000E-03 0. -1.
         11    1    4    4    0    0  0.40927348840E-01 -0.38189871915E-02 -0.40442152714E-02  0.41306771168E-01  0.51100000000E-03 0.  1.
</event>
<event>
 8    1  0.1122465E+005  0.1043930E+01  0.7957747E-01            NaN
         13   -1    0    0    0    0  0.00000000000E+00  0.00000000000E+00  0.74505805969E-08  0.10566000000E+00  0.10566000000E+00 0. -1.
     999900   -1    0    0    0    0 -0.00000000000E+00 -0.00000000000E+00 -0.74505805969E-08  0.93827000000E+00  0.93827000000E+00 0. -1.
     999902    2    1    2    0    0  0.12952801642E-01 -0.25554296633E-01 -0.21722153129E-02  0.10151982116E+01  0.10147915516E+01 0.  0.
     999903    2    3    3    0    0  0.50243706516E-02  0.40183184822E-01 -0.11719079259E+00  0.12524678054E+00  0.17695805268E-01 0.  0.
         14    1    1    2    0    0 -0.12952801642E-01  0.25554296633E-01  0.21722153129E-02  0.28731788426E-01  0.00000000000E+00 0.  1.
     999901    1    3    3    0    0  0.79284309900E-02 -0.65737481455E-01  0.11501857728E+00  0.88995143104E+00  0.88000000000E+00 0.  1.
        -11    1    4    4    0    0  0.68697589222E-02  0.24336490599E-01 -0.48194643498E-01  0.54428330355E-01  0.51100000000E-03 0.  1.
         11    1    4    4    0    0 -0.18453882706E-02  0.15846694223E-01 -0.68996149092E-01  0.70818450182E-01  0.51100000000E-03 0. -1.
</event>
<event>
 8    1  0.1122465E+005  0.1043930E+01  0.7957747E-01            NaN
         13   -1    0    0    0    0  0.00000000000E+00  0.00000000000E+00  0.74505805969E-08  0.10566000000E+00  0.10566000000E+00 0. -1.
     999900   -1    0    0    0    0 -0.00000000000E+00 -0.00000000000E+00 -0.74505805969E-08  0.93827000000E+00  0.93827000000E+00 0.  1.
     999902    2    1    2    0    0 -0.23389352245E-01 -0.36960796186E-02 -0.44790817070E-02  0.10198305192E+01  0.10195457336E+01 0.  0.
     999903    2    3    3    0    0 -0.42867847875E-02  0.22327973920E-01 -0.12717347758E+00  0.13073205769E+00  0.20021552500E-01 0.  0.
         14    1    1    2    0    0  0.23389352245E-01  0.36960796186E-02  0.44790817070E-02  0.24099480822E-01  0.00000000000E+00 0.  1.
     999901    1    3    3    0    0 -0.19102567457E-01 -0.26024053538E-01  0.12269439587E+00  0.88909846149E+00  0.88000000000E+00 0. -1.
        -11    1    4    4    0    0 -0.71093513082E-02  0.32514940878E-02 -0.15109274891E-01  0.17019588672E-01  0.51100000000E-03 0.  1.
         11    1    4    4    0    0  0.28225665207E-02  0.19076479832E-01 -0.11206420269E+00  0.11371246902E+00  0.51100000000E-03 0. -1.
</event>
<event>
 8    1  0.1122465E+005  0.1043930E+01  0.7957747E-01            NaN
         13   -1    0    0    0    0  0.00000000000E+00  0.00000000000E+00  0.74505805969E-08  0.10566000000E+00  0.10566000000E+00 0. -1.
     999900   -1    0    0    0    0 -0.00000000000E+00 -0.00000000000E+00 -0.74505805969E-08  0.93827000000E+00  0.93827000000E+00 0. -1.
     999902    2    1    2    0    0  0.18584906808E-01 -0.97937661996E-02 -0.11824646500E-01  0.10198231777E+01  0.10195382165E+01 0.  0.
     999903    2    3    3    0    0  0.12520123123E+00 -0.30027811501E-01  0.23689649985E-01  0.13244630032E+00  0.20094904488E-01 0.  0.
         14    1    1    2    0    0 -0.18584906808E-01  0.97937661996E-02  0.11824646500E-01  0.24106822319E-01  0.00000000000E+00 0. -1.
     999901    1    3    3    0    0 -0.10661632442E+00  0.20234045302E-01 -0.35514296485E-01  0.88737687736E+00  0.88000000000E+00 0. -1.
        -11    1    4    4    0    0  0.64680849987E-01 -0.53004873579E-02  0.10339031665E-01  0.65718066147E-01  0.51100000000E-03 0.  1.
         11    1    4    4    0    0  0.60520381244E-01 -0.24727324143E-01  0.13350618320E-01  0.66728234172E-01  0.51100000000E-03 0. -1.
</event>
<event>
 8    1  0.1122465E+005  0.1043930E+01  0.7957747E-01            NaN
         13   -1    0    0    0    0  0.00000000000E+00  0.00000000000E+00  0.74505805969E-08  0.10566000000E+00  0.10566000000E+00 0. -1.
     999900   -1    0    0    0    0 -0.00000000000E+00 -0.00000000000E+00 -0.74505805969E-08  0.93827000000E+00  0.93827000000E+00 0. -1.
     999902    2    1    2    0    0  0.37539974570E-02  0.22108170710E-01  0.21242446506E-02  0.10214049889E+01  0.10211565870E+01 0.  0.
     999903    2    3    3    0    0 -0.68437838706E-01  0.11303013534E+00 -0.34011376835E-03  0.13377638532E+00  0.20891537245E-01 0.  0.
         14    1    1    2    0    0 -0.37539974570E-02 -0.22108170710E-01 -0.21242446506E-02  0.22525011085E-01  0.00000000000E+00 0.  1.
     999901    1    3    3    0    0  0.72191836163E-01 -0.90921964635E-01  0.24643584190E-02  0.88762860360E+00  0.88000000000E+00 0. -1.
        -11    1    4    4    0    0 -0.64066385479E-01  0.11233342473E+00 -0.38149933760E-03  0.12932017137E+00  0.51100000000E-03 0.  1.
         11    1    4    4    0    0 -0.43714532268E-02  0.69671061438E-03  0.41385569247E-04  0.44562139490E-02  0.51100000000E-03 0. -1.
</event>
<event>
 8    1  0.1122465E+005  0.1043930E+01  0.7957747E-01            NaN
         13   -1    0    0    0    0  0.00000000000E+00  0.00000000000E+00  0.74505805969E-08  0.10566000000E+00  0.10566000000E+00 0.  1.
     999900   -1    0    0    0    0 -0.00000000000E+00 -0.00000000000E+00 -0.74505805969E-08  0.93827000000E+00  0.93827000000E+00 0. -1.
     999902    2    1    2    0    0  0.50850875299E-02  0.57094301654E-02  0.20633027014E-01  0.10219259660E+01  0.10216890439E+01 0.  0.
     999903    2    3    3    0    0  0.48240748300E-02  0.10864225760E+00 -0.72175773524E-01  0.13107878016E+00  0.12078596359E-01 0.  0.
         14    1    1    2    0    0 -0.50850875299E-02 -0.57094301654E-02 -0.20633027014E-01  0.22004033988E-01  0.00000000000E+00 0. -1.
     999901    1    3    3    0    0  0.26101269989E-03 -0.10293282743E+00  0.92808800538E-01  0.89084718586E+00  0.88000000000E+00 0.  1.
        -11    1    4    4    0    0 -0.36692078715E-02  0.36366498409E-01 -0.26637660411E-01  0.45230646315E-01  0.51100000000E-03 0.  1.
         11    1    4    4    0    0  0.84932827015E-02  0.72275759186E-01 -0.45538113114E-01  0.85848133841E-01  0.51100000000E-03 0. -1.
</event>
<event>
 8    1  0.1122465E+005  0.1043930E+01  0.7957747E-01            NaN
         13   -1    0    0    0    0  0.00000000000E+00  0.00000000000E+00  0.74505805969E-08  0.10566000000E+00  0.10566000000E+00 0.  1.
     999900   -1    0    0    0    0 -0.00000000000E+00 -0.00000000000E+00 -0.74505805969E-08  0.93827000000E+00  0.93827000000E+00 0. -1.
     999902    2    1    2    0    0  0.20187077582E-01 -0.80772402467E-02  0.94976522453E-02  0.10202031100E+01  0.10199271642E+01 0.  0.
     999903    2    3    3    0    0  0.37628856638E-01  0.96037298855E-01  0.77517251321E-01  0.13128763664E+00  0.24257486645E-01 0.  0.
         14    1    1    2    0    0 -0.20187077582E-01  0.80772402467E-02 -0.94976522453E-02  0.23726890009E-01  0.00000000000E+00 0.  1.
     999901    1    3    3    0    0 -0.17441779056E-01 -0.10411453910E+00 -0.68019599076E-01  0.88891547335E+00  0.88000000000E+00 0. -1.
        -11    1    4    4    0    0  0.17464036201E-01  0.22238249845E-01  0.12639529021E-01  0.30976622338E-01  0.51100000000E-03 0. -1.
         11    1    4    4    0    0  0.20164820437E-01  0.73799049010E-01  0.64877722300E-01  0.10031101430E+00  0.51100000000E-03 0.  1.
</event>
<event>
 8    1  0.1122465E+005  0.1043930E+01  0.7957747E-01            NaN
         13   -1    0    0    0    0  0.00000000000E+00  0.00000000000E+00  0.74505805969E-08  0.10566000000E+00  0.10566000000E+00 0. -1.
     999900   -1    0    0    0    0 -0.00000000000E+00 -0.00000000000E+00 -0.74505805969E-08  0.93827000000E+00  0.93827000000E+00 0. -1.
     999902    2    1    2    0    0 -0.90715611615E-02  0.16114352672E-01 -0.13956325806E-01  0.10207622506E+01  0.10204993031E+01 0.  0.
     999903    2    3    3    0    0 -0.47087603352E-02 -0.89790733975E-01  0.89418486637E-01  0.12839389991E+00  0.20119131415E-01 0.  0.
         14    1    1    2    0    0  0.90715611615E-02 -0.16114352672E-01  0.13956325806E-01  0.23167749437E-01  0.00000000000E+00 0. -1.
     999901    1    3    3    0    0 -0.43628008263E-02  0.10590508665E+00 -0.10337481244E+00  0.89236835066E+00  0.88000000000E+00 0. -1.
        -11    1    4    4    0    0  0.40555236823E-02 -0.68569413386E-01  0.61095135408E-01  0.91929801566E-01  0.51100000000E-03 0.  1.
         11    1    4    4    0    0 -0.87642840175E-02 -0.21221320588E-01  0.28323351229E-01  0.36464098339E-01  0.51100000000E-03 0. -1.
</event>
<event>
 8    1  0.1122465E+005  0.1043930E+01  0.7957747E-01            NaN
         13   -1    0    0    0    0  0.00000000000E+00  0.00000000000E+00  0.74505805969E-08  0.10566000000E+00  0.10566000000E+00 0.  1.
     999900   -1    0    0    0    0 -0.00000000000E+00 -0.00000000000E+00 -0.74505805969E-08  0.93827000000E+00  0.93827000000E+00 0.  1.
     999902    2    1    2    0    0 -0.71318497143E-02  0.18589826607E-01 -0.14807202106E-01  0.10191167340E+01  0.10188146148E+01 0.  0.
     999903    2    3    3    0    0  0.71006147224E-01  0.86724182225E-01 -0.66080554531E-01  0.13154882472E+00  0.19377741648E-01 0.  0.
         14    1    1    2    0    0  0.71318497143E-02 -0.18589826607E-01  0.14807202106E-01  0.24813265965E-01  0.00000000000E+00 0.  1.
     999901    1    3    3    0    0 -0.78137996938E-01 -0.68134355618E-01  0.51273352425E-01  0.88756790932E+00  0.88000000000E+00 0. -1.
        -11    1    4    4    0    0  0.59937906107E-01  0.61158815230E-01 -0.46029839159E-01  0.97221193589E-01  0.51100000000E-03 0.  1.
         11    1    4    4    0    0  0.11068241117E-01  0.25565366995E-01 -0.20050715372E-01  0.34327631129E-01  0.51100000000E-03 0. -1.
</event>
<event>
 8    1  0.1122465E+005  0.1043930E+01  0.7957747E-01            NaN
         13   -1    0    0    0    0  0.00000000000E+00  0.00000000000E+00  0.74505805969E-08  0.10566000000E+00  0.10566000000E+00 0. -1.
     999900   -1    0    0    0    0 -0.00000000000E+00 -0.00000000000E+00 -0.74505805969E-08  0.93827000000E+00  0.93827000000E+00 0.  1.
     999902    2    1    2    0    0 -0.97208561272E-02  0.15568250679E-01  0.12220614239E-01  0.10218798552E+01  0.10216419283E+01 0.  0.
     999903    2    3    3    0    0  0.49176287154E-01 -0.10832381602E+00 -0.47310392986E-01  0.12926456377E+00  0.17852109898E-01 0.  0.
         14    1    1    2    0    0  0.97208561272E-02 -0.15568250679E-01 -0.12220614239E-01  0.22050144794E-01  0.00000000000E+00 0.  1.
     999901    1    3    3    0    0 -0.58897143281E-01  0.12389206670E+00  0.59531007225E-01  0.89261529143E+00  0.88000000000E+00 0.  1.
        -11    1    4    4    0    0  0.22543083932E-01 -0.45117795482E-01 -0.10875028871E-01  0.51597804956E-01  0.51100000000E-03 0. -1.
         11    1    4    4    0    0  0.26633203222E-01 -0.63206020538E-01 -0.36435364115E-01  0.77666758818E-01  0.51100000000E-03 0.  1.
</event>
<event>
 8    1  0.1122465E+005  0.1043930E+01  0.7957747E-01            NaN
         13   -1    0    0    0    0  0.00000000000E+00  0.00000000000E+00  0.74505805969E-08  0.10566000000E+00  0.10566000000E+00 0. -1.
     999900   -1    0    0    0    0 -0.00000000000E+00 -0.00000000000E+00 -0.74505805969E-08  0.93827000000E+00  0.93827000000E+00 0.  1.
     999902    2    1    2    0    0  0.21577785496E-01 -0.23415683343E-02  0.11454435168E-01  0.10193884464E+01  0.10190929873E+01 0.  0.
     999903    2    3    3    0    0  0.80556283661E-01  0.14116200160E-01 -0.99376592808E-01  0.13032554751E+00  0.20505101567E-01 0.  0.
         14    1    1    2    0    0 -0.21577785496E-01  0.23415683343E-02 -0.11454435168E-01  0.24541553622E-01  0.00000000000E+00 0. -1.
     999901    1    3    3    0    0 -0.58978498165E-01 -0.16457768494E-01  0.11083102798E+00  0.88906289887E+00  0.88000000000E+00 0. -1.
        -11    1    4    4    0    0  0.59104698512E-01  0.97675418477E-02 -0.57329560889E-01  0.82919900703E-01  0.51100000000E-03 0. -1.
         11    1    4    4    0    0  0.21451585149E-01  0.43486583119E-02 -0.42047031919E-01  0.47405646802E-01  0.51100000000E-03 0.  1.
</event>
<event>
 8    1  0.1122465E+005  0.1043930E+01  0.7957747E-01            NaN
         13   -1    0    0    0    0  0.00000000000E+00  0.00000000000E+00  0.74505805969E-08  0.10566000000E+00  0.10566000000E+00 0.  1.
     999900   -1    0    0    0    0 -0.00000000000E+00 -0.00000000000E+00 -0.74505805969E-08  0.93827000000E+00  0.93827000000E+00 0. -1.
     999902    2    1    2    0    0  0.22511580226E-01  0.20854851135E-02 -0.45381666028E-02  0.10208710441E+01  0.10206105884E+01 0.  0.
     999903    2    3    3    0    0 -0.50647768647E-01 -0.74207554662E-01 -0.92016374193E-01  0.13023904653E+00  0.20572760697E-01 0.  0.
         14    1    1    2    0    0 -0.22511580226E-01 -0.20854851135E-02  0.45381666028E-02  0.23058955930E-01  0.00000000000E+00 0.  1.
     999901    1    3    3    0    0  0.73159348874E-01  0.76293039776E-01  0.87478207590E-01  0.89063199754E+00  0.88000000000E+00 0.  1.
        -11    1    4    4    0    0 -0.20352203132E-01 -0.24732184324E-01 -0.20015271216E-01  0.37772547129E-01  0.51100000000E-03 0. -1.
         11    1    4    4    0    0 -0.30295565516E-01 -0.49475370338E-01 -0.72001102977E-01  0.92466499398E-01  0.51100000000E-03 0.  1.
</event>
<event>
 8    1  0.1122465E+005  0.1043930E+01  0.7957747E-01            NaN
         13   -1    0    0    0    0  0.00000000000E+00  0.00000000000E+00  0.74505805969E-08  0.10566000000E+00  0.10566000000E+00 0. -1.
     999900   -1    0    0    0    0 -0.00000000000E+00 -0.00000000000E+00 -0.74505805969E-08  0.93827000000E+00  0.93827000000E+00 0. -1.
     999902    2    1    2    0    0 -0.10687560749E-01  0.17151256737E-01  0.11597848707E-01  0.10206297928E+01  0.10203637950E+01 0.  0.
     999903    2    3    3    0    0  0.99016245390E-01 -0.66644679763E-01 -0.42560832655E-01  0.12822302071E+00  0.19595621214E-01 0.  0.
         14    1    1    2    0    0  0.10687560749E-01 -0.17151256737E-01 -0.11597848707E-01  0.23300207232E-01  0.00000000000E+00 0.  1.
     999901    1    3    3    0    0 -0.10970380614E+00  0.83795936500E-01  0.54158681362E-01  0.89240677206E+00  0.88000000000E+00 0.  1.
        -11    1    4    4    0    0  0.15815533985E-01 -0.93096503197E-02  0.54752982510E-03  0.18367406301E-01  0.51100000000E-03 0.  1.
         11    1    4    4    0    0  0.83200711405E-01 -0.57335029444E-01 -0.43108362481E-01  0.10985561441E+00  0.51100000000E-03 0. -1.
</event>
<event>
 8    1  0.1122465E+005  0.1043930E+01  0.7957747E-01            NaN
         13   -1    0    0    0    0  0.00000000000E+00  0.00000000000E+00  0.74505805969E-08  0.10566000000E+00  0.10566000000E+00 0. -1.
     999900   -1    0    0    0    0 -0.00000000000E+00 -0.00000000000E+00 -0.74505805969E-08  0.93827000000E+00  0.93827000000E+00 0.  1.
     999902    2    1    2    0    0  0.10093395953E-01 -0.15736883235E-01  0.14385253873E-01  0.10203405603E+01  0.10200678396E+01 0.  0.
     999903    2    3    3    0    0 -0.75183322761E-01 -0.75937009837E-01 -0.71527400386E-01  0.13001637320E+00  0.19212673139E-01 0.  0.
         14    1    1    2    0    0 -0.10093395953E-01  0.15736883235E-01 -0.14385253873E-01  0.23589439688E-01  0.00000000000E+00 0. -1.
     999901    1    3    3    0    0  0.85276718714E-01  0.60200126602E-01  0.85912654259E-01  0.89032418711E+00  0.88000000000E+00 0. -1.
        -11    1    4    4    0    0 -0.42425776947E-01 -0.54105170554E-01 -0.39736314280E-01  0.79413801217E-01  0.51100000000E-03 0. -1.
         11    1    4    4    0    0 -0.32757545815E-01 -0.21831839283E-01 -0.31791086106E-01  0.50602571981E-01  0.51100000000E-03 0.  1.
</event>
<event>
 8    1  0.1122465E+005  0.1043930E+01  0.7957747E-01            NaN
         13   -1    0    0    0    0  0.00000000000E+00  0.00000000000E+00  0.74505805969E-08  0.10566000000E+00  0.10566000000E+00 0.  1.
     999900   -1    0    0    0    0 -0.00000000000E+00 -0.00000000000E+00 -0.74505805969E-08  0.93827000000E+00  0.93827000000E+00 0.  1.
     999902    2    1    2    0    0  0.24005784359E-01 -0.83209275592E-02  0.73278887290E-03  0.10185124372E+01  0.10181952329E+01 0.  0.
     999903    2    3    3    0    0  0.12749574047E+00 -0.26802187437E-01 -0.87052458380E-02  0.13220503881E+00  0.20709174086E-01 0.  0.
         14    1    1    2    0    0 -0.24005784359E-01  0.83209275592E-02 -0.73278887290E-03  0.25417562780E-01  0.00000000000E+00 0.  1.
     999901    1    3    3    0    0 -0.10348995611E+00  0.18481259877E-01  0.94380347109E-02  0.88630739841E+00  0.88000000000E+00 0.  1.
        -11    1    4    4    0    0  0.47960940720E-01 -0.15660991244E-01  0.51051343960E-02  0.50713331577E-01  0.51100000000E-03 0. -1.
         11    1    4    4    0    0  0.79534799751E-01 -0.11141196193E-01 -0.13810380234E-01  0.81491707230E-01  0.51100000000E-03 0.  1.
</event>
<event>
 8    1  0.1122465E+005  0.1043930E+01  0.7957747E-01            NaN
         13   -1    0    0    0    0  0.00000000000E+00  0.00000000000E+00  0.74505805969E-08  0.10566000000E+00  0.10566000000E+00 0.  1.
     999900   -1    0    0    0    0 -0.00000000000E+00 -0.00000000000E+00 -0.74505805969E-08  0.93827000000E+00  0.93827000000E+00 0. -1.
     999902    2    1    2    0    0  0.11176610809E-01  0.21379882624E-01  0.22972843346E-03  0.10198038983E+01  0.10195184756E+01 0.  0.
     999903    2    3    3    0    0  0.27424356799E-01  0.35443354883E-01  0.12156146361E+00  0.13121897802E+00  0.20806345346E-01 0.  0.
         14    1    1    2    0    0 -0.11176610809E-01 -0.21379882624E-01 -0.22972843346E-03  0.24126101744E-01  0.00000000000E+00 0.  1.
     999901    1    3    3    0    0 -0.16247745989E-01 -0.14063472258E-01 -0.12133173518E+00  0.88858492023E+00  0.88000000000E+00 0. -1.
        -11    1    4    4    0    0 -0.23076850757E-02  0.86689743554E-02  0.16367884485E-01  0.18672045691E-01  0.51100000000E-03 0.  1.
         11    1    4    4    0    0  0.29732041874E-01  0.26774380527E-01  0.10519357913E+00  0.11254693233E+00  0.51100000000E-03 0. -1.
</event>
<event>
 8    1  0.1122465E+005  0.1043930E+01  0.7957747E-01            NaN
         13   -1    0    0    0    0  0.00000000000E+00  0.00000000000E+00  0.74505805969E-08  0.10566000000E+00  0.10566000000E+00 0.  1.
     999900   -1    0    0    0    0 -0.00000000000E+00 -0.00000000000E+00 -0.74505805969E-08  0.93827000000E+00  0.93827000000E+00 0.  1.
     999902    2    1    2    0    0  0.12382641482E-01  0.17914370782E-01  0.83987565164E-02  0.10205891859E+01  0.10203222495E+01 0.  0.
     999903    2    3    3    0    0  0.11395483866E+00  0.58210119383E-01 -0.29888165224E-01  0.13300451562E+00  0.20561505330E-01 0.  0.
         14    1    1    2    0    0 -0.12382641482E-01 -0.17914370782E-01 -0.83987565164E-02  0.23340814073E-01  0.00000000000E+00 0. -1.
     999901    1    3    3    0    0 -0.10157219718E+00 -0.40295748602E-01  0.38286921740E-01  0.88758467031E+00  0.88000000000E+00 0. -1.
        -11    1    4    4    0    0  0.76448210641E-01  0.49521719953E-01 -0.21828099475E-01  0.93666732115E-01  0.51100000000E-03 0. -1.
         11    1    4    4    0    0  0.37506628018E-01  0.86883994296E-02 -0.80600657492E-02  0.39337783501E-01  0.51100000000E-03 0.  1.
</event>
<event>
 8    1  0.1122465E+005  0.1043930E+01  0.7957747E-01            NaN
         13   -1    0    0    0    0  0.00000000000E+00  0.00000000000E+00  0.74505805969E-08  0.10566000000E+00  0.10566000000E+00 0. -1.
     999900   -1    0    0    0    0 -0.00000000000E+00 -0.00000000000E+00 -0.74505805969E-08  0.93827000000E+00  0.93827000000E+00 0. -1.
     999902    2    1    2    0    0 -0.19444047375E-01 -0.88449592094E-02  0.48019285300E-02  0.10220356446E+01  0.10218011039E+01 0.  0.
     999903    2    3    3    0    0 -0.73191699117E-01  0.68456448474E-01 -0.84342733638E-01  0.13253517325E+00  0.20212997643E-01 0.  0.
         14    1    1    2    0    0  0.19444047375E-01  0.88449592094E-02 -0.48019285300E-02  0.21894355422E-01  0.00000000000E+00 0. -1.
     999901    1    3    3    0    0  0.53747651742E-01 -0.77301407684E-01  0.89144662168E-01  0.88950047133E+00  0.88000000000E+00 0.  1.
        -11    1    4    4    0    0 -0.30861119284E-01  0.38445650250E-01 -0.31689682929E-01  0.58608649803E-01  0.51100000000E-03 0.  1.
         11    1    4    4    0    0 -0.42330579834E-01  0.30010798224E-01 -0.52653050709E-01  0.73926523448E-01  0.51100000000E-03 0. -1.
</event>
<event>
 8    1  0.1122465E+005  0.1043930E+01  0.7957747E-01            NaN
         13   -1    0    0    0    0  0.00000000000E+00  0.00000000000E+00  0.74505805969E-08  0.10566000000E+00  0.10566000000E+00 0.  1.
     999900   -1    0    0    0    0 -0.00000000000E+00 -0.00000000000E+00 -0.74505805969E-08  0.93827000000E+00  0.93827000000E+00 0. -1.
     999902    2    1    2    0    0  0.18737395431E-01  0.16358433841E-01  0.41461580613E-02  0.10187133592E+01  0.10184012123E+01 0.  0.
     999903    2    3    3    0    0  0.10776010909E-01 -0.89078406140E-01 -0.88463670924E-01  0.12755855152E+00  0.19856438286E-01 0.  0.
         14    1    1    2    0    0 -0.18737395431E-01 -0.16358433841E-01 -0.41461580613E-02  0.25216640775E-01  0.00000000000E+00 0.  1.
     999901    1    3    3    0    0  0.79613845219E-02  0.10543683998E+00  0.92609828986E-01  0.89115480770E+00  0.88000000000E+00 0.  1.
        -11    1    4    4    0    0  0.63039874350E-02 -0.10184670630E-01 -0.62294819119E-02  0.13510563989E-01  0.51100000000E-03 0.  1.
         11    1    4    4    0    0  0.44720234742E-02 -0.78893735510E-01 -0.82234189012E-01  0.11404798753E+00  0.51100000000E-03 0. -1.
</event>
<event>
 8    1  0.1122465E+005  0.1043930E+01  0.7957747E-01            NaN
         13   -1    0    0    0    0  0.00000000000E+00  0.00000000000E+00  0.74505805969E-08  0.10566000000E+00  0.10566000000E+00 0. -1.
     999900   -1    0    0    0    0 -0.00000000000E+00 -0.00000000000E+00 -0.74505805969E-08  0.93827000000E+00  0.93827000000E+00 0. -1.
     999902    2    1    2    0    0 -0.13100455187E-01 -0.16633122123E-01  0.10681433288E-01  0.10202155383E+01  0.10199398849E+01 0.  0.
     999903    2    3    3    0    0  0.62492624435E-01 -0.10955754962E+00 -0.31406876947E-01  0.13110323448E+00  0.17131298335E-01 0.  0.
         14    1    1    2    0    0  0.13100455187E-01  0.16633122123E-01 -0.10681433288E-01  0.23714461722E-01  0.00000000000E+00 0.  1.
     999901    1    3    3    0    0 -0.75593079622E-01  0.92924427500E-01  0.42088310234E-01  0.88911230380E+00  0.88000000000E+00 0. -1.
        -11    1    4    4    0    0  0.35258177679E-01 -0.77662724304E-01 -0.19334933337E-01  0.87457067225E-01  0.51100000000E-03 0.  1.
         11    1    4    4    0    0  0.27234446756E-01 -0.31894825319E-01 -0.12071943609E-01  0.43646167251E-01  0.51100000000E-03 0. -1.
</event>
<event>
 8    1  0.1122465E+005  0.1043930E+01  0.7957747E-01            NaN
         13   -1    0    0    0    0  0.00000000000E+00  0.00000000000E+00  0.74505805969E-08  0.10566000000E+00  0.10566000000E+00 0. -1.
     999900   -1    0    0    0    0 -0.00000000000E+00 -0.00000000000E+00 -0.74505805969E-08  0.93827000000E+00  0.93827000000E+00 0. -1.
     999902    2    1    2    0    0  0.11692518569E-01 -0.30532914088E-02  0.20507667122E-01  0.10201265971E+01  0.10198488477E+01 0.  0.
     999903    2    3    3    0    0  0.15760223962E-02  0.54406753190E-01  0.11925717002E+00  0.13268337945E+00  0.20494583290E-01 0.  0.
         14    1    1    2    0    0 -0.11692518569E-01  0.30532914088E-02 -0.20507667122E-01  0.23803402902E-01  0.00000000000E+00 0.  1.
     999901    1    3    3    0    0  0.10116496173E-01 -0.57460044599E-01 -0.98749502894E-01  0.88744321764E+00  0.88000000000E+00 0. -1.
        -11    1    4    4    0    0  0.44521804128E-02  0.48049884485E-01  0.11441275613E+00  0.12417388290E+00  0.51100000000E-03 0.  1.
         11    1    4    4    0    0 -0.28761580165E-02  0.63568687050E-02  0.48444138903E-02  0.85094965544E-02  0.51100000000E-03 0. -1.
</event>
<event>
 8    1  0.1122465E+005  0.1043930E+01  0.7957747E-01            NaN
         13   -1    0    0    0    0  0.00000000000E+00  0.00000000000E+00  0.74505805969E-08  0.10566000000E+00  0.10566000000E+00 0. -1.
     999900   -1    0    0    0    0 -0.00000000000E+00 -0.00000000000E+00 -0.74505805969E-08  0.93827000000E+00  0.93827000000E+00 0.  1.
     999902    2    1    2    0    0  0.36196875891E-02  0.21687765579E-01  0.78528689405E-02  0.10205820051E+01  0.10203149025E+01 0.  0.
     999903    2    3    3    0    0  0.37392632354E-01 -0.26232788625E-01 -0.11933993192E+00  0.12950681194E+00  0.21062450874E-01 0.  0.
         14    1    1    2    0    0 -0.36196875891E-02 -0.21687765579E-01 -0.78528689405E-02  0.23347994874E-01  0.00000000000E+00 0.  1.
     999901    1    3    3    0    0 -0.33772944765E-01  0.47920554204E-01  0.12719280086E+00  0.89107519318E+00  0.88000000000E+00 0. -1.
        -11    1    4    4    0    0  0.22518713690E-01 -0.11637759244E-01 -0.90088455009E-01  0.93588037448E-01  0.51100000000E-03 0.  1.
         11    1    4    4    0    0  0.14873918663E-01 -0.14595029382E-01 -0.29251476907E-01  0.35918774496E-01  0.51100000000E-03 0. -1.
</event>
<event>
 8    1  0.1122465E+005  0.1043930E+01  0.7957747E-01            NaN
         13   -1    0    0    0    0  0.00000000000E+00  0.00000000000E+00  0.74505805969E-08  0.10566000000E+00  0.10566000000E+00 0.  1.
     999900   -1    0    0    0    0 -0.00000000000E+00 -0.00000000000E+00 -0.74505805969E-08  0.93827000000E+00  0.93827000000E+00 0.  1.
     999902    2    1    2    0    0 -0.99663925867E-02 -0.16137686166E-02 -0.22499704966E-01  0.10192688980E+01  0.10189705179E+01 0.  0.
     999903    2    3    3    0    0 -0.12350758135E-01 -0.17924262412E-01 -0.12928837244E+00  0.13265988779E+00  0.20232206257E-01 0.  0.
         14    1    1    2    0    0  0.99663925867E-02  0.16137686166E-02  0.22499704966E-01  0.24661102041E-01  0.00000000000E+00 0.  1.
     999901    1    3    3    0    0  0.23843655481E-02  0.16310493796E-01  0.10678866748E+00  0.88660901017E+00  0.88000000000E+00 0. -1.
        -11    1    4    4    0    0 -0.58847616971E-02  0.35359456124E-02 -0.40737685007E-01  0.41315292960E-01  0.51100000000E-03 0. -1.
         11    1    4    4    0    0 -0.64659964378E-02 -0.21460208025E-01 -0.88550687438E-01  0.91344594832E-01  0.51100000000E-03 0.  1.
</event>
<event>
 8    1  0.1122465E+005  0.1043930E+01  0.7957747E-01            NaN
         13   -1    0    0    0    0  0.00000000000E+00  0.00000000000E+00  0.74505805969E-08  0.10566000000E+00  0.10566000000E+00 0.  1.
     999900   -1    0    0    0    0 -0.00000000000E+00 -0.00000000000E+00 -0.74505805969E-08  0.93827000000E+00  0.93827000000E+00 0.  1.
     999902    2    1    2    0    0  0.35024282645E-02 -0.14680534828E-02 -0.23304587285E-01  0.10203180121E+01  0.10200447636E+01 0.  0.
     999903    2    3    3    0    0 -0.29175932752E-01 -0.70326137596E-01  0.10133541714E+00  0.12827292257E+00  0.19699624768E-01 0.  0.
         14    1    1    2    0    0 -0.35024282645E-02  0.14680534828E-02  0.23304587285E-01  0.23611987915E-01  0.00000000000E+00 0.  1.
     999901    1    3    3    0    0  0.32678361017E-01  0.68858084113E-01 -0.12464000443E+00  0.89204508952E+00  0.88000000000E+00 0.  1.
        -11    1    4    4    0    0 -0.23498236927E-02 -0.23976190559E-01  0.22507902642E-01  0.32973416375E-01  0.51100000000E-03 0.  1.
         11    1    4    4    0    0 -0.26826109059E-01 -0.46349947037E-01  0.78827514499E-01  0.95299506194E-01  0.51100000000E-03 0. -1.
</event>
<event>
 8    1  0.1122465E+005  0.1043930E+01  0.7957747E-01            NaN
         13   -1    0    0    0    0  0.00000000000E+00  0.00000000000E+00  0.74505805969E-08  0.10566000000E+00  0.10566000000E+00 0. -1.
     999900   -1    0    0    0    0 -0.00000000000E+00 -0.00000000000E+00 -0.74505805969E-08  0.93827000000E+00  0.93827000000E+00 0.  1.
     999902    2    1    2    0    0 -0.18959892779E-01  0.13098943826E-01  0.90131810897E-02  0.10191853582E+01  0.10188849283E+01 0.  0.
     999903    2    3    3    0    0 -0.69174590978E-01 -0.22713194448E-01 -0.10491683926E+00  0.12970007183E+00  0.22661690878E-01 0.  0.
         14    1    1    2    0    0  0.18959892779E-01 -0.13098943826E-01 -0.90131810897E-02  0.24744641782E-01  0.00000000000E+00 0.  1.
     999901    1    3    3    0    0  0.50214698199E-01  0.35812138274E-01  0.11393002035E+00  0.88948528639E+00  0.88000000000E+00 0. -1.
        -11    1    4    4    0    0 -0.51029681979E-01 -0.14731487176E-01 -0.57366264983E-01  0.78180525941E-01  0.51100000000E-03 0.  1.
         11    1    4    4    0    0 -0.18144908998E-01 -0.79817072714E-02 -0.47550574277E-01  0.51519545889E-01  0.51100000000E-03 0. -1.
</event>
<event>
 8    1  0.1122465E+005  0.1043930E+01  0.7957747E-01            NaN
         13   -1    0    0    0    0  0.00000000000E+00  0.00000000000E+00  0.74505805969E-08  0.10566000000E+00  0.10566000000E+00 0. -1.
     999900   -1    0    0    0    0 -0.00000000000E+00 -0.00000000000E+00 -0.74505805969E-08  0.93827000000E+00  0.93827000000E+00 0. -1.
     999902    2    1    2    0    0  0.84483371136E-02  0.16689206880E-01 -0.14911310614E-01  0.10200082273E+01  0.10197276757E+01 0.  0.
     999903    2    3    3    0    0 -0.10986154466E+00  0.64882359020E-01  0.16591228989E-01  0.13022610898E+00  0.20106990643E-01 0.  0.
         14    1    1    2    0    0 -0.84483371136E-02 -0.16689206880E-01  0.14911310614E-01  0.23921772729E-01  0.00000000000E+00 0.  1.
     999901    1    3    3    0    0  0.11830988177E+00 -0.48193152140E-01 -0.31502539603E-01  0.88978211830E+00  0.88000000000E+00 0. -1.
        -11    1    4    4    0    0 -0.40150754170E-01  0.23503003377E-01  0.15855732441E-01  0.49154242954E-01  0.51100000000E-03 0. -1.
         11    1    4    4    0    0 -0.69710790488E-01  0.41379355643E-01  0.73549654776E-03  0.81071866021E-01  0.51100000000E-03 0.  1.
</event>
<event>
 8    1  0.1122465E+005  0.1043930E+01  0.7957747E-01            NaN
         13   -1    0    0    0    0  0.00000000000E+00  0.00000000000E+00  0.74505805969E-08  0.10566000000E+00  0.10566000000E+00 0. -1.
     999900   -1    0    0    0    0 -0.00000000000E+00 -0.00000000000E+00 -0.74505805969E-08  0.93827000000E+00  0.93827000000E+00 0.  1.
     999902    2    1    2    0    0 -0.88285439478E-02  0.65175807939E-02  0.20023340216E-01  0.10210967742E+01  0.10208414500E+01 0.  0.
     999903    2    3    3    0    0  0.39074899362E-01  0.11476079466E+00 -0.45214944365E-01  0.13077808574E+00  0.19016539201E-01 0.  0.
         14    1    1    2    0    0  0.88285439478E-02 -0.65175807939E-02 -0.20023340216E-01  0.22833225814E-01  0.00000000000E+00 0.  1.
     999901    1    3    3    0    0 -0.47903443310E-01 -0.10824321387E+00  0.65238284581E-01  0.89031868845E+00  0.88000000000E+00 0. -1.
        -11    1    4    4    0    0  0.16330827302E-01  0.35064466453E-01 -0.22869979225E-01  0.44938956360E-01  0.51100000000E-03 0.  1.
         11    1    4    4    0    0  0.22744072060E-01  0.79696328209E-01 -0.22344965140E-01  0.85839129376E-01  0.51100000000E-03 0. -1.
</event>
<event>
 8    1  0.1122465E+005  0.1043930E+01  0.7957747E-01            NaN
         13   -1    0    0    0    0  0.00000000000E+00  0.00000000000E+00  0.74505805969E-08  0.10566000000E+00  0.10566000000E+00 0.  1.
     999900   -1    0    0    0    0 -0.00000000000E+00 -0.00000000000E+00 -0.74505805969E-08  0.93827000000E+00  0.93827000000E+00 0.  1.
     999902    2    1    2    0    0 -0.29796318673E-02  0.78308261445E-02  0.22350775526E-01  0.10200604124E+01  0.10197810980E+01 0.  0.
     999903    2    3    3    0    0  0.80790536148E-01 -0.16395230767E-01 -0.95616485521E-01  0.12791658010E+00  0.20596719113E-01 0.  0.
         14    1    1    2    0    0  0.29796318673E-02 -0.78308261445E-02 -0.22350775526E-01  0.23869587571E-01  0.00000000000E+00 0. -1.
     999901    1    3    3    0    0 -0.83770168015E-01  0.24226056911E-01  0.11796726105E+00  0.89214383233E+00  0.88000000000E+00 0. -1.
        -11    1    4    4    0    0  0.49096490817E-01 -0.50637511178E-02 -0.43051292998E-01  0.65496426893E-01  0.51100000000E-03 0. -1.
         11    1    4    4    0    0  0.31694045331E-01 -0.11331479649E-01 -0.52565192523E-01  0.62420153208E-01  0.51100000000E-03 0.  1.
</event>
<event>
 7    1  0.1122465E+005  0.1043930E+01  0.7957747E-01            NaN
         13   -1    0    0    0    0  0.00000000000E+00  0.00000000000E+00  0.74505805969E-08  0.10566000000E+00  0.10566000000E+00 0. -1.
     999900   -1    0    0    0    0 -0.00000000000E+00 -0.00000000000E+00 -0.74505805969E-08  0.93827000000E+00  0.93827000000E+00 0.  1.
     999903    2    1    2    0    0 -0.19172785762E-01  0.67806222124E-01  0.35721361863E-01  0.81526939113E-01  0.20133222176E-01 0.  0.
         14    1    1    2    0    0  0.37927500826E-01 -0.90488268148E-02  0.63671975655E-01  0.74662554667E-01  0.00000000000E+00 0. -1.
     999901    1    1    2    0    0 -0.18754715064E-01 -0.58757395309E-01 -0.99393337518E-01  0.88774050622E+00  0.88000000000E+00 0.  1.
        -11    1    3    3    0    0 -0.20424312538E-01  0.43937754020E-01  0.17694022292E-01  0.51585059047E-01  0.51100000000E-03 0. -1.
         11    1    3    3    0    0  0.12515267760E-02  0.23868468104E-01  0.18027339571E-01  0.29941880066E-01  0.51100000000E-03 0.  1.
</event>
<event>
 8    1  0.1122465E+005  0.1043930E+01  0.7957747E-01            NaN
         13   -1    0    0    0    0  0.00000000000E+00  0.00000000000E+00  0.74505805969E-08  0.10566000000E+00  0.10566000000E+00 0.  1.
     999900   -1    0    0    0    0 -0.00000000000E+00 -0.00000000000E+00 -0.74505805969E-08  0.93827000000E+00  0.93827000000E+00 0. -1.
     999902    2    1    2    0    0  0.13972558723E-01  0.18236820477E-01  0.25143775124E-02  0.10208186151E+01  0.10205569601E+01 0.  0.
     999903    2    3    3    0    0  0.89324216181E-01 -0.66158240530E-01 -0.66197509454E-01  0.13091877689E+00  0.20047131939E-01 0.  0.
         14    1    1    2    0    0 -0.13972558723E-01 -0.18236820477E-01 -0.25143775124E-02  0.23111384914E-01  0.00000000000E+00 0. -1.
     999901    1    3    3    0    0 -0.75351657458E-01  0.84395061007E-01  0.68711886967E-01  0.88989983819E+00  0.88000000000E+00 0. -1.
        -11    1    4    4    0    0  0.33568621317E-01 -0.14242038839E-01 -0.17060104707E-01  0.40261598342E-01  0.51100000000E-03 0. -1.
         11    1    4    4    0    0  0.55755594864E-01 -0.51916201692E-01 -0.49137404747E-01  0.90657178552E-01  0.51100000000E-03 0.  1.
</event>
<event>
 8    1  0.1122465E+005  0.1043930E+01  0.7957747E-01            NaN
         13   -1    0    0    0    0  0.00000000000E+00  0.00000000000E+00  0.74505805969E-08  0.10566000000E+00  0.10566000000E+00 0.  1.
     999900   -1    0    0    0    0 -0.00000000000E+00 -0.00000000000E+00 -0.74505805969E-08  0.93827000000E+00  0.93827000000E+00 0. -1.
     999902    2    1    2    0    0 -0.18302386024E-01  0.14101709155E-01  0.53443339945E-02  0.10202150798E+01  0.10199394156E+01 0.  0.
     999903    2    3    3    0    0  0.97392760638E-02 -0.96371520730E-01 -0.82139722066E-01  0.12856260858E+00  0.19977158883E-01 0.  0.
         14    1    1    2    0    0  0.18302386024E-01 -0.14101709155E-01 -0.53443339945E-02  0.23714920222E-01  0.00000000000E+00 0.  1.
     999901    1    3    3    0    0 -0.28041662088E-01  0.11047322988E+00  0.87484056061E-01  0.89165247120E+00  0.88000000000E+00 0.  1.
        -11    1    4    4    0    0  0.11809506738E-01 -0.85156969037E-01 -0.78914696209E-01  0.11670031801E+00  0.51100000000E-03 0. -1.
         11    1    4    4    0    0 -0.20702306746E-02 -0.11214551692E-01 -0.32250258577E-02  0.11862290567E-01  0.51100000000E-03 0.  1.
</event>
<event>
 8    1  0.1122465E+005  0.1043930E+01  0.7957747E-01            NaN
         13   -1    0    0    0    0  0.00000000000E+00  0.00000000000E+00  0.74505805969E-08  0.10566000000E+00  0.10566000000E+00 0. -1.
     999900   -1    0    0    0    0 -0.00000000000E+00 -0.00000000000E+00 -0.74505805969E-08  0.93827000000E+00  0.93827000000E+00 0.  1.
     999902    2    1    2    0    0  0.65081960456E-02 -0.22189684178E-01  0.10264263644E-01  0.10186299247E+01  0.10183156828E+01 0.  0.
     999903    2    3    3    0    0  0.81130983527E-01  0.86280789898E-01 -0.41319415865E-01  0.12734137430E+00  0.21952682952E-01 0.  0.
         14    1    1    2    0    0 -0.65081960456E-02  0.22189684178E-01 -0.10264263644E-01  0.25300075254E-01  0.00000000000E+00 0.  1.
     999901    1    3    3    0    0 -0.74622787481E-01 -0.10847047408E+00  0.51583679509E-01  0.89128855044E+00  0.88000000000E+00 0. -1.
        -11    1    4    4    0    0  0.54558343128E-01  0.63392693029E-01 -0.19008223608E-01  0.85771906940E-01  0.51100000000E-03 0. -1.
         11    1    4    4    0    0  0.26572640398E-01  0.22888096869E-01 -0.22311192257E-01  0.41569467364E-01  0.51100000000E-03 0.  1.
</event>
<event>
 8    1  0.1122465E+005  0.1043930E+01  0.7957747E-01            NaN
         13   -1    0    0    0    0  0.00000000000E+00  0.00000000000E+00  0.74505805969E-08  0.10566000000E+00  0.10566000000E+00 0.  1.
     999900   -1    0    0    0    0 -0.00000000000E+00 -0.00000000000E+00 -0.74505805969E-08  0.93827000000E+00  0.93827000000E+00 0.  1.
     999902    2    1    2    0    0  0.65198171471E-02 -0.20401579063E-01  0.14062023389E-01  0.10183082720E+01  0.10179858859E+01 0.  0.
     999903    2    3    3    0    0 -0.33853150908E-02 -0.36199621066E-02 -0.12543350324E+00  0.12710754474E+00  0.19954942048E-01 0.  0.
         14    1    1    2    0    0 -0.65198171471E-02  0.20401579063E-01 -0.14062023389E-01  0.25621728000E-01  0.00000000000E+00 0. -1.
     999901    1    3    3    0    0  0.99051322379E-02 -0.16781616956E-01  0.13949552663E+00  0.89120072726E+00  0.88000000000E+00 0. -1.
        -11    1    4    4    0    0 -0.85511615725E-02 -0.93242556463E-02 -0.85966682410E-01  0.86894163861E-01  0.51100000000E-03 0. -1.
         11    1    4    4    0    0  0.51658464817E-02  0.57042935398E-02 -0.39466820829E-01  0.40213380883E-01  0.51100000000E-03 0.  1.
</event>
<event>
 8    1  0.1122465E+005  0.1043930E+01  0.7957747E-01            NaN
         13   -1    0    0    0    0  0.00000000000E+00  0.00000000000E+00  0.74505805969E-08  0.10566000000E+00  0.10566000000E+00 0.  1.
     999900   -1    0    0    0    0 -0.00000000000E+00 -0.00000000000E+00 -0.74505805969E-08  0.93827000000E+00  0.93827000000E+00 0.  1.
     999902    2    1    2    0    0 -0.69139643421E-02  0.65548370985E-02  0.21757173549E-01  0.10201782970E+01  0.10199017670E+01 0.  0.
     999903    2    3    3    0    0 -0.10418241929E+00  0.39636335346E-01 -0.64154500720E-01  0.13004552401E+00  0.19261951718E-01 0.  0.
         14    1    1    2    0    0  0.69139643421E-02 -0.65548370985E-02 -0.21757173549E-01  0.23751702953E-01  0.00000000000E+00 0. -1.
     999901    1    3    3    0    0  0.97268454950E-01 -0.33081498247E-01  0.85911674269E-01  0.89013277303E+00  0.88000000000E+00 0.  1.
        -11    1    4    4    0    0 -0.53163356936E-01  0.30262596163E-01 -0.32455744636E-01  0.69251741697E-01  0.51100000000E-03 0.  1.
         11    1    4    4    0    0 -0.51019062356E-01  0.93737391822E-02 -0.31698756083E-01  0.60793782315E-01  0.51100000000E-03 0. -1.
</event>
<event>
 8    1  0.1122465E+005  0.1043930E+01  0.7957747E-01            NaN
         13   -1    0    0    0    0  0.00000000000E+00  0.00000000000E+00  0.74505805969E-08  0.10566000000E+00  0.10566000000E+00 0. -1.
     999900   -1    0    0    0    0 -0.00000000000E+00 -0.00000000000E+00 -0.74505805969E-08  0.93827000000E+00  0.93827000000E+00 0. -1.
     999902    2    1    2    0    0 -0.72555062074E-02 -0.12450088112E-01  0.18249586160E-01  0.10206771623E+01  0.10204122575E+01 0.  0.
     999903    2    3    3    0    0  0.55123861888E-02  0.12370963296E+00  0.33731345768E-01  0.12997958538E+00  0.20553083466E-01 0.  0.
         14    1    1    2    0    0  0.72555062074E-02  0.12450088112E-01 -0.18249586160E-01  0.23252837662E-01  0.00000000000E+00 0.  1.
     999901    1    3    3    0    0 -0.12767892396E-01 -0.13615972107E+00 -0.15481759608E-01  0.89069757696E+00  0.88000000000E+00 0.  1.
        -11    1    4    4    0    0  0.32145903617E-02  0.47207262753E-01  0.23263017079E-01  0.52728439503E-01  0.51100000000E-03 0. -1.
         11    1    4    4    0    0  0.22977958272E-02  0.76502370205E-01  0.10468328689E-01  0.77251145877E-01  0.51100000000E-03 0.  1.
</event>
<event>
 8    1  0.1122465E+005  0.1043930E+01  0.7957747E-01            NaN
         13   -1    0    0    0    0  0.00000000000E+00  0.00000000000E+00  0.74505805969E-08  0.10566000000E+00  0.10566000000E+00 0. -1.
     999900   -1    0    0    0    0 -0.00000000000E+00 -0.00000000000E+00 -0.74505805969E-08  0.93827000000E+00  0.93827000000E+00 0.  1.
     999902    2    1    2    0    0 -0.21162991694E-01  0.16058711519E-01  0.49992710048E-02  0.10168976648E+01  0.10165382991E+01 0.  0.
     999903    2    3    3    0    0 -0.99313966554E-01 -0.70184363342E-01  0.36531083581E-01  0.12867488985E+00  0.20823025684E-01 0.  0.
         14    1    1    2    0    0  0.21162991694E-01 -0.16058711519E-01 -0.49992710048E-02  0.27032335150E-01  0.00000000000E+00 0. -1.
     999901    1    3    3    0    0  0.78150974860E-01  0.86243074861E-01 -0.31531812576E-01  0.88822277500E+00  0.88000000000E+00 0. -1.
        -11    1    4    4    0    0 -0.65919961111E-01 -0.57787435938E-01  0.28206468727E-01  0.92090689129E-01  0.51100000000E-03 0. -1.
         11    1    4    4    0    0 -0.33394005443E-01 -0.12396927404E-01  0.83246148538E-02  0.36584200716E-01  0.51100000000E-03 0.  1.
</event>
<event>
 8    1  0.1122465E+005  0.1043930E+01  0.7957747E-01            NaN
         13   -1    0    0    0    0  0.00000000000E+00  0.00000000000E+00  0.74505805969E-08  0.10566000000E+00  0.10566000000E+00 0. -1.
     999900   -1    0    0    0    0 -0.00000000000E+00 -0.00000000000E+00 -0.74505805969E-08  0.93827000000E+00  0.93827000000E+00 0.  1.
     999902    2    1    2    0    0 -0.17577065014E-01  0.31753519030E-01  0.62250241700E-02  0.10071062290E+01  0.10064327928E+01 0.  0.
     999903    2    3    3    0    0 -0.77953488736E-01 -0.72386199903E-01  0.47253746749E-01  0.11796408643E+00  0.19133759779E-01 0.  0.
         14    1    1    2    0    0  0.17577065014E-01 -0.31753519030E-01 -0.62250241700E-02  0.36823771008E-01  0.00000000000E+00 0. -1.
     999901    1    3    3    0    0  0.60376423722E-01  0.10413971893E+00 -0.41028722579E-01  0.88914214256E+00  0.88000000000E+00 0.  1.
        -11    1    4    4    0    0 -0.14984015749E-01 -0.17364302911E-01  0.18710543302E-01  0.29603805418E-01  0.51100000000E-03 0. -1.
         11    1    4    4    0    0 -0.62969472987E-01 -0.55021896991E-01  0.28543203448E-01  0.88360281014E-01  0.51100000000E-03 0.  1.
</event>
<event>
 8    1  0.1122465E+005  0.1043930E+01  0.7957747E-01            NaN
         13   -1    0    0    0    0  0.00000000000E+00  0.00000000000E+00  0.74505805969E-08  0.10566000000E+00  0.10566000000E+00 0.  1.
     999900   -1    0    0    0    0 -0.00000000000E+00 -0.00000000000E+00 -0.74505805969E-08  0.93827000000E+00  0.93827000000E+00 0.  1.
     999902    2    1    2    0    0  0.25929768652E-02 -0.19267854384E-01  0.14037215702E-01  0.10199504844E+01  0.10196685606E+01 0.  0.
     999903    2    3    3    0    0  0.25773876029E-01 -0.99522329119E-01 -0.78756121889E-01  0.13113737794E+00  0.20627614454E-01 0.  0.
         14    1    1    2    0    0 -0.25929768652E-02  0.19267854384E-01 -0.14037215702E-01  0.23979515555E-01  0.00000000000E+00 0. -1.
     999901    1    3    3    0    0 -0.23180899164E-01  0.80254474734E-01  0.92793337590E-01  0.88881310651E+00  0.88000000000E+00 0. -1.
        -11    1    4    4    0    0  0.10762100010E-01 -0.50611461958E-01 -0.27025669571E-01  0.58377999408E-01  0.51100000000E-03 0. -1.
         11    1    4    4    0    0  0.15011776019E-01 -0.48910867161E-01 -0.51730452318E-01  0.72759378528E-01  0.51100000000E-03 0.  1.
</event>
<event>
 8    1  0.1122465E+005  0.1043930E+01  0.7957747E-01            NaN
         13   -1    0    0    0    0  0.00000000000E+00  0.00000000000E+00  0.74505805969E-08  0.10566000000E+00  0.10566000000E+00 0. -1.
     999900   -1    0    0    0    0 -0.00000000000E+00 -0.00000000000E+00 -0.74505805969E-08  0.93827000000E+00  0.93827000000E+00 0. -1.
     999902    2    1    2    0    0 -0.17810468145E-01  0.28568136429E-03  0.14075819692E-01  0.10212270687E+01  0.10209746827E+01 0.  0.
     999903    2    3    3    0    0 -0.41501435490E-01  0.12307763191E+00 -0.11880837553E-01  0.13200669495E+00  0.20350444380E-01 0.  0.
         14    1    1    2    0    0  0.17810468145E-01 -0.28568136429E-03 -0.14075819692E-01  0.22702931295E-01  0.00000000000E+00 0.  1.
     999901    1    3    3    0    0  0.23690967345E-01 -0.12279195054E+00  0.25956657245E-01  0.88922037376E+00  0.88000000000E+00 0.  1.
        -11    1    4    4    0    0 -0.82152523905E-02  0.31505230138E-01  0.55258751105E-02  0.33028265389E-01  0.51100000000E-03 0. -1.
         11    1    4    4    0    0 -0.33286183100E-01  0.91572401768E-01 -0.17406712664E-01  0.98978429558E-01  0.51100000000E-03 0.  1.
</event>
<event>
 8    1  0.1122465E+005  0.1043930E+01  0.7957747E-01            NaN
         13   -1    0    0    0    0  0.00000000000E+00  0.00000000000E+00  0.74505805969E-08  0.10566000000E+00  0.10566000000E+00 0. -1.
     999900   -1    0    0    0    0 -0.00000000000E+00 -0.00000000000E+00 -0.74505805969E-08  0.93827000000E+00  0.93827000000E+00 0. -1.
     999902    2    1    2    0    0  0.31320202983E-02 -0.13492078695E-01 -0.20268566632E-01  0.10193808548E+01  0.10190852106E+01 0.  0.
     999903    2    3    3    0    0 -0.34875155695E-01  0.12021282655E+00  0.15521168414E-01  0.12775175460E+00  0.20302807273E-01 0.  0.
         14    1    1    2    0    0 -0.31320202983E-02  0.13492078695E-01  0.20268566632E-01  0.24549145239E-01  0.00000000000E+00 0. -1.
     999901    1    3    3    0    0  0.38007175993E-01 -0.13370490525E+00 -0.35789735046E-01  0.89162910016E+00  0.88000000000E+00 0.  1.
        -11    1    4    4    0    0 -0.12718371316E-01  0.17373915534E-01  0.10738876304E-02  0.21564421290E-01  0.51100000000E-03 0. -1.
         11    1    4    4    0    0 -0.22156784378E-01  0.10283891102E+00  0.14447280784E-01  0.10618733331E+00  0.51100000000E-03 0.  1.
</event>
<event>
 8    1  0.1122465E+005  0.1043930E+01  0.7957747E-01            NaN
         13   -1    0    0    0    0  0.00000000000E+00  0.00000000000E+00  0.74505805969E-08  0.10566000000E+00  0.10566000000E+00 0. -1.
     999900   -1    0    0    0    0 -0.00000000000E+00 -0.00000000000E+00 -0.74505805969E-08  0.93827000000E+00  0.93827000000E+00 0. -1.
     999902    2    1    2    0    0  0.19327804039E-01  0.14684223166E-01  0.66244192579E-03  0.10196477174E+01  0.10193585426E+01 0.  0.
     999903    2    3    3    0    0  0.90446669434E-01 -0.67345704817E-01  0.63188868745E-01  0.13077407275E+00  0.19823748426E-01 0.  0.
         14    1    1    2    0    0 -0.19327804039E-01 -0.14684223166E-01 -0.66244192579E-03  0.24282282600E-01  0.00000000000E+00 0.  1.
     999901    1    3    3    0    0 -0.71118865395E-01  0.82029927982E-01 -0.62526426820E-01  0.88887364465E+00  0.88000000000E+00 0. -1.
        -11    1    4    4    0    0  0.47018781851E-01 -0.24324724145E-01  0.34940600220E-01  0.63431575073E-01  0.51100000000E-03 0.  1.
         11    1    4    4    0    0  0.43427887583E-01 -0.43020980672E-01  0.28248268525E-01  0.67342497678E-01  0.51100000000E-03 0. -1.
</event>
<event>
 8    1  0.1122465E+005  0.1043930E+01  0.7957747E-01            NaN
         13   -1    0    0    0    0  0.00000000000E+00  0.00000000000E+00  0.74505805969E-08  0.10566000000E+00  0.10566000000E+00 0.  1.
     999900   -1    0    0    0    0 -0.00000000000E+00 -0.00000000000E+00 -0.74505805969E-08  0.93827000000E+00  0.93827000000E+00 0.  1.
     999902    2    1    2    0    0  0.11991244678E-01  0.18269495935E-01  0.54006757004E-02  0.10214192975E+01  0.10211712146E+01 0.  0.
     999903    2    3    3    0    0  0.71601052161E-01 -0.44797051399E-01  0.99634272261E-01  0.13214392433E+00  0.20038514014E-01 0.  0.
         14    1    1    2    0    0 -0.11991244678E-01 -0.18269495935E-01 -0.54006757004E-02  0.22510702536E-01  0.00000000000E+00 0. -1.
     999901    1    3    3    0    0 -0.59609807482E-01  0.63066547334E-01 -0.94233596561E-01  0.88927537313E+00  0.88000000000E+00 0.  1.
        -11    1    4    4    0    0  0.16676435862E-01 -0.18677091245E-01  0.20674554654E-01  0.32475153296E-01  0.51100000000E-03 0. -1.
         11    1    4    4    0    0  0.54924616298E-01 -0.26119960154E-01  0.78959717607E-01  0.99668771034E-01  0.51100000000E-03 0.  1.
</event>
<event>
 8    1  0.1122465E+005  0.1043930E+01  0.7957747E-01            NaN
         13   -1    0    0    0    0  0.00000000000E+00  0.00000000000E+00  0.74505805969E-08  0.10566000000E+00  0.10566000000E+00 0.  1.
     999900   -1    0    0    0    0 -0.00000000000E+00 -0.00000000000E+00 -0.74505805969E-08  0.93827000000E+00  0.93827000000E+00 0.  1.
     999902    2    1    2    0    0 -0.17334794064E-01 -0.10720471423E-01  0.23870927858E-01  0.10125413908E+01  0.10120547531E+01 0.  0.
     999903    2    3    3    0    0 -0.35559463144E-01  0.74078663090E-01 -0.86937108595E-01  0.12136158135E+00  0.20456021892E-01 0.  0.
         14    1    1    2    0    0  0.17334794064E-01  0.10720471423E-01 -0.23870927858E-01  0.31388609233E-01  0.00000000000E+00 0. -1.
     999901    1    3    3    0    0  0.18224669080E-01 -0.84799134513E-01  0.11080803645E+00  0.89117980942E+00  0.88000000000E+00 0. -1.
        -11    1    4    4    0    0 -0.16373645512E-01  0.50562846520E-01 -0.64710638690E-01  0.83740226870E-01  0.51100000000E-03 0. -1.
         11    1    4    4    0    0 -0.19185817632E-01  0.23515816570E-01 -0.22226469905E-01  0.37621354476E-01  0.51100000000E-03 0.  1.
</event>
<event>
 8    1  0.1122465E+005  0.1043930E+01  0.7957747E-01            NaN
         13   -1    0    0    0    0  0.00000000000E+00  0.00000000000E+00  0.74505805969E-08  0.10566000000E+00  0.10566000000E+00 0.  1.
     999900   -1    0    0    0    0 -0.00000000000E+00 -0.00000000000E+00 -0.74505805969E-08  0.93827000000E+00  0.93827000000E+00 0.  1.
     999902    2    1    2    0    0 -0.19608452298E-01 -0.39617476223E-03 -0.14950818746E-01  0.10192687888E+01  0.10189704061E+01 0.  0.
     999903    2    3    3    0    0  0.10961146148E+00  0.51848788689E-01  0.32408711108E-01  0.12704110073E+00  0.19650632123E-01 0.  0.
         14    1    1    2    0    0  0.19608452298E-01  0.39617476223E-03  0.14950818746E-01  0.24661211186E-01  0.00000000000E+00 0.  1.
     999901    1    3    3    0    0 -0.12921991377E+00 -0.52244963451E-01 -0.47359529854E-01  0.89222768809E+00  0.88000000000E+00 0.  1.
        -11    1    4    4    0    0  0.56751290229E-01  0.29927489961E-01  0.26821113500E-01  0.69541331943E-01  0.51100000000E-03 0.  1.
         11    1    4    4    0    0  0.52860171247E-01  0.21921298728E-01  0.55875976078E-02  0.57499768784E-01  0.51100000000E-03 0. -1.
</event>
<event>
 8    1  0.1122465E+005  0.1043930E+01  0.7957747E-01            NaN
         13   -1    0    0    0    0  0.00000000000E+00  0.00000000000E+00  0.74505805969E-08  0.10566000000E+00  0.10566000000E+00 0.  1.
     999900   -1    0    0    0    0 -0.00000000000E+00 -0.00000000000E+00 -0.74505805969E-08  0.93827000000E+00  0.93827000000E+00 0.  1.
     999902    2    1    2    0    0  0.14384111295E-01  0.40734333564E-02 -0.13671722666E-01  0.10236713841E+01  0.10234709039E+01 0.  0.
     999903    2    3    3    0    0 -0.15305558393E-01 -0.34955264609E-01  0.12437183466E+00  0.13156111096E+00  0.19591886542E-01 0.  0.
         14    1    1    2    0    0 -0.14384111295E-01 -0.40734333564E-02  0.13671722666E-01  0.20258615888E-01  0.00000000000E+00 0.  1.
     999901    1    3    3    0    0  0.29689669688E-01  0.39028697966E-01 -0.13804355732E+00  0.89211027316E+00  0.88000000000E+00 0.  1.
        -11    1    4    4    0    0 -0.34336223231E-02 -0.22952540008E-01  0.47669925514E-01  0.53021616107E-01  0.51100000000E-03 0. -1.
         11    1    4    4    0    0 -0.11871936070E-01 -0.12002724602E-01  0.76701909144E-01  0.78539494849E-01  0.51100000000E-03 0.  1.
</event>
<event>
 8    1  0.1122465E+005  0.1043930E+01  0.7957747E-01            NaN
         13   -1    0    0    0    0  0.00000000000E+00  0.00000000000E+00  0.74505805969E-08  0.10566000000E+00  0.10566000000E+00 0. -1.
     999900   -1    0    0    0    0 -0.00000000000E+00 -0.00000000000E+00 -0.74505805969E-08  0.93827000000E+00  0.93827000000E+00 0. -1.
     999902    2    1    2    0    0 -0.15728277528E-01  0.11621637329E-02  0.17626367713E-01  0.10202779773E+01  0.10200037906E+01 0.  0.
     999903    2    3    3    0    0  0.46115082811E-01  0.67267133964E-01 -0.96981711777E-01  0.12824127392E+00  0.19720642578E-01 0.  0.
         14    1    1    2    0    0  0.15728277528E-01 -0.11621637329E-02 -0.17626367713E-01  0.23652022689E-01  0.00000000000E+00 0.  1.
     999901    1    3    3    0    0 -0.61843360339E-01 -0.66104970231E-01  0.11460807949E+00  0.89203670339E+00  0.88000000000E+00 0.  1.
        -11    1    4    4    0    0  0.58670976403E-02  0.18170551337E-01 -0.13634032991E-01  0.23467844963E-01  0.51100000000E-03 0.  1.
         11    1    4    4    0    0  0.40247985171E-01  0.49096582627E-01 -0.83347678786E-01  0.10477342896E+00  0.51100000000E-03 0. -1.
</event>
<event>
 8    1  0.1122465E+005  0.1043930E+01  0.7957747E-01            NaN
         13   -1    0    0    0    0  0.00000000000E+00  0.00000000000E+00  0.74505805969E-08  0.10566000000E+00  0.10566000000E+00 0.  1.
     999900   -1    0    0    0    0 -0.00000000000E+00 -0.00000000000E+00 -0.74505805969E-08  0.93827000000E+00  0.93827000000E+00 0. -1.
     999902    2    1    2    0    0 -0.17546401047E-01 -0.16407941534E-01 -0.14507284360E-02  0.10198633977E+01  0.10195793979E+01 0.  0.
     999903    2    3    3    0    0  0.68445799934E-01 -0.95126072547E-01  0.54310720206E-01  0.13042506819E+00  0.18089966175E-01 0.  0.
         14    1    1    2    0    0  0.17546401047E-01  0.16407941534E-01  0.14507284360E-02  0.24066602338E-01  0.00000000000E+00 0. -1.
     999901    1    3    3    0    0 -0.85992200981E-01  0.78718131013E-01 -0.55761448642E-01  0.88943832947E+00  0.88000000000E+00 0. -1.
        -11    1    4    4    0    0  0.38591981077E-01 -0.49004633538E-01  0.19383923708E-01  0.65320691446E-01  0.51100000000E-03 0.  1.
         11    1    4    4    0    0  0.29853818857E-01 -0.46121439009E-01  0.34926796498E-01  0.65104376744E-01  0.51100000000E-03 0. -1.
</event>
<event>
 8    1  0.1122465E+005  0.1043930E+01  0.7957747E-01            NaN
         13   -1    0    0    0    0  0.00000000000E+00  0.00000000000E+00  0.74505805969E-08  0.10566000000E+00  0.10566000000E+00 0.  1.
     999900   -1    0    0    0    0 -0.00000000000E+00 -0.00000000000E+00 -0.74505805969E-08  0.93827000000E+00  0.93827000000E+00 0.  1.
     999902    2    1    2    0    0  0.13704143897E-01  0.15907741040E-01 -0.13925169487E-01  0.10187353551E+01  0.10184237594E+01 0.  0.
     999903    2    3    3    0    0 -0.55003117554E-01  0.77994307410E-01  0.83642958308E-01  0.12851349005E+00  0.20276038119E-01 0.  0.
         14    1    1    2    0    0 -0.13704143897E-01 -0.15907741040E-01  0.13925169487E-01  0.25194644871E-01  0.00000000000E+00 0.  1.
     999901    1    3    3    0    0  0.68707261450E-01 -0.62086566371E-01 -0.97568127795E-01  0.89022186508E+00  0.88000000000E+00 0.  1.
        -11    1    4    4    0    0 -0.43304683383E-01  0.45031321052E-01  0.50663892035E-01  0.80437594170E-01  0.51100000000E-03 0. -1.
         11    1    4    4    0    0 -0.11698434171E-01  0.32962986358E-01  0.32979066272E-01  0.48075895882E-01  0.51100000000E-03 0.  1.
</event>
<event>
 8    1  0.1122465E+005  0.1043930E+01  0.7957747E-01            NaN
         13   -1    0    0    0    0  0.00000000000E+00  0.00000000000E+00  0.74505805969E-08  0.10566000000E+00  0.10566000000E+00 0. -1.
     999900   -1    0    0    0    0 -0.00000000000E+00 -0.00000000000E+00 -0.74505805969E-08  0.93827000000E+00  0.93827000000E+00 0.  1.
     999902    2    1    2    0    0 -0.16803780420E-01  0.15963058349E-01 -0.29440756650E-02  0.10205664846E+01  0.10202990227E+01 0.  0.
     999903    2    3    3    0    0  0.12534444576E+00  0.21287183617E-01 -0.12502435904E-01  0.12909252161E+00  0.18552465126E-01 0.  0.
         14    1    1    2    0    0  0.16803780420E-01 -0.15963058349E-01  0.29440756650E-02  0.23363515356E-01  0.00000000000E+00 0. -1.
     999901    1    3    3    0    0 -0.14214822618E+00 -0.53241252682E-02  0.95583602391E-02  0.89147396303E+00  0.88000000000E+00 0. -1.
        -11    1    4    4    0    0  0.60176417635E-01  0.19529425102E-01 -0.49160360956E-02  0.63458870272E-01  0.51100000000E-03 0.  1.
         11    1    4    4    0    0  0.65168028128E-01  0.17577585154E-02 -0.75863998085E-02  0.65633651339E-01  0.51100000000E-03 0. -1.
</event>
<event>
 8    1  0.1122465E+005  0.1043930E+01  0.7957747E-01            NaN
         13   -1    0    0    0    0  0.00000000000E+00  0.00000000000E+00  0.74505805969E-08  0.10566000000E+00  0.10566000000E+00 0.  1.
     999900   -1    0    0    0    0 -0.00000000000E+00 -0.00000000000E+00 -0.74505805969E-08  0.93827000000E+00  0.93827000000E+00 0.  1.
     999902    2    1    2    0    0 -0.15528325145E-02  0.17546210001E-01 -0.15225695710E-01  0.10206469035E+01  0.10203813008E+01 0.  0.
     999903    2    3    3    0    0 -0.10372560882E+00  0.72207710403E-01  0.31920859732E-01  0.13179936112E+00  0.19472414833E-01 0.  0.
         14    1    1    2    0    0  0.15528325145E-02 -0.17546210001E-01  0.15225695710E-01  0.23283096531E-01  0.00000000000E+00 0. -1.
     999901    1    3    3    0    0  0.10217277631E+00 -0.54661500402E-01 -0.47146555442E-01  0.88884754235E+00  0.88000000000E+00 0.  1.
        -11    1    4    4    0    0 -0.42493238878E-01  0.38500703443E-01  0.78808895738E-02  0.57882199832E-01  0.51100000000E-03 0. -1.
         11    1    4    4    0    0 -0.61232369943E-01  0.33707006960E-01  0.24039970158E-01  0.73917161291E-01  0.51100000000E-03 0.  1.
</event>
<event>
 8    1  0.1122465E+005  0.1043930E+01  0.7957747E-01            NaN
         13   -1    0    0    0    0  0.00000000000E+00  0.00000000000E+00  0.74505805969E-08  0.10566000000E+00  0.10566000000E+00 0.  1.
     999900   -1    0    0    0    0 -0.00000000000E+00 -0.00000000000E+00 -0.74505805969E-08  0.93827000000E+00  0.93827000000E+00 0.  1.
     999902    2    1    2    0    0  0.84200077998E-02  0.17275747683E-01  0.95906245993E-02  0.10224514509E+01  0.10222258270E+01 0.  0.
     999903    2    3    3    0    0 -0.10188257631E-01 -0.73842011276E-01 -0.10478517914E+00  0.13018997692E+00  0.20323707869E-01 0.  0.
         14    1    1    2    0    0 -0.84200077998E-02 -0.17275747683E-01 -0.95906245993E-02  0.21478549056E-01  0.00000000000E+00 0. -1.
     999901    1    3    3    0    0  0.18608265431E-01  0.91117758959E-01  0.11437580374E+00  0.89226147402E+00  0.88000000000E+00 0. -1.
        -11    1    4    4    0    0 -0.14821375338E-01 -0.67458783920E-01 -0.90278806759E-01  0.11367006979E+00  0.51100000000E-03 0.  1.
         11    1    4    4    0    0  0.46331177066E-02 -0.63832273565E-02 -0.14506372379E-01  0.16519907136E-01  0.51100000000E-03 0. -1.
</event>
<event>
 8    1  0.1122465E+005  0.1043930E+01  0.7957747E-01            NaN
         13   -1    0    0    0    0  0.00000000000E+00  0.00000000000E+00  0.74505805969E-08  0.10566000000E+00  0.10566000000E+00 0. -1.
     999900   -1    0    0    0    0 -0.00000000000E+00 -0.00000000000E+00 -0.74505805969E-08  0.93827000000E+00  0.93827000000E+00 0.  1.
     999902    2    1    2    0    0 -0.22782741589E-01  0.36168875786E-02 -0.27493726595E-02  0.10206986798E+01  0.10204342706E+01 0.  0.
     999903    2    3    3    0    0 -0.10246908629E-01  0.56924020921E-01 -0.11651634455E+00  0.13168702547E+00  0.20495629648E-01 0.  0.
         14    1    1    2    0    0  0.22782741589E-01 -0.36168875786E-02  0.27493726595E-02  0.23231320240E-01  0.00000000000E+00 0. -1.
     999901    1    3    3    0    0 -0.12535832960E-01 -0.53307133343E-01  0.11376697189E+00  0.88901165429E+00  0.88000000000E+00 0. -1.
        -11    1    4    4    0    0  0.24155521620E-02  0.36751329429E-01 -0.80200105514E-01  0.88254252886E-01  0.51100000000E-03 0. -1.
         11    1    4    4    0    0 -0.12662460791E-01  0.20172691492E-01 -0.36316239038E-01  0.43432772582E-01  0.51100000000E-03 0.  1.
</event>
<event>
 8    1  0.1122465E+005  0.1043930E+01  0.7957747E-01            NaN
         13   -1    0    0    0    0  0.00000000000E+00  0.00000000000E+00  0.74505805969E-08  0.10566000000E+00  0.10566000000E+00 0. -1.
     999900   -1    0    0    0    0 -0.00000000000E+00 -0.00000000000E+00 -0.74505805969E-08  0.93827000000E+00  0.93827000000E+00 0.  1.
     999902    2    1    2    0    0 -0.93903382766E-02  0.16126175391E-01  0.17164369418E-01  0.10185755613E+01  0.10182599503E+01 0.  0.
     999903    2    3    3    0    0  0.72589090471E-01 -0.50242436410E-01  0.91989202825E-01  0.12912394648E+00  0.20432857000E-01 0.  0.
         14    1    1    2    0    0  0.93903382766E-02 -0.16126175391E-01 -0.17164369418E-01  0.25354438728E-01  0.00000000000E+00 0.  1.
     999901    1    3    3    0    0 -0.81979428748E-01  0.66368611801E-01 -0.74824833407E-01  0.88945161480E+00  0.88000000000E+00 0.  1.
        -11    1    4    4    0    0  0.18668124816E-02 -0.73706646252E-02  0.10896379903E-01  0.13296762833E-01  0.51100000000E-03 0. -1.
         11    1    4    4    0    0  0.70722277990E-01 -0.42871771785E-01  0.81092822922E-01  0.11582718364E+00  0.51100000000E-03 0.  1.
</event>
<event>
 8    1  0.1122465E+005  0.1043930E+01  0.7957747E-01            NaN
         13   -1    0    0    0    0  0.00000000000E+00  0.00000000000E+00  0.74505805969E-08  0.10566000000E+00  0.10566000000E+00 0.  1.
     999900   -1    0    0    0    0 -0.00000000000E+00 -0.00000000000E+00 -0.74505805969E-08  0.93827000000E+00  0.93827000000E+00 0.  1.
     999902    2    1    2    0    0  0.20921454331E-01  0.64477524295E-02  0.52010773657E-02  0.10214281786E+01  0.10211802936E+01 0.  0.
     999903    2    3    3    0    0 -0.70824562016E-01 -0.10611525849E+00 -0.95354037259E-02  0.12940523781E+00  0.19448007019E-01 0.  0.
         14    1    1    2    0    0 -0.20921454331E-01 -0.64477524295E-02 -0.52010773657E-02  0.22501821448E-01  0.00000000000E+00 0.  1.
     999901    1    3    3    0    0  0.91746016347E-01  0.11256301092E+00  0.14736481092E-01  0.89202294075E+00  0.88000000000E+00 0.  1.
        -11    1    4    4    0    0 -0.33806548203E-01 -0.52520345656E-01 -0.14349159087E-01  0.64089226058E-01  0.51100000000E-03 0. -1.
         11    1    4    4    0    0 -0.37018013813E-01 -0.53594912839E-01  0.48137553610E-02  0.65316011747E-01  0.51100000000E-03 0.  1.
</event>
<event>
 8    1  0.1122465E+005  0.1043930E+01  0.7957747E-01            NaN
         13   -1    0    0    0    0  0.00000000000E+00  0.00000000000E+00  0.74505805969E-08  0.10566000000E+00  0.10566000000E+00 0. -1.
     999900   -1    0    0    0    0 -0.00000000000E+00 -0.00000000000E+00 -0.74505805969E-08  0.93827000000E+00  0.93827000000E+00 0. -1.
     999902    2    1    2    0    0 -0.21203754371E-01  0.41028657010E-02 -0.94225834845E-02  0.10203669402E+01  0.10200948362E+01 0.  0.
     999903    2    3    3    0    0 -0.81572373376E-02 -0.11091870956E+00 -0.66122591239E-01  0.13097666298E+00  0.20327039159E-01 0.  0.
         14    1    1    2    0    0  0.21203754371E-01 -0.41028657010E-02  0.94225834845E-02  0.23563059774E-01  0.00000000000E+00 0. -1.
     999901    1    3    3    0    0 -0.13046517034E-01  0.11502157526E+00  0.56700007755E-01  0.88939027725E+00  0.88000000000E+00 0.  1.
        -11    1    4    4    0    0 -0.94873827832E-02 -0.20709255987E-01 -0.11710378261E-01  0.25617919424E-01  0.51100000000E-03 0.  1.
         11    1    4    4    0    0  0.13301454456E-02 -0.90209453575E-01 -0.54412212979E-01  0.10535874355E+00  0.51100000000E-03 0. -1.
</event>
<event>
 8    1  0.1122465E+005  0.1043930E+01  0.7957747E-01            NaN
         13   -1    0    0    0    0  0.00000000000E+00  0.00000000000E+00  0.74505805969E-08  0.10566000000E+00  0.10566000000E+00 0. -1.
     999900   -1    0    0    0    0 -0.00000000000E+00 -0.00000000000E+00 -0.74505805969E-08  0.93827000000E+00  0.93827000000E+00 0. -1.
     999902    2    1    2    0    0  0.61091752909E-02 -0.16862912510E-01 -0.16354977488E-01  0.10196572760E+01  0.10193683316E+01 0.  0.
     999903    2    3    3    0    0 -0.50782805778E-01  0.51455835989E-01 -0.10673849011E+00  0.13057160621E+00  0.20718172122E-01 0.  0.
         14    1    1    2    0    0 -0.61091752909E-02  0.16862912510E-01  0.16354977488E-01  0.24272723985E-01  0.00000000000E+00 0.  1.
     999901    1    3    3    0    0  0.56891981069E-01 -0.68318748499E-01  0.90383512622E-01  0.88908566981E+00  0.88000000000E+00 0.  1.
        -11    1    4    4    0    0 -0.36329809407E-01  0.25312523241E-01 -0.74104712172E-01  0.86326985187E-01  0.51100000000E-03 0.  1.
         11    1    4    4    0    0 -0.14452996371E-01  0.26143312748E-01 -0.32633777938E-01  0.44244621018E-01  0.51100000000E-03 0. -1.
</event>
<event>
 8    1  0.1122465E+005  0.1043930E+01  0.7957747E-01            NaN
         13   -1    0    0    0    0  0.00000000000E+00  0.00000000000E+00  0.74505805969E-08  0.10566000000E+00  0.10566000000E+00 0. -1.
     999900   -1    0    0    0    0 -0.00000000000E+00 -0.00000000000E+00 -0.74505805969E-08  0.93827000000E+00  0.93827000000E+00 0. -1.
     999902    2    1    2    0    0 -0.12150369786E-02  0.88291726622E-02  0.21602115700E-01  0.10205616024E+01  0.10202940273E+01 0.  0.
     999903    2    3    3    0    0 -0.64004017829E-01 -0.97903383601E-01 -0.50596879599E-01  0.12896360462E+00  0.19747918183E-01 0.  0.
         14    1    1    2    0    0  0.12150369786E-02 -0.88291726622E-02 -0.21602115700E-01  0.23368397623E-01  0.00000000000E+00 0.  1.
     999901    1    3    3    0    0  0.62788980850E-01  0.10673255626E+00  0.72198995298E-01  0.89159799776E+00  0.88000000000E+00 0.  1.
        -11    1    4    4    0    0 -0.22034676698E-02 -0.14962641914E-01 -0.78018743955E-02  0.17025459991E-01  0.51100000000E-03 0.  1.
         11    1    4    4    0    0 -0.61800550159E-01 -0.82940741688E-01 -0.42795005203E-01  0.11193814463E+00  0.51100000000E-03 0. -1.
</event>
<event>
 8    1  0.1122465E+005  0.1043930E+01  0.7957747E-01            NaN
         13   -1    0    0    0    0  0.00000000000E+00  0.00000000000E+00  0.74505805969E-08  0.10566000000E+00  0.10566000000E+00 0. -1.
     999900   -1    0    0    0    0 -0.00000000000E+00 -0.00000000000E+00 -0.74505805969E-08  0.93827000000E+00  0.93827000000E+00 0.  1.
     999902    2    1    2    0    0 -0.13088820586E-01 -0.14337571044E-01 -0.12306943796E-01  0.10209442646E+01  0.10206854791E+01 0.  0.
     999903    2    3    3    0    0  0.11755820260E+00  0.35903009285E-01 -0.35958435772E-01  0.12956771470E+00  0.19642467173E-01 0.  0.
         14    1    1    2    0    0  0.13088820586E-01  0.14337571044E-01  0.12306943796E-01  0.22985735433E-01  0.00000000000E+00 0. -1.
     999901    1    3    3    0    0 -0.13064702318E+00 -0.50240580329E-01  0.23651491976E-01  0.89137654987E+00  0.88000000000E+00 0. -1.
        -11    1    4    4    0    0  0.10339664790E+00  0.27872958504E-01 -0.36860015674E-01  0.11325497997E+00  0.51100000000E-03 0.  1.
         11    1    4    4    0    0  0.14161554697E-01  0.80300507808E-02  0.90157990198E-03  0.16312734728E-01  0.51100000000E-03 0. -1.
</event>
<event>
 8    1  0.1122465E+005  0.1043930E+01  0.7957747E-01            NaN
         13   -1    0    0    0    0  0.00000000000E+00  0.00000000000E+00  0.74505805969E-08  0.10566000000E+00  0.10566000000E+00 0. -1.
     999900   -1    0    0    0    0 -0.00000000000E+00 -0.00000000000E+00 -0.74505805969E-08  0.93827000000E+00  0.93827000000E+00 0.  1.
     999902    2    1    2    0    0 -0.20432256867E-01 -0.41285414189E-02 -0.12128323439E-01  0.10198132381E+01  0.10195280390E+01 0.  0.
     999903    2    3    3    0    0  0.90992497711E-01 -0.87018174546E-01 -0.18691891384E-01  0.12889840063E+00  0.20337490980E-01 0.  0.
         14    1    1    2    0    0  0.20432256867E-01  0.41285414189E-02  0.12128323439E-01  0.24116761897E-01  0.00000000000E+00 0. -1.
     999901    1    3    3    0    0 -0.11142475458E+00  0.82889633127E-01  0.65635679452E-02  0.89091483748E+00  0.88000000000E+00 0. -1.
        -11    1    4    4    0    0  0.40262785757E-01 -0.44744246946E-01 -0.18106995325E-01  0.62859080110E-01  0.51100000000E-03 0.  1.
         11    1    4    4    0    0  0.50729711955E-01 -0.42273927601E-01 -0.58489605910E-03  0.66039320516E-01  0.51100000000E-03 0. -1.
</event>
<event>
 8    1  0.1122465E+005  0.1043930E+01  0.7957747E-01            NaN
         13   -1    0    0    0    0  0.00000000000E+00  0.00000000000E+00  0.74505805969E-08  0.10566000000E+00  0.10566000000E+00 0.  1.
     999900   -1    0    0    0    0 -0.00000000000E+00 -0.00000000000E+00 -0.74505805969E-08  0.93827000000E+00  0.93827000000E+00 0.  1.
     999902    2    1    2    0    0 -0.15605063044E-01 -0.33202065285E-02 -0.26236007819E-02  0.10277613561E+01  0.10276341665E+01 0.  0.
     999903    2    3    3    0    0  0.13322715969E+00  0.50414918419E-02 -0.92177268803E-02  0.13520075256E+00  0.20478874141E-01 0.  0.
         14    1    1    2    0    0  0.15605063044E-01  0.33202065285E-02  0.26236007819E-02  0.16168643884E-01  0.00000000000E+00 0.  1.
     999901    1    3    3    0    0 -0.14883222273E+00 -0.83616983703E-02  0.65941260984E-02  0.89256060356E+00  0.88000000000E+00 0. -1.
        -11    1    4    4    0    0  0.48076605068E-01  0.47999900482E-02 -0.12759652192E-01  0.49974690638E-01  0.51100000000E-03 0.  1.
         11    1    4    4    0    0  0.85150554618E-01  0.24150179369E-03  0.35419253112E-02  0.85226061922E-01  0.51100000000E-03 0. -1.
</event>
<event>
 8    1  0.1122465E+005  0.1043930E+01  0.7957747E-01            NaN
         13   -1    0    0    0    0  0.00000000000E+00  0.00000000000E+00  0.74505805969E-08  0.10566000000E+00  0.10566000000E+00 0. -1.
     999900   -1    0    0    0    0 -0.00000000000E+00 -0.00000000000E+00 -0.74505805969E-08  0.93827000000E+00  0.93827000000E+00 0. -1.
     999902    2    1    2    0    0 -0.13649551578E-01 -0.30172513781E-02  0.19897137025E-01  0.10196131308E+01  0.10193231217E+01 0.  0.
     999903    2    3    3    0    0 -0.27171099990E-01  0.45718857300E-01  0.11975396815E+00  0.13252270293E+00  0.19818458953E-01 0.  0.
         14    1    1    2    0    0  0.13649551578E-01  0.30172513781E-02 -0.19897137025E-01  0.24316869164E-01  0.00000000000E+00 0.  1.
     999901    1    3    3    0    0  0.13521548412E-01 -0.48736108678E-01 -0.99856831130E-01  0.88709042791E+00  0.88000000000E+00 0.  1.
        -11    1    4    4    0    0 -0.12659509061E-01  0.35349701306E-01  0.66641491622E-01  0.76493228973E-01  0.51100000000E-03 0.  1.
         11    1    4    4    0    0 -0.14511590930E-01  0.10369155993E-01  0.53112476533E-01  0.56029473956E-01  0.51100000000E-03 0. -1.
</event>
<event>
 8    1  0.1122465E+005  0.1043930E+01  0.7957747E-01            NaN
         13   -1    0    0    0    0  0.00000000000E+00  0.00000000000E+00  0.74505805969E-08  0.10566000000E+00  0.10566000000E+00 0.  1.
     999900   -1    0    0    0    0 -0.00000000000E+00 -0.00000000000E+00 -0.74505805969E-08  0.93827000000E+00  0.93827000000E+00 0. -1.
     999902    2    1    2    0    0 -0.21707921845E-01  0.33454089447E-02 -0.85159563959E-02  0.10203726838E+01  0.10201007140E+01 0.  0.
     999903    2    3    3    0    0  0.12134196517E+00 -0.29402726517E-01 -0.20838859281E-01  0.12813529138E+00  0.19899799036E-01 0.  0.
         14    1    1    2    0    0  0.21707921845E-01 -0.33454089447E-02  0.85159563959E-02  0.23557316171E-01  0.00000000000E+00 0.  1.
     999901    1    3    3    0    0 -0.14304988702E+00  0.32748135462E-01  0.12322902885E-01  0.89223739245E+00  0.88000000000E+00 0. -1.
        -11    1    4    4    0    0  0.51392112903E-01 -0.18522151617E-01 -0.10975627284E-02  0.54641423244E-01  0.51100000000E-03 0. -1.
         11    1    4    4    0    0  0.69949852270E-01 -0.10880574900E-01 -0.19741296552E-01  0.73493868134E-01  0.51100000000E-03 0.  1.
</event>
<event>
 8    1  0.1122465E+005  0.1043930E+01  0.7957747E-01            NaN
         13   -1    0    0    0    0  0.00000000000E+00  0.00000000000E+00  0.74505805969E-08  0.10566000000E+00  0.10566000000E+00 0. -1.
     999900   -1    0    0    0    0 -0.00000000000E+00 -0.00000000000E+00 -0.74505805969E-08  0.93827000000E+00  0.93827000000E+00 0. -1.
     999902    2    1    2    0    0 -0.17010610503E-01  0.14677801614E-01  0.56389938085E-02  0.10207654370E+01  0.10205025626E+01 0.  0.
     999903    2    3    3    0    0  0.11558699697E+00  0.55595672926E-01  0.47509101996E-02  0.12989104267E+00  0.19946907044E-01 0.  0.
         14    1    1    2    0    0  0.17010610503E-01 -0.14677801614E-01 -0.56389938085E-02  0.23164563046E-01  0.00000000000E+00 0.  1.
     999901    1    3    3    0    0 -0.13259760748E+00 -0.40917871312E-01  0.88808360895E-03  0.89087439429E+00  0.88000000000E+00 0. -1.
        -11    1    4    4    0    0  0.69201560187E-01  0.23980667232E-01  0.79011624589E-02  0.73665580988E-01  0.51100000000E-03 0.  1.
         11    1    4    4    0    0  0.46385436786E-01  0.31615005695E-01 -0.31502522593E-02  0.56225461681E-01  0.51100000000E-03 0. -1.
</event>
<event>
 8    1  0.1122465E+005  0.1043930E+01  0.7957747E-01            NaN
         13   -1    0    0    0    0  0.00000000000E+00  0.00000000000E+00  0.74505805969E-08  0.10566000000E+00  0.10566000000E+00 0. -1.
     999900   -1    0    0    0    0 -0.00000000000E+00 -0.00000000000E+00 -0.74505805969E-08  0.93827000000E+00  0.93827000000E+00 0.  1.
     999902    2    1    2    0    0 -0.17785409709E-01  0.62310691241E-02  0.33540427313E-02  0.10247885104E+01  0.10246097279E+01 0.  0.
     999903    2    3    3    0    0 -0.21359783567E-01 -0.11646412493E+00 -0.59749298028E-01  0.13403101344E+00  0.19344280844E-01 0.  0.
         14    1    1    2    0    0  0.17785409709E-01 -0.62310691241E-02 -0.33540427313E-02  0.19141489587E-01  0.00000000000E+00 0. -1.
     999901    1    3    3    0    0  0.35743738577E-02  0.12269519405E+00  0.63103340759E-01  0.89075749697E+00  0.88000000000E+00 0. -1.
        -11    1    4    4    0    0 -0.19295095516E-01 -0.55517270045E-01 -0.33340145423E-01  0.67574362017E-01  0.51100000000E-03 0.  1.
         11    1    4    4    0    0 -0.20646880517E-02 -0.60946854881E-01 -0.26409152604E-01  0.66456651427E-01  0.51100000000E-03 0. -1.
</event>
<event>
 8    1  0.1122465E+005  0.1043930E+01  0.7957747E-01            NaN
         13   -1    0    0    0    0  0.00000000000E+00  0.00000000000E+00  0.74505805969E-08  0.10566000000E+00  0.10566000000E+00 0. -1.
     999900   -1    0    0    0    0 -0.00000000000E+00 -0.00000000000E+00 -0.74505805969E-08  0.93827000000E+00  0.93827000000E+00 0.  1.
     999902    2    1    2    0    0 -0.18335644495E-01 -0.13581807440E-01 -0.45994833038E-02  0.10206530458E+01  0.10203875848E+01 0.  0.
     999903    2    3    3    0    0 -0.24518185962E-01 -0.12085251779E+00  0.44584665153E-01  0.13275422856E+00  0.20722459649E-01 0.  0.
         14    1    1    2    0    0  0.18335644495E-01  0.13581807440E-01  0.45994833038E-02  0.23276954247E-01  0.00000000000E+00 0. -1.
     999901    1    3    3    0    0  0.61825414670E-02  0.10727071035E+00 -0.49184148457E-01  0.88789881720E+00  0.88000000000E+00 0. -1.
        -11    1    4    4    0    0 -0.93314454654E-02 -0.72004173662E-01  0.16751076068E-01  0.74515344525E-01  0.51100000000E-03 0.  1.
         11    1    4    4    0    0 -0.15186740496E-01 -0.48848344128E-01  0.27833589085E-01  0.58238884032E-01  0.51100000000E-03 0. -1.
</event>
<event>
 8    1  0.1122465E+005  0.1043930E+01  0.7957747E-01            NaN
         13   -1    0    0    0    0  0.00000000000E+00  0.00000000000E+00  0.74505805969E-08  0.10566000000E+00  0.10566000000E+00 0. -1.
     999900   -1    0    0    0    0 -0.00000000000E+00 -0.00000000000E+00 -0.74505805969E-08  0.93827000000E+00  0.93827000000E+00 0. -1.
     999902    2    1    2    0    0  0.33770143753E-02  0.15447792978E-01  0.96570370839E-02  0.10254017270E+01  0.10252343171E+01 0.  0.
     999903    2    3    3    0    0 -0.58203787419E-01  0.10675307901E+00  0.58520936486E-01  0.13719199331E+00  0.24759690496E-01 0.  0.
         14    1    1    2    0    0 -0.33770143753E-02 -0.15447792978E-01 -0.96570370839E-02  0.18528272970E-01  0.00000000000E+00 0. -1.
     999901    1    3    3    0    0  0.61580801795E-01 -0.91305286033E-01 -0.48863899402E-01  0.88820973372E+00  0.88000000000E+00 0.  1.
        -11    1    4    4    0    0 -0.28875722500E-01  0.49092716472E-01  0.13977505698E-01  0.58647539992E-01  0.51100000000E-03 0. -1.
         11    1    4    4    0    0 -0.29328064919E-01  0.57660362539E-01  0.44543430789E-01  0.78544453320E-01  0.51100000000E-03 0.  1.
</event>
<event>
 8    1  0.1122465E+005  0.1043930E+01  0.7957747E-01            NaN
         13   -1    0    0    0    0  0.00000000000E+00  0.00000000000E+00  0.74505805969E-08  0.10566000000E+00  0.10566000000E+00 0. -1.
     999900   -1    0    0    0    0 -0.00000000000E+00 -0.00000000000E+00 -0.74505805969E-08  0.93827000000E+00  0.93827000000E+00 0.  1.
     999902    2    1    2    0    0 -0.87882639126E-02 -0.12989558605E-01  0.17526788236E-01  0.10204108478E+01  0.10201397687E+01 0.  0.
     999903    2    3    3    0    0  0.90372762202E-01  0.31524365638E-02  0.93347021865E-01  0.13145517907E+00  0.19738885681E-01 0.  0.
         14    1    1    2    0    0  0.87882639126E-02  0.12989558605E-01 -0.17526788236E-01  0.23519152222E-01  0.00000000000E+00 0.  1.
     999901    1    3    3    0    0 -0.99161026115E-01 -0.16141995169E-01 -0.75820233629E-01  0.88895566871E+00  0.88000000000E+00 0. -1.
        -11    1    4    4    0    0  0.71104733696E-01  0.89687987473E-02  0.65496633281E-01  0.97089611169E-01  0.51100000000E-03 0. -1.
         11    1    4    4    0    0  0.19268028506E-01 -0.58163621835E-02  0.27850388584E-01  0.34365567897E-01  0.51100000000E-03 0.  1.
</event>
<event>
 8    1  0.1122465E+005  0.1043930E+01  0.7957747E-01            NaN
         13   -1    0    0    0    0  0.00000000000E+00  0.00000000000E+00  0.74505805969E-08  0.10566000000E+00  0.10566000000E+00 0.  1.
     999900   -1    0    0    0    0 -0.00000000000E+00 -0.00000000000E+00 -0.74505805969E-08  0.93827000000E+00  0.93827000000E+00 0. -1.
     999902    2    1    2    0    0  0.20976368326E-01 -0.33606186100E-02 -0.10164340687E-01  0.10203797217E+01  0.10201079163E+01 0.  0.
     999903    2    3    3    0    0  0.10607644702E+00  0.71935832967E-01 -0.29085505668E-01  0.13287220654E+00  0.19546865543E-01 0.  0.
         14    1    1    2    0    0 -0.20976368326E-01  0.33606186100E-02  0.10164340687E-01  0.23550278283E-01  0.00000000000E+00 0. -1.
     999901    1    3    3    0    0 -0.85100078698E-01 -0.75296451577E-01  0.18921164981E-01  0.88750751518E+00  0.88000000000E+00 0.  1.
        -11    1    4    4    0    0  0.76351563994E-01  0.41102277972E-01 -0.16947843946E-01  0.88354112039E-01  0.51100000000E-03 0.  1.
         11    1    4    4    0    0  0.29724883030E-01  0.30833554995E-01 -0.12137661721E-01  0.44518094499E-01  0.51100000000E-03 0. -1.
</event>
<event>
 7    1  0.1122465E+005  0.1043930E+01  0.7957747E-01            NaN
         13   -1    0    0    0    0  0.00000000000E+00  0.00000000000E+00  0.74505805969E-08  0.10566000000E+00  0.10566000000E+00 0. -1.
     999900   -1    0    0    0    0 -0.00000000000E+00 -0.00000000000E+00 -0.74505805969E-08  0.93827000000E+00  0.93827000000E+00 0.  1.
     999903    2    1    2    0    0  0.47516663112E-01  0.11214542268E-01 -0.14264042005E-01  0.54624666364E-01  0.19919639794E-01 0.  0.
         14    1    1    2    0    0 -0.28391456044E-01 -0.13066610282E-01  0.10015182178E+00  0.10491519664E+00  0.00000000000E+00 0. -1.
     999901    1    1    2    0    0 -0.19125207068E-01  0.18520680138E-02 -0.85887779774E-01  0.88439013700E+00  0.88000000000E+00 0.  1.
        -11    1    3    3    0    0  0.17151206753E-01  0.17143109891E-02  0.43163320158E-02  0.17776236900E-01  0.51100000000E-03 0.  1.
         11    1    3    3    0    0  0.30365456358E-01  0.95002312791E-02 -0.18580374020E-01  0.36848429464E-01  0.51100000000E-03 0. -1.
</event>
<event>
 8    1  0.1322587E+005  0.1043930E+01  0.7957747E-01            NaN
         13   -1    0    0    0    0  0.00000000000E+00  0.00000000000E+00  0.74505805969E-08  0.10566000000E+00  0.10566000000E+00 0. -1.
     999900   -1    0    0    0    0 -0.00000000000E+00 -0.00000000000E+00 -0.74505805969E-08  0.93827000000E+00  0.93827000000E+00 0.  1.
     999902    2    1    2    0    0 -0.47715391654E-03  0.14338894830E-02 -0.25080056368E-01  0.10188044564E+01  0.10184945888E+01 0.  0.
     999903    2    3    3    0    0 -0.69683448634E-01  0.51752131075E-01 -0.98749386344E-01  0.13159049862E+00  0.55273808231E-02 0.  0.
         14    1    1    2    0    0  0.47715391654E-03 -0.14338894830E-02  0.25080056368E-01  0.25125543623E-01  0.00000000000E+00 0. -1.
     999901    1    3    3    0    0  0.69206294717E-01 -0.50318241592E-01  0.73669329976E-01  0.88721395776E+00  0.88000000000E+00 0. -1.
        -11    1    4    4    0    0 -0.36360154894E-01  0.30370235640E-01 -0.53951974544E-01  0.71801732256E-01  0.51100000000E-03 0. -1.
         11    1    4    4    0    0 -0.33323293739E-01  0.21381895435E-01 -0.44797411800E-01  0.59788766361E-01  0.51100000000E-03 0.  1.
</event>
<event>
 8    1  0.1122465E+005  0.1043930E+01  0.7957747E-01            NaN
         13   -1    0    0    0    0  0.00000000000E+00  0.00000000000E+00  0.74505805969E-08  0.10566000000E+00  0.10566000000E+00 0. -1.
     999900   -1    0    0    0    0 -0.00000000000E+00 -0.00000000000E+00 -0.74505805969E-08  0.93827000000E+00  0.93827000000E+00 0. -1.
     999902    2    1    2    0    0 -0.30137268410E-02  0.53983235394E-02 -0.24064615166E-01  0.10190838705E+01  0.10187809406E+01 0.  0.
     999903    2    3    3    0    0 -0.27817217806E-01 -0.44727435920E-02 -0.12793351866E+00  0.13257306956E+00  0.20367389001E-01 0.  0.
         14    1    1    2    0    0  0.30137268410E-02 -0.53983235394E-02  0.24064615166E-01  0.24846129469E-01  0.00000000000E+00 0. -1.
     999901    1    3    3    0    0  0.24803490965E-01  0.98710671315E-02  0.10386890349E+00  0.88651080097E+00  0.88000000000E+00 0.  1.
        -11    1    4    4    0    0 -0.14279477772E-01  0.70525868159E-02 -0.76763695352E-01  0.78400054281E-01  0.51100000000E-03 0.  1.
         11    1    4    4    0    0 -0.13537740034E-01 -0.11525330408E-01 -0.51169823303E-01  0.54173015276E-01  0.51100000000E-03 0. -1.
</event>
<event>
 8    1  0.1122465E+005  0.1043930E+01  0.7957747E-01            NaN
         13   -1    0    0    0    0  0.00000000000E+00  0.00000000000E+00  0.74505805969E-08  0.10566000000E+00  0.10566000000E+00 0. -1.
     999900   -1    0    0    0    0 -0.00000000000E+00 -0.00000000000E+00 -0.74505805969E-08  0.93827000000E+00  0.93827000000E+00 0.  1.
     999902    2    1    2    0    0  0.13726919980E-01  0.20050508151E-02  0.19109849125E-01  0.10203157057E+01  0.10200424033E+01 0.  0.
     999903    2    3    3    0    0  0.11829543542E+00  0.18505884455E-01  0.54854134726E-01  0.13325059769E+00  0.20260007090E-01 0.  0.
         14    1    1    2    0    0 -0.13726919980E-01 -0.20050508151E-02 -0.19109849125E-01  0.23614294283E-01  0.00000000000E+00 0.  1.
     999901    1    3    3    0    0 -0.10456851544E+00 -0.16500833640E-01 -0.35744285601E-01  0.88706510803E+00  0.88000000000E+00 0.  1.
        -11    1    4    4    0    0  0.94273804803E-01  0.68891552723E-02  0.46057948762E-01  0.10515039942E+00  0.51100000000E-03 0. -1.
         11    1    4    4    0    0  0.24021630614E-01  0.11616729183E-01  0.87961859635E-02  0.28100198269E-01  0.51100000000E-03 0.  1.
</event>
<event>
 8    1  0.1122465E+005  0.1043930E+01  0.7957747E-01            NaN
         13   -1    0    0    0    0  0.00000000000E+00  0.00000000000E+00  0.74505805969E-08  0.10566000000E+00  0.10566000000E+00 0.  1.
     999900   -1    0    0    0    0 -0.00000000000E+00 -0.00000000000E+00 -0.74505805969E-08  0.93827000000E+00  0.93827000000E+00 0. -1.
     999902    2    1    2    0    0  0.21428222230E-01 -0.12069816307E-01 -0.24102033186E-02  0.10192184996E+01  0.10189188837E+01 0.  0.
     999903    2    3    3    0    0  0.11068261426E+00  0.67247485776E-01  0.66083691544E-02  0.13110875660E+00  0.19312433080E-01 0.  0.
         14    1    1    2    0    0 -0.21428222230E-01  0.12069816307E-01  0.24102033186E-02  0.24711500433E-01  0.00000000000E+00 0. -1.
     999901    1    3    3    0    0 -0.89254392029E-01 -0.79317302083E-01 -0.90185724730E-02  0.88810974297E+00  0.88000000000E+00 0.  1.
        -11    1    4    4    0    0  0.85246506849E-01  0.60225334856E-01  0.79808898404E-02  0.10468053120E+00  0.51100000000E-03 0. -1.
         11    1    4    4    0    0  0.25436107410E-01  0.70221509198E-02 -0.13725206860E-02  0.26428225399E-01  0.51100000000E-03 0.  1.
</event>
<event>
 8    1  0.1122465E+005  0.1043930E+01  0.7957747E-01            NaN
         13   -1    0    0    0    0  0.00000000000E+00  0.00000000000E+00  0.74505805969E-08  0.10566000000E+00  0.10566000000E+00 0.  1.
     999900   -1    0    0    0    0 -0.00000000000E+00 -0.00000000000E+00 -0.74505805969E-08  0.93827000000E+00  0.93827000000E+00 0. -1.
     999902    2    1    2    0    0 -0.21227489200E-01  0.56957343021E-03 -0.10279086185E-01  0.10203378334E+01  0.10200650489E+01 0.  0.
     999903    2    3    3    0    0  0.86526274604E-01 -0.78955705398E-02  0.91672703720E-01  0.12788240049E+00  0.20022175650E-01 0.  0.
         14    1    1    2    0    0  0.21227489200E-01 -0.56957343021E-03  0.10279086185E-01  0.23592166590E-01  0.00000000000E+00 0.  1.
     999901    1    3    3    0    0 -0.10775376380E+00  0.84651439700E-02 -0.10195178991E+00  0.89245543292E+00  0.88000000000E+00 0. -1.
        -11    1    4    4    0    0  0.43079721009E-01  0.35165440826E-02  0.54585925918E-01  0.69628391292E-01  0.51100000000E-03 0.  1.
         11    1    4    4    0    0  0.43446553595E-01 -0.11412114622E-01  0.37086777801E-01  0.58254009202E-01  0.51100000000E-03 0. -1.
</event>
<event>
 8    1  0.1122465E+005  0.1043930E+01  0.7957747E-01            NaN
         13   -1    0    0    0    0  0.00000000000E+00  0.00000000000E+00  0.74505805969E-08  0.10566000000E+00  0.10566000000E+00 0. -1.
     999900   -1    0    0    0    0 -0.00000000000E+00 -0.00000000000E+00 -0.74505805969E-08  0.93827000000E+00  0.93827000000E+00 0.  1.
     999902    2    1    2    0    0  0.20630777122E-01 -0.33914407121E-02  0.14501608388E-01  0.10184854037E+01  0.10181675157E+01 0.  0.
     999903    2    3    3    0    0 -0.45220370540E-01 -0.36149016473E-01  0.11433336268E+00  0.12979208676E+00  0.20548349352E-01 0.  0.
         14    1    1    2    0    0 -0.20630777122E-01  0.33914407121E-02 -0.14501608388E-01  0.25444596294E-01  0.00000000000E+00 0.  1.
     999901    1    3    3    0    0  0.65851147661E-01  0.32757575761E-01 -0.99831754289E-01  0.88869331694E+00  0.88000000000E+00 0.  1.
        -11    1    4    4    0    0 -0.41419651120E-01 -0.22539808108E-01  0.91444627158E-01  0.10288834436E+00  0.51100000000E-03 0.  1.
         11    1    4    4    0    0 -0.38007194198E-02 -0.13609208365E-01  0.22888735518E-01  0.26903742399E-01  0.51100000000E-03 0. -1.
</event>
<event>
 8    1  0.1122465E+005  0.1043930E+01  0.7957747E-01            NaN
         13   -1    0    0    0    0  0.00000000000E+00  0.00000000000E+00  0.74505805969E-08  0.10566000000E+00  0.10566000000E+00 0.  1.
     999900   -1    0    0    0    0 -0.00000000000E+00 -0.00000000000E+00 -0.74505805969E-08  0.93827000000E+00  0.93827000000E+00 0. -1.
     999902    2    1    2    0    0  0.21612132997E-01 -0.70876612185E-03 -0.94575266061E-02  0.10203284862E+01  0.10200554830E+01 0.  0.
     999903    2    3    3    0    0  0.79123847361E-01  0.10399112202E+00 -0.29457022690E-02  0.13223385856E+00  0.20059399503E-01 0.  0.
         14    1    1    2    0    0 -0.21612132997E-01  0.70876612185E-03  0.94575266061E-02  0.23601513756E-01  0.00000000000E+00 0.  1.
     999901    1    3    3    0    0 -0.57511714364E-01 -0.10469988814E+00 -0.65118243372E-02  0.88809462768E+00  0.88000000000E+00 0. -1.
        -11    1    4    4    0    0  0.49994155521E-01  0.58513287602E-01 -0.10578004672E-01  0.77687680594E-01  0.51100000000E-03 0.  1.
         11    1    4    4    0    0  0.29129691840E-01  0.45477834415E-01  0.76323024035E-02  0.54546177966E-01  0.51100000000E-03 0. -1.
</event>
<event>
 8    1  0.1122465E+005  0.1043930E+01  0.7957747E-01            NaN
         13   -1    0    0    0    0  0.00000000000E+00  0.00000000000E+00  0.74505805969E-08  0.10566000000E+00  0.10566000000E+00 0.  1.
     999900   -1    0    0    0    0 -0.00000000000E+00 -0.00000000000E+00 -0.74505805969E-08  0.93827000000E+00  0.93827000000E+00 0. -1.
     999902    2    1    2    0    0 -0.10967244431E-01 -0.21911809392E-01 -0.30736223624E-02  0.10192347576E+01  0.10189355407E+01 0.  0.
     999903    2    3    3    0    0  0.94046962420E-01  0.15567992972E-01  0.82211556693E-01  0.12810834629E+00  0.23786861694E-01 0.  0.
         14    1    1    2    0    0  0.10967244431E-01  0.21911809392E-01  0.30736223624E-02  0.24695242369E-01  0.00000000000E+00 0. -1.
     999901    1    3    3    0    0 -0.10501420685E+00 -0.37479802364E-01 -0.85285179056E-01  0.89112641134E+00  0.88000000000E+00 0. -1.
        -11    1    4    4    0    0  0.29723335349E-01  0.16260732383E-01  0.26724633041E-01  0.43155013776E-01  0.51100000000E-03 0.  1.
         11    1    4    4    0    0  0.64323627071E-01 -0.69273941060E-03  0.55486923652E-01  0.84953332512E-01  0.51100000000E-03 0. -1.
</event>
<event>
 8    1  0.1122465E+005  0.1043930E+01  0.7957747E-01            NaN
         13   -1    0    0    0    0  0.00000000000E+00  0.00000000000E+00  0.74505805969E-08  0.10566000000E+00  0.10566000000E+00 0.  1.
     999900   -1    0    0    0    0 -0.00000000000E+00 -0.00000000000E+00 -0.74505805969E-08  0.93827000000E+00  0.93827000000E+00 0. -1.
     999902    2    1    2    0    0 -0.55234612455E-02 -0.11172415583E-01  0.21086285700E-01  0.10194358591E+01  0.10191415544E+01 0.  0.
     999903    2    3    3    0    0  0.69605799155E-01 -0.84008818571E-01  0.71960101380E-01  0.13177731411E+00  0.16868771403E-01 0.  0.
         14    1    1    2    0    0  0.55234612455E-02  0.11172415583E-01 -0.21086285700E-01  0.24494140906E-01  0.00000000000E+00 0. -1.
     999901    1    3    3    0    0 -0.75129260401E-01  0.72836402987E-01 -0.50873815679E-01  0.88765854499E+00  0.88000000000E+00 0.  1.
        -11    1    4    4    0    0  0.27175986942E-01 -0.45609364123E-01  0.37014684859E-01  0.64723229046E-01  0.51100000000E-03 0.  1.
         11    1    4    4    0    0  0.42429812214E-01 -0.38399454448E-01  0.34945416521E-01  0.67054085060E-01  0.51100000000E-03 0. -1.
</event>
<event>
 8    1  0.1122465E+005  0.1043930E+01  0.7957747E-01            NaN
         13   -1    0    0    0    0  0.00000000000E+00  0.00000000000E+00  0.74505805969E-08  0.10566000000E+00  0.10566000000E+00 0. -1.
     999900   -1    0    0    0    0 -0.00000000000E+00 -0.00000000000E+00 -0.74505805969E-08  0.93827000000E+00  0.93827000000E+00 0.  1.
     999902    2    1    2    0    0  0.11342939249E-01 -0.17644827440E-01 -0.10680241577E-01  0.10203913134E+01  0.10201197786E+01 0.  0.
     999903    2    3    3    0    0  0.10394837648E+00 -0.77260830541E-01  0.10461413648E-01  0.13327418224E+00  0.29632171145E-01 0.  0.
         14    1    1    2    0    0 -0.11342939249E-01  0.17644827440E-01  0.10680241577E-01  0.23538686589E-01  0.00000000000E+00 0. -1.
     999901    1    3    3    0    0 -0.92605437235E-01  0.59616003102E-01 -0.21141655225E-01  0.88711713117E+00  0.88000000000E+00 0.  1.
        -11    1    4    4    0    0  0.67396102057E-01 -0.36384452760E-01 -0.35510466323E-02  0.76674207060E-01  0.51100000000E-03 0.  1.
         11    1    4    4    0    0  0.36552274427E-01 -0.40876377782E-01  0.14012460280E-01  0.56599975181E-01  0.51100000000E-03 0. -1.
</event>
<event>
 8    1  0.1122465E+005  0.1043930E+01  0.7957747E-01            NaN
         13   -1    0    0    0    0  0.00000000000E+00  0.00000000000E+00  0.74505805969E-08  0.10566000000E+00  0.10566000000E+00 0.  1.
     999900   -1    0    0    0    0 -0.00000000000E+00 -0.00000000000E+00 -0.74505805969E-08  0.93827000000E+00  0.93827000000E+00 0. -1.
     999902    2    1    2    0    0  0.98290600308E-02 -0.19375993680E-01  0.11241120032E-01  0.10194677366E+01  0.10191742067E+01 0.  0.
     999903    2    3    3    0    0 -0.36331414104E-01 -0.10218043962E+00  0.72984146451E-01  0.13222506011E+00  0.19898919457E-01 0.  0.
         14    1    1    2    0    0 -0.98290600308E-02  0.19375993680E-01 -0.11241120032E-01  0.24462263423E-01  0.00000000000E+00 0. -1.
     999901    1    3    3    0    0  0.46160474134E-01  0.82804445939E-01 -0.61743026419E-01  0.88724267647E+00  0.88000000000E+00 0.  1.
        -11    1    4    4    0    0 -0.78785858978E-02 -0.48603298460E-01  0.37970338870E-01  0.62180065068E-01  0.51100000000E-03 0. -1.
         11    1    4    4    0    0 -0.28452828206E-01 -0.53577141159E-01  0.35013807581E-01  0.70044995039E-01  0.51100000000E-03 0.  1.
</event>
<event>
 8    1  0.1122465E+005  0.1043930E+01  0.7957747E-01            NaN
         13   -1    0    0    0    0  0.00000000000E+00  0.00000000000E+00  0.74505805969E-08  0.10566000000E+00  0.10566000000E+00 0.  1.
     999900   -1    0    0    0    0 -0.00000000000E+00 -0.00000000000E+00 -0.74505805969E-08  0.93827000000E+00  0.93827000000E+00 0.  1.
     999902    2    1    2    0    0 -0.13469498340E-01 -0.97637744622E-02  0.13760339829E-01  0.10223405204E+01  0.10221125349E+01 0.  0.
     999903    2    3    3    0    0  0.10347547935E+00  0.40377882368E-01 -0.64025967274E-01  0.12979302971E+00  0.20232594115E-01 0.  0.
         14    1    1    2    0    0  0.13469498340E-01  0.97637744622E-02 -0.13760339829E-01  0.21589479602E-01  0.00000000000E+00 0. -1.
     999901    1    3    3    0    0 -0.11694497769E+00 -0.50141656830E-01  0.77786307104E-01  0.89254749069E+00  0.88000000000E+00 0.  1.
        -11    1    4    4    0    0  0.84177861898E-01  0.36624604410E-01 -0.44273378224E-01  0.10191990592E+00  0.51100000000E-03 0. -1.
         11    1    4    4    0    0  0.19297617454E-01  0.37532779577E-02 -0.19752589051E-01  0.27873123794E-01  0.51100000000E-03 0.  1.
</event>
<event>
 8    1  0.1122465E+005  0.1043930E+01  0.7957747E-01            NaN
         13   -1    0    0    0    0  0.00000000000E+00  0.00000000000E+00  0.74505805969E-08  0.10566000000E+00  0.10566000000E+00 0. -1.
     999900   -1    0    0    0    0 -0.00000000000E+00 -0.00000000000E+00 -0.74505805969E-08  0.93827000000E+00  0.93827000000E+00 0.  1.
     999902    2    1    2    0    0 -0.71983041120E-02  0.88675897872E-02 -0.20892258480E-01  0.10201195780E+01  0.10198416628E+01 0.  0.
     999903    2    3    3    0    0 -0.38374546679E-01 -0.93401562590E-01  0.76748732673E-01  0.12828736241E+00  0.19256730281E-01 0.  0.
         14    1    1    2    0    0  0.71983041120E-02 -0.88675897872E-02  0.20892258480E-01  0.23810421986E-01  0.00000000000E+00 0. -1.
     999901    1    3    3    0    0  0.31176242567E-01  0.10226915238E+00 -0.97640991154E-01  0.89183221560E+00  0.88000000000E+00 0. -1.
        -11    1    4    4    0    0 -0.90389279391E-02 -0.72501730879E-02  0.11247603408E-01  0.16156637383E-01  0.51100000000E-03 0.  1.
         11    1    4    4    0    0 -0.29335618740E-01 -0.86151389502E-01  0.65501129265E-01  0.11213072503E+00  0.51100000000E-03 0. -1.
</event>
<event>
 8    1  0.1122465E+005  0.1043930E+01  0.7957747E-01            NaN
         13   -1    0    0    0    0  0.00000000000E+00  0.00000000000E+00  0.74505805969E-08  0.10566000000E+00  0.10566000000E+00 0. -1.
     999900   -1    0    0    0    0 -0.00000000000E+00 -0.00000000000E+00 -0.74505805969E-08  0.93827000000E+00  0.93827000000E+00 0.  1.
     999902    2    1    2    0    0  0.97753365655E-02 -0.19948879999E-01 -0.91955003700E-02  0.10198868670E+01  0.10196034274E+01 0.  0.
     999903    2    3    3    0    0  0.45668920967E-01 -0.12198945184E+00 -0.13227779065E-01  0.13325453790E+00  0.24793568292E-01 0.  0.
         14    1    1    2    0    0 -0.97753365655E-02  0.19948879999E-01  0.91955003700E-02  0.24043133016E-01  0.00000000000E+00 0. -1.
     999901    1    3    3    0    0 -0.35893584401E-01  0.10204057185E+00  0.40322786945E-02  0.88663232908E+00  0.88000000000E+00 0.  1.
        -11    1    4    4    0    0  0.29315081176E-01 -0.75394952539E-01  0.38886018769E-02  0.80988611535E-01  0.51100000000E-03 0.  1.
         11    1    4    4    0    0  0.16353839791E-01 -0.46594499305E-01 -0.17116380941E-01  0.52265926366E-01  0.51100000000E-03 0. -1.
</event>
<event>
 8    1  0.1122465E+005  0.1043930E+01  0.7957747E-01            NaN
         13   -1    0    0    0    0  0.00000000000E+00  0.00000000000E+00  0.74505805969E-08  0.10566000000E+00  0.10566000000E+00 0.  1.
     999900   -1    0    0    0    0 -0.00000000000E+00 -0.00000000000E+00 -0.74505805969E-08  0.93827000000E+00  0.93827000000E+00 0.  1.
     999902    2    1    2    0    0  0.10254433391E-02  0.55507236874E-02  0.23042155722E-01  0.10202065304E+01  0.10199306652E+01 0.  0.
     999903    2    3    3    0    0  0.18143889415E-01 -0.87791569341E-01  0.95047962277E-01  0.13218025772E+00  0.20023611771E-01 0.  0.
         14    1    1    2    0    0 -0.10254433391E-02 -0.55507236874E-02 -0.23042155722E-01  0.23723469556E-01  0.00000000000E+00 0. -1.
     999901    1    3    3    0    0 -0.17118446076E-01  0.93342293028E-01 -0.72005806555E-01  0.88802627272E+00  0.88000000000E+00 0.  1.
        -11    1    4    4    0    0 -0.95951949737E-03 -0.23032967099E-01  0.15228179878E-01  0.27633255951E-01  0.51100000000E-03 0.  1.
         11    1    4    4    0    0  0.19103408913E-01 -0.64758602242E-01  0.79819782399E-01  0.10454700177E+00  0.51100000000E-03 0. -1.
</event>
<event>
 8    1  0.1122465E+005  0.1043930E+01  0.7957747E-01            NaN
         13   -1    0    0    0    0  0.00000000000E+00  0.00000000000E+00  0.74505805969E-08  0.10566000000E+00  0.10566000000E+00 0. -1.
     999900   -1    0    0    0    0 -0.00000000000E+00 -0.00000000000E+00 -0.74505805969E-08  0.93827000000E+00  0.93827000000E+00 0. -1.
     999902    2    1    2    0    0 -0.22310742659E-01 -0.87328852119E-02  0.25124619798E-03  0.10199697069E+01  0.10196882402E+01 0.  0.
     999903    2    3    3    0    0  0.98957844010E-01 -0.29376889993E-01  0.73538792681E-01  0.12839620485E+00  0.20542026020E-01 0.  0.
         14    1    1    2    0    0  0.22310742659E-01  0.87328852119E-02 -0.25124619798E-03  0.23960293128E-01  0.00000000000E+00 0. -1.
     999901    1    3    3    0    0 -0.12126858667E+00  0.20644004781E-01 -0.73287546483E-01  0.89157350203E+00  0.88000000000E+00 0. -1.
        -11    1    4    4    0    0  0.24613271647E-01  0.68562373306E-03  0.12524913151E-01  0.27630016133E-01  0.51100000000E-03 0. -1.
         11    1    4    4    0    0  0.74344572363E-01 -0.30062513726E-01  0.61013879530E-01  0.10076618871E+00  0.51100000000E-03 0.  1.
</event>
<event>
 8    1  0.1204401E+005  0.1043930E+01  0.7957747E-01            NaN
         13   -1    0    0    0    0  0.00000000000E+00  0.00000000000E+00  0.74505805969E-08  0.10566000000E+00  0.10566000000E+00 0.  1.
     999900   -1    0    0    0    0 -0.00000000000E+00 -0.00000000000E+00 -0.74505805969E-08  0.93827000000E+00  0.93827000000E+00 0. -1.
     999902    2    1    2    0    0 -0.20126894153E-02 -0.23498869307E-01  0.65797872600E-02  0.10194444659E+01  0.10191503705E+01 0.  0.
     999903    2    3    3    0    0  0.10187793746E+00  0.39012211715E-02  0.78164284686E-01  0.13002422355E+00  0.20057657946E-01 0.  0.
         14    1    1    2    0    0  0.20126894153E-02  0.23498869307E-01 -0.65797872600E-02  0.24485534052E-01  0.00000000000E+00 0. -1.
     999901    1    3    3    0    0 -0.10389062688E+00 -0.27400090479E-01 -0.71584497426E-01  0.88942024240E+00  0.88000000000E+00 0. -1.
        -11    1    4    4    0    0  0.63962124256E-01 -0.57580548509E-02  0.41964433592E-01  0.76717555635E-01  0.51100000000E-03 0.  1.
         11    1    4    4    0    0  0.37915813205E-01  0.96592760224E-02  0.36199851094E-01  0.53306667918E-01  0.51100000000E-03 0. -1.
</event>
<event>
 8    1  0.1122465E+005  0.1043930E+01  0.7957747E-01            NaN
         13   -1    0    0    0    0  0.00000000000E+00  0.00000000000E+00  0.74505805969E-08  0.10566000000E+00  0.10566000000E+00 0.  1.
     999900   -1    0    0    0    0 -0.00000000000E+00 -0.00000000000E+00 -0.74505805969E-08  0.93827000000E+00  0.93827000000E+00 0. -1.
     999902    2    1    2    0    0 -0.11894330160E-01  0.40506662935E-02  0.21889509663E-01  0.10186904750E+01  0.10183777542E+01 0.  0.
     999903    2    3    3    0    0  0.12674116384E-01 -0.11491574783E+00 -0.49775428270E-01  0.12745959609E+00  0.20052257997E-01 0.  0.
         14    1    1    2    0    0  0.11894330160E-01 -0.40506662935E-02 -0.21889509663E-01  0.25239524969E-01  0.00000000000E+00 0. -1.
     999901    1    3    3    0    0 -0.24568446544E-01  0.11896641412E+00  0.71664937933E-01  0.89123087894E+00  0.88000000000E+00 0. -1.
        -11    1    4    4    0    0  0.61392514054E-02 -0.21497715575E-01 -0.23450077986E-02  0.22485603513E-01  0.51100000000E-03 0. -1.
         11    1    4    4    0    0  0.65348649783E-02 -0.93418032251E-01 -0.47430420471E-01  0.10497399257E+00  0.51100000000E-03 0.  1.
</event>
<event>
 8    1  0.1122465E+005  0.1043930E+01  0.7957747E-01            NaN
         13   -1    0    0    0    0  0.00000000000E+00  0.00000000000E+00  0.74505805969E-08  0.10566000000E+00  0.10566000000E+00 0.  1.
     999900   -1    0    0    0    0 -0.00000000000E+00 -0.00000000000E+00 -0.74505805969E-08  0.93827000000E+00  0.93827000000E+00 0. -1.
     999902    2    1    2    0    0 -0.94371974448E-02 -0.98991379785E-02 -0.19041101785E-01  0.10204860843E+01  0.10202167569E+01 0.  0.
     999903    2    3    3    0    0 -0.10911406924E+00  0.36130831703E-01  0.57593857356E-01  0.13035847888E+00  0.21563012423E-01 0.  0.
         14    1    1    2    0    0  0.94371974448E-02  0.98991379785E-02  0.19041101785E-01  0.23443915746E-01  0.00000000000E+00 0.  1.
     999901    1    3    3    0    0  0.99676871800E-01 -0.46029969682E-01 -0.76634959141E-01  0.89012760537E+00  0.88000000000E+00 0. -1.
        -11    1    4    4    0    0 -0.44245439694E-01  0.82805760413E-02  0.32144681555E-01  0.55315174650E-01  0.51100000000E-03 0. -1.
         11    1    4    4    0    0 -0.64868629551E-01  0.27850255662E-01  0.25449175801E-01  0.75043304233E-01  0.51100000000E-03 0.  1.
</event>
<event>
 8    1  0.1122465E+005  0.1043930E+01  0.7957747E-01            NaN
         13   -1    0    0    0    0  0.00000000000E+00  0.00000000000E+00  0.74505805969E-08  0.10566000000E+00  0.10566000000E+00 0.  1.
     999900   -1    0    0    0    0 -0.00000000000E+00 -0.00000000000E+00 -0.74505805969E-08  0.93827000000E+00  0.93827000000E+00 0. -1.
     999902    2    1    2    0    0 -0.21948597959E-01  0.96180019142E-02 -0.35077913213E-02  0.10197111744E+01  0.10194235271E+01 0.  0.
     999903    2    3    3    0    0  0.95059103960E-01  0.81923526963E-01 -0.21426730136E-01  0.12884643741E+00  0.19864595446E-01 0.  0.
         14    1    1    2    0    0  0.21948597959E-01 -0.96180019142E-02  0.35077913213E-02  0.24218825594E-01  0.00000000000E+00 0.  1.
     999901    1    3    3    0    0 -0.11700770192E+00 -0.72305525049E-01  0.17918938814E-01  0.89086473700E+00  0.88000000000E+00 0.  1.
        -11    1    4    4    0    0  0.17362278066E-01  0.24663653237E-01 -0.93126338295E-02  0.31571043069E-01  0.51100000000E-03 0. -1.
         11    1    4    4    0    0  0.77696825894E-01  0.57259873726E-01 -0.12114096306E-01  0.97275394338E-01  0.51100000000E-03 0.  1.
</event>
<event>
 8    1  0.1122465E+005  0.1043930E+01  0.7957747E-01            NaN
         13   -1    0    0    0    0  0.00000000000E+00  0.00000000000E+00  0.74505805969E-08  0.10566000000E+00  0.10566000000E+00 0. -1.
     999900   -1    0    0    0    0 -0.00000000000E+00 -0.00000000000E+00 -0.74505805969E-08  0.93827000000E+00  0.93827000000E+00 0. -1.
     999902    2    1    2    0    0 -0.31247024977E-02 -0.27093151434E-01 -0.20775929065E-01  0.10096452826E+01  0.10090630083E+01 0.  0.
     999903    2    3    3    0    0 -0.77183113417E-01 -0.21783293095E-01  0.87121255467E-01  0.11995171440E+00  0.19145646466E-01 0.  0.
         14    1    1    2    0    0  0.31247024977E-02  0.27093151434E-01  0.20775929065E-01  0.34284717424E-01  0.00000000000E+00 0.  1.
     999901    1    3    3    0    0  0.74058410920E-01 -0.53098583386E-02 -0.10789718453E+00  0.88969356818E+00  0.88000000000E+00 0. -1.
        -11    1    4    4    0    0 -0.55381597816E-01 -0.17491945263E-01  0.49769926316E-01  0.76487882780E-01  0.51100000000E-03 0. -1.
         11    1    4    4    0    0 -0.21801515601E-01 -0.42913478322E-02  0.37351329151E-01  0.43463831620E-01  0.51100000000E-03 0.  1.
</event>
<event>
 8    1  0.1122465E+005  0.1043930E+01  0.7957747E-01            NaN
         13   -1    0    0    0    0  0.00000000000E+00  0.00000000000E+00  0.74505805969E-08  0.10566000000E+00  0.10566000000E+00 0. -1.
     999900   -1    0    0    0    0 -0.00000000000E+00 -0.00000000000E+00 -0.74505805969E-08  0.93827000000E+00  0.93827000000E+00 0. -1.
     999902    2    1    2    0    0  0.20491666072E-01  0.10963341929E-01 -0.13914740455E-02  0.10206482594E+01  0.10203826880E+01 0.  0.
     999903    2    3    3    0    0  0.76400393380E-01  0.62747284718E-01 -0.86630131041E-01  0.13325150983E+00  0.21839034338E-01 0.  0.
         14    1    1    2    0    0 -0.20491666072E-01 -0.10963341929E-01  0.13914740455E-02  0.23281740585E-01  0.00000000000E+00 0.  1.
     999901    1    3    3    0    0 -0.55908727307E-01 -0.51783942789E-01  0.85238656995E-01  0.88739674958E+00  0.88000000000E+00 0.  1.
        -11    1    4    4    0    0  0.60364689864E-01  0.54980348998E-01 -0.60510615860E-01  0.10162937721E+00  0.51100000000E-03 0.  1.
         11    1    4    4    0    0  0.16035703515E-01  0.77669357204E-02 -0.26119515181E-01  0.31622132629E-01  0.51100000000E-03 0. -1.
</event>
<event>
 8    1  0.1122465E+005  0.1043930E+01  0.7957747E-01            NaN
         13   -1    0    0    0    0  0.00000000000E+00  0.00000000000E+00  0.74505805969E-08  0.10566000000E+00  0.10566000000E+00 0. -1.
     999900   -1    0    0    0    0 -0.00000000000E+00 -0.00000000000E+00 -0.74505805969E-08  0.93827000000E+00  0.93827000000E+00 0. -1.
     999902    2    1    2    0    0 -0.10934539704E-01 -0.82134162391E-02  0.23730155845E-01  0.10165412311E+01  0.10161721950E+01 0.  0.
     999903    2    3    3    0    0  0.48039995578E-01  0.91723312991E-01 -0.66095050501E-01  0.12438994722E+00  0.19577945403E-01 0.  0.
         14    1    1    2    0    0  0.10934539704E-01  0.82134162391E-02 -0.23730155845E-01  0.27388768890E-01  0.00000000000E+00 0.  1.
     999901    1    3    3    0    0 -0.58974535282E-01 -0.99936729231E-01  0.89825206346E-01  0.89215128390E+00  0.88000000000E+00 0.  1.
        -11    1    4    4    0    0  0.42137637134E-01  0.63181838682E-01 -0.51752158472E-01  0.91902514818E-01  0.51100000000E-03 0.  1.
         11    1    4    4    0    0  0.59023584437E-02  0.28541474310E-01 -0.14342892029E-01  0.32487432397E-01  0.51100000000E-03 0. -1.
</event>
<event>
 8    1  0.1122465E+005  0.1043930E+01  0.7957747E-01            NaN
         13   -1    0    0    0    0  0.00000000000E+00  0.00000000000E+00  0.74505805969E-08  0.10566000000E+00  0.10566000000E+00 0. -1.
     999900   -1    0    0    0    0 -0.00000000000E+00 -0.00000000000E+00 -0.74505805969E-08  0.93827000000E+00  0.93827000000E+00 0.  1.
     999902    2    1    2    0    0 -0.76375073964E-03  0.15933015317E-01 -0.18319822928E-01  0.10196388451E+01  0.10193494564E+01 0.  0.
     999903    2    3    3    0    0  0.10834776639E+00  0.41672506553E-01 -0.52182845568E-01  0.13188068614E+00  0.34548946730E-01 0.  0.
         14    1    1    2    0    0  0.76375073964E-03 -0.15933015317E-01  0.18319822928E-01  0.24291154859E-01  0.00000000000E+00 0. -1.
     999901    1    3    3    0    0 -0.10911151713E+00 -0.25739491236E-01  0.33863022640E-01  0.88775815901E+00  0.88000000000E+00 0. -1.
        -11    1    4    4    0    0  0.81679973355E-02  0.10165690938E-01 -0.16343933145E-01  0.20915131469E-01  0.51100000000E-03 0.  1.
         11    1    4    4    0    0  0.10017976905E+00  0.31506815615E-01 -0.35838912422E-01  0.11096555467E+00  0.51100000000E-03 0. -1.
</event>
<event>
 8    1  0.1122465E+005  0.1043930E+01  0.7957747E-01            NaN
         13   -1    0    0    0    0  0.00000000000E+00  0.00000000000E+00  0.74505805969E-08  0.10566000000E+00  0.10566000000E+00 0. -1.
     999900   -1    0    0    0    0 -0.00000000000E+00 -0.00000000000E+00 -0.74505805969E-08  0.93827000000E+00  0.93827000000E+00 0.  1.
     999902    2    1    2    0    0  0.13939318624E-02 -0.15806033502E-01  0.17321951996E-01  0.10204390706E+01  0.10201686494E+01 0.  0.
     999903    2    3    3    0    0  0.96113677846E-01 -0.82551822824E-01  0.34022676941E-01  0.13268587021E+00  0.19883538056E-01 0.  0.
         14    1    1    2    0    0 -0.13939318624E-02  0.15806033502E-01 -0.17321951996E-01  0.23490929357E-01  0.00000000000E+00 0.  1.
     999901    1    3    3    0    0 -0.94719745984E-01  0.66745789322E-01 -0.16700724944E-01  0.88775320044E+00  0.88000000000E+00 0.  1.
        -11    1    4    4    0    0  0.56406348974E-01 -0.59914258273E-01  0.17887134051E-01  0.84211669231E-01  0.51100000000E-03 0.  1.
         11    1    4    4    0    0  0.39707328872E-01 -0.22637564551E-01  0.16135542889E-01  0.48474200976E-01  0.51100000000E-03 0. -1.
</event>
<event>
 8    1  0.1122465E+005  0.1043930E+01  0.7957747E-01            NaN
         13   -1    0    0    0    0  0.00000000000E+00  0.00000000000E+00  0.74505805969E-08  0.10566000000E+00  0.10566000000E+00 0. -1.
     999900   -1    0    0    0    0 -0.00000000000E+00 -0.00000000000E+00 -0.74505805969E-08  0.93827000000E+00  0.93827000000E+00 0. -1.
     999902    2    1    2    0    0 -0.13264808231E-01  0.33984949840E-02  0.18267783389E-01  0.10210998266E+01  0.10208445715E+01 0.  0.
     999903    2    3    3    0    0  0.15938278373E-01  0.92050570037E-01  0.92449033758E-01  0.13305992406E+00  0.20755321870E-01 0.  0.
         14    1    1    2    0    0  0.13264808231E-01 -0.33984949840E-02 -0.18267783389E-01  0.22830173357E-01  0.00000000000E+00 0.  1.
     999901    1    3    3    0    0 -0.29203086604E-01 -0.88652075053E-01 -0.74181250369E-01  0.88803990259E+00  0.88000000000E+00 0. -1.
        -11    1    4    4    0    0  0.19350606223E-01  0.60542406768E-01  0.55537710445E-01  0.84406915480E-01  0.51100000000E-03 0. -1.
         11    1    4    4    0    0 -0.34123278494E-02  0.31508163269E-01  0.36911323313E-01  0.48653008577E-01  0.51100000000E-03 0.  1.
</event>
<event>
 8    1  0.1122465E+005  0.1043930E+01  0.7957747E-01            NaN
         13   -1    0    0    0    0  0.00000000000E+00  0.00000000000E+00  0.74505805969E-08  0.10566000000E+00  0.10566000000E+00 0.  1.
     999900   -1    0    0    0    0 -0.00000000000E+00 -0.00000000000E+00 -0.74505805969E-08  0.93827000000E+00  0.93827000000E+00 0.  1.
     999902    2    1    2    0    0 -0.18185789229E-01 -0.14922627223E-01 -0.45727405972E-02  0.10199650738E+01  0.10196834970E+01 0.  0.
     999903    2    3    3    0    0  0.28073578114E-01 -0.88933141256E-01 -0.90300273509E-01  0.13150196527E+00  0.21009475753E-01 0.  0.
         14    1    1    2    0    0  0.18185789229E-01  0.14922627223E-01  0.45727405972E-02  0.23964926240E-01  0.00000000000E+00 0.  1.
     999901    1    3    3    0    0 -0.46259367343E-01  0.74010514033E-01  0.85727532911E-01  0.88846310849E+00  0.88000000000E+00 0. -1.
        -11    1    4    4    0    0  0.77573122976E-02 -0.43307730116E-01 -0.54527343453E-01  0.70065881047E-01  0.51100000000E-03 0. -1.
         11    1    4    4    0    0  0.20316265816E-01 -0.45625411140E-01 -0.35772930055E-01  0.61436084219E-01  0.51100000000E-03 0.  1.
</event>
<event>
 8    1  0.1122465E+005  0.1043930E+01  0.7957747E-01            NaN
         13   -1    0    0    0    0  0.00000000000E+00  0.00000000000E+00  0.74505805969E-08  0.10566000000E+00  0.10566000000E+00 0. -1.
     999900   -1    0    0    0    0 -0.00000000000E+00 -0.00000000000E+00 -0.74505805969E-08  0.93827000000E+00  0.93827000000E+00 0.  1.
     999902    2    1    2    0    0 -0.19058473897E-01  0.19063848584E-02 -0.11684776440E-01  0.10214935624E+01  0.10212471319E+01 0.  0.
     999903    2    3    3    0    0  0.12332143728E+00 -0.16702490229E-01  0.26571415534E-01  0.12903523535E+00  0.21375260647E-01 0.  0.
         14    1    1    2    0    0  0.19058473897E-01 -0.19063848584E-02  0.11684776440E-01  0.22436437573E-01  0.00000000000E+00 0. -1.
     999901    1    3    3    0    0 -0.14237991117E+00  0.18608875087E-01 -0.38256191974E-01  0.89245832707E+00  0.88000000000E+00 0.  1.
        -11    1    4    4    0    0  0.47953817162E-01 -0.10786503749E-01  0.20276287681E-01  0.53172419605E-01  0.51100000000E-03 0. -1.
         11    1    4    4    0    0  0.75367620114E-01 -0.59159864800E-02  0.62951278535E-02  0.75862815749E-01  0.51100000000E-03 0.  1.
</event>
<event>
 8    1  0.1122465E+005  0.1043930E+01  0.7957747E-01            NaN
         13   -1    0    0    0    0  0.00000000000E+00  0.00000000000E+00  0.74505805969E-08  0.10566000000E+00  0.10566000000E+00 0. -1.
     999900   -1    0    0    0    0 -0.00000000000E+00 -0.00000000000E+00 -0.74505805969E-08  0.93827000000E+00  0.93827000000E+00 0.  1.
     999902    2    1    2    0    0  0.93463343754E-02 -0.11687920497E-01  0.18552211558E-01  0.10200941865E+01  0.10198156712E+01 0.  0.
     999903    2    3    3    0    0 -0.11599328820E+00  0.18785275467E-01  0.52109798936E-01  0.13005781177E+00  0.19805902578E-01 0.  0.
         14    1    1    2    0    0 -0.93463343754E-02  0.11687920497E-01 -0.18552211558E-01  0.23835813506E-01  0.00000000000E+00 0.  1.
     999901    1    3    3    0    0  0.12533962257E+00 -0.30473195964E-01 -0.33557587379E-01  0.89003637472E+00  0.88000000000E+00 0.  1.
        -11    1    4    4    0    0 -0.59426236318E-01  0.58615401057E-02  0.16417307442E-01  0.61932417359E-01  0.51100000000E-03 0. -1.
         11    1    4    4    0    0 -0.56567051878E-01  0.12923735362E-01  0.35692491494E-01  0.68125394413E-01  0.51100000000E-03 0.  1.
</event>
<event>
 8    1  0.1122465E+005  0.1043930E+01  0.7957747E-01            NaN
         13   -1    0    0    0    0  0.00000000000E+00  0.00000000000E+00  0.74505805969E-08  0.10566000000E+00  0.10566000000E+00 0. -1.
     999900   -1    0    0    0    0 -0.00000000000E+00 -0.00000000000E+00 -0.74505805969E-08  0.93827000000E+00  0.93827000000E+00 0. -1.
     999902    2    1    2    0    0  0.18366975543E-01 -0.46181711166E-02 -0.14096102266E-01  0.10203212433E+01  0.10200480705E+01 0.  0.
     999903    2    3    3    0    0  0.54014874376E-01 -0.55945241897E-01 -0.10648794569E+00  0.13328037972E+00  0.19403615521E-01 0.  0.
         14    1    1    2    0    0 -0.18366975543E-01  0.46181711166E-02  0.14096102266E-01  0.23608756726E-01  0.00000000000E+00 0. -1.
     999901    1    3    3    0    0 -0.35647898833E-01  0.51327070780E-01  0.92391843426E-01  0.88704086356E+00  0.88000000000E+00 0.  1.
        -11    1    4    4    0    0  0.45818835773E-01 -0.36702748618E-01 -0.84863618759E-01  0.10319182321E+00  0.51100000000E-03 0. -1.
         11    1    4    4    0    0  0.81960386028E-02 -0.19242493279E-01 -0.21624326933E-01  0.30088556507E-01  0.51100000000E-03 0.  1.
</event>
<event>
 8    1  0.1122465E+005  0.1043930E+01  0.7957747E-01            NaN
         13   -1    0    0    0    0  0.00000000000E+00  0.00000000000E+00  0.74505805969E-08  0.10566000000E+00  0.10566000000E+00 0. -1.
     999900   -1    0    0    0    0 -0.00000000000E+00 -0.00000000000E+00 -0.74505805969E-08  0.93827000000E+00  0.93827000000E+00 0.  1.
     999902    2    1    2    0    0 -0.16387328304E-01 -0.10255161686E-01  0.13972243896E-01  0.10200776108E+01  0.10197987035E+01 0.  0.
     999903    2    3    3    0    0 -0.12568747349E+00 -0.45505499020E-02  0.38847325844E-01  0.13294862694E+00  0.18659426147E-01 0.  0.
         14    1    1    2    0    0  0.16387328304E-01  0.10255161686E-01 -0.13972243896E-01  0.23852389181E-01  0.00000000000E+00 0.  1.
     999901    1    3    3    0    0  0.10930014518E+00 -0.57046117843E-02 -0.24875081949E-01  0.88712898388E+00  0.88000000000E+00 0.  1.
        -11    1    4    4    0    0 -0.10590727022E+00 -0.63189456912E-02  0.25823254239E-01  0.10919423309E+00  0.51100000000E-03 0. -1.
         11    1    4    4    0    0 -0.19780203273E-01  0.17683957893E-02  0.13024071606E-01  0.23754393854E-01  0.51100000000E-03 0.  1.
</event>
<event>
 8    1  0.1122465E+005  0.1043930E+01  0.7957747E-01            NaN
         13   -1    0    0    0    0  0.00000000000E+00  0.00000000000E+00  0.74505805969E-08  0.10566000000E+00  0.10566000000E+00 0.  1.
     999900   -1    0    0    0    0 -0.00000000000E+00 -0.00000000000E+00 -0.74505805969E-08  0.93827000000E+00  0.93827000000E+00 0.  1.
     999902    2    1    2    0    0 -0.15010203803E-02  0.18795993772E-01 -0.14790085656E-01  0.10199656707E+01  0.10196841081E+01 0.  0.
     999903    2    3    3    0    0  0.10507683704E+00 -0.67929560531E-01  0.21505919516E-01  0.12856365061E+00  0.20261806656E-01 0.  0.
         14    1    1    2    0    0  0.15010203803E-02 -0.18795993772E-01  0.14790085656E-01  0.23964329278E-01  0.00000000000E+00 0.  1.
     999901    1    3    3    0    0 -0.10657785742E+00  0.86725554303E-01 -0.36296005172E-01  0.89140202011E+00  0.88000000000E+00 0. -1.
        -11    1    4    4    0    0  0.70233663073E-02 -0.40625698567E-02 -0.35826682708E-02  0.88841871359E-02  0.51100000000E-03 0.  1.
         11    1    4    4    0    0  0.98053470731E-01 -0.63866990674E-01  0.25088587787E-01  0.11967946348E+00  0.51100000000E-03 0. -1.
</event>
<event>
 8    1  0.1122465E+005  0.1043930E+01  0.7957747E-01            NaN
         13   -1    0    0    0    0  0.00000000000E+00  0.00000000000E+00  0.74505805969E-08  0.10566000000E+00  0.10566000000E+00 0.  1.
     999900   -1    0    0    0    0 -0.00000000000E+00 -0.00000000000E+00 -0.74505805969E-08  0.93827000000E+00  0.93827000000E+00 0. -1.
     999902    2    1    2    0    0  0.41308586011E-03 -0.11123337922E-01 -0.20594549250E-01  0.10205198581E+01  0.10202513151E+01 0.  0.
     999903    2    3    3    0    0 -0.84500757576E-01  0.95953824780E-01  0.49359922802E-02  0.12960589582E+00  0.20635156663E-01 0.  0.
         14    1    1    2    0    0 -0.41308586011E-03  0.11123337922E-01  0.20594549250E-01  0.23410141932E-01  0.00000000000E+00 0.  1.
     999901    1    3    3    0    0  0.84913843436E-01 -0.10707716270E+00 -0.25530541531E-01  0.89091396225E+00  0.88000000000E+00 0. -1.
        -11    1    4    4    0    0 -0.66174437208E-01  0.84506460338E-01  0.86217968867E-02  0.10768005610E+00  0.51100000000E-03 0. -1.
         11    1    4    4    0    0 -0.18326320367E-01  0.11447364441E-01 -0.36858046065E-02  0.21925839720E-01  0.51100000000E-03 0.  1.
</event>
<event>
 7    1  0.1122465E+005  0.1043930E+01  0.7957747E-01            NaN
         13   -1    0    0    0    0  0.00000000000E+00  0.00000000000E+00  0.74505805969E-08  0.10566000000E+00  0.10566000000E+00 0. -1.
     999900   -1    0    0    0    0 -0.00000000000E+00 -0.00000000000E+00 -0.74505805969E-08  0.93827000000E+00  0.93827000000E+00 0. -1.
     999903    2    1    2    0    0 -0.60158396370E-01 -0.21922896284E-01  0.81116609856E-01  0.10526504528E+00  0.20029461511E-01 0.  0.
         14    1    1    2    0    0 -0.17204828468E-02 -0.50021069808E-01 -0.46744399054E-02  0.50268458047E-01  0.00000000000E+00 0.  1.
     999901    1    1    2    0    0  0.61878879217E-01  0.71943966092E-01 -0.76442169951E-01  0.88839649667E+00  0.88000000000E+00 0. -1.
        -11    1    3    3    0    0 -0.28707163846E-01 -0.16111974502E-02  0.26913392706E-01  0.39386406808E-01  0.51100000000E-03 0. -1.
         11    1    3    3    0    0 -0.31451232525E-01 -0.20311698834E-01  0.54203217151E-01  0.65878638475E-01  0.51100000000E-03 0.  1.
</event>
<event>
 8    1  0.1122465E+005  0.1043930E+01  0.7957747E-01            NaN
         13   -1    0    0    0    0  0.00000000000E+00  0.00000000000E+00  0.74505805969E-08  0.10566000000E+00  0.10566000000E+00 0.  1.
     999900   -1    0    0    0    0 -0.00000000000E+00 -0.00000000000E+00 -0.74505805969E-08  0.93827000000E+00  0.93827000000E+00 0. -1.
     999902    2    1    2    0    0  0.23532113719E-02  0.25120119069E-01 -0.10996225372E-01  0.10164077370E+01  0.10160350451E+01 0.  0.
     999903    2    3    3    0    0 -0.70154020043E-01  0.10633334324E+00 -0.13916052644E-01  0.12969390960E+00  0.19962145507E-01 0.  0.
         14    1    1    2    0    0 -0.23532113719E-02 -0.25120119069E-01  0.10996225372E-01  0.27522262956E-01  0.00000000000E+00 0.  1.
     999901    1    3    3    0    0  0.72507231415E-01 -0.81213224172E-01  0.29198272722E-02  0.88671382744E+00  0.88000000000E+00 0.  1.
        -11    1    4    4    0    0 -0.47541502170E-01  0.55959354805E-01 -0.35861389795E-02  0.73517109114E-01  0.51100000000E-03 0. -1.
         11    1    4    4    0    0 -0.22612517873E-01  0.50373988436E-01 -0.10329913665E-01  0.56176800486E-01  0.51100000000E-03 0.  1.
</event>
<event>
 8    1  0.1122465E+005  0.1043930E+01  0.7957747E-01            NaN
         13   -1    0    0    0    0  0.00000000000E+00  0.00000000000E+00  0.74505805969E-08  0.10566000000E+00  0.10566000000E+00 0.  1.
     999900   -1    0    0    0    0 -0.00000000000E+00 -0.00000000000E+00 -0.74505805969E-08  0.93827000000E+00  0.93827000000E+00 0.  1.
     999902    2    1    2    0    0  0.58711107710E-02 -0.29960670613E-01 -0.21930618894E-01  0.10063392595E+01  0.10056369332E+01 0.  0.
     999903    2    3    3    0    0  0.58606784927E-01 -0.78101602036E-01 -0.70589468332E-01  0.12210722875E+00  0.19816326411E-01 0.  0.
         14    1    1    2    0    0 -0.58711107710E-02  0.29960670613E-01  0.21930618894E-01  0.37590740487E-01  0.00000000000E+00 0.  1.
     999901    1    3    3    0    0 -0.52735674156E-01  0.48140931423E-01  0.48658849438E-01  0.88423203077E+00  0.88000000000E+00 0. -1.
        -11    1    4    4    0    0  0.45240069819E-01 -0.44549075516E-01 -0.43791910223E-01  0.77131553650E-01  0.51100000000E-03 0. -1.
         11    1    4    4    0    0  0.13366715108E-01 -0.33552526520E-01 -0.26797558109E-01  0.44975675095E-01  0.51100000000E-03 0.  1.
</event>
<event>
 8    1  0.1122465E+005  0.1043930E+01  0.7957747E-01            NaN
         13   -1    0    0    0    0  0.00000000000E+00  0.00000000000E+00  0.74505805969E-08  0.10566000000E+00  0.10566000000E+00 0. -1.
     999900   -1    0    0    0    0 -0.00000000000E+00 -0.00000000000E+00 -0.74505805969E-08  0.93827000000E+00  0.93827000000E+00 0. -1.
     999902    2    1    2    0    0 -0.17493143906E-02 -0.23190798371E-01  0.34462130514E-02  0.10204193723E+01  0.10201484920E+01 0.  0.
     999903    2    3    3    0    0 -0.36407286313E-01 -0.11382346261E+00 -0.55141405637E-01  0.13314942246E+00  0.20172331252E-01 0.  0.
         14    1    1    2    0    0  0.17493143906E-02  0.23190798371E-01 -0.34462130514E-02  0.23510627689E-01  0.00000000000E+00 0.  1.
     999901    1    3    3    0    0  0.34657971922E-01  0.90632664241E-01  0.58587618689E-01  0.88726994985E+00  0.88000000000E+00 0.  1.
        -11    1    4    4    0    0 -0.35160930598E-01 -0.81260520824E-01 -0.38414999829E-01  0.96517027607E-01  0.51100000000E-03 0. -1.
         11    1    4    4    0    0 -0.12463557146E-02 -0.32562941788E-01 -0.16726405808E-01  0.36632394853E-01  0.51100000000E-03 0.  1.
</event>
<event>
 8    1  0.1122465E+005  0.1043930E+01  0.7957747E-01            NaN
         13   -1    0    0    0    0  0.00000000000E+00  0.00000000000E+00  0.74505805969E-08  0.10566000000E+00  0.10566000000E+00 0. -1.
     999900   -1    0    0    0    0 -0.00000000000E+00 -0.00000000000E+00 -0.74505805969E-08  0.93827000000E+00  0.93827000000E+00 0.  1.
     999902    2    1    2    0    0 -0.50058316058E-02  0.11988033801E-01 -0.20528998458E-01  0.10196357397E+01  0.10193462761E+01 0.  0.
     999903    2    3    3    0    0  0.11500894055E+00  0.53021764278E-01  0.19302971790E-01  0.12965040365E+00  0.19956416367E-01 0.  0.
         14    1    1    2    0    0  0.50058316058E-02 -0.11988033801E-01  0.20528998458E-01  0.24294260272E-01  0.00000000000E+00 0. -1.
     999901    1    3    3    0    0 -0.12001477216E+00 -0.41033730477E-01 -0.39831970249E-01  0.88998533607E+00  0.88000000000E+00 0.  1.
        -11    1    4    4    0    0  0.61570104130E-01  0.27642181571E-01  0.20303949190E-01  0.70480347604E-01  0.51100000000E-03 0. -1.
         11    1    4    4    0    0  0.53438836420E-01  0.25379582707E-01 -0.10009773999E-02  0.59170056051E-01  0.51100000000E-03 0.  1.
</event>
<event>
 8    1  0.1122465E+005  0.1043930E+01  0.7957747E-01            NaN
         13   -1    0    0    0    0  0.00000000000E+00  0.00000000000E+00  0.74505805969E-08  0.10566000000E+00  0.10566000000E+00 0.  1.
     999900   -1    0    0    0    0 -0.00000000000E+00 -0.00000000000E+00 -0.74505805969E-08  0.93827000000E+00  0.93827000000E+00 0.  1.
     999902    2    1    2    0    0  0.13781803891E-01  0.27326514113E-01 -0.11693745843E-01  0.10111669082E+01  0.10106359859E+01 0.  0.
     999903    2    3    3    0    0  0.97345125660E-01  0.31647307104E-01  0.66551628239E-01  0.12374151046E+00  0.20129993874E-01 0.  0.
         14    1    1    2    0    0 -0.13781803891E-01 -0.27326514113E-01  0.11693745843E-01  0.32763091793E-01  0.00000000000E+00 0.  1.
     999901    1    3    3    0    0 -0.83563321770E-01 -0.43207929910E-02 -0.78245374082E-01  0.88742539774E+00  0.88000000000E+00 0.  1.
        -11    1    4    4    0    0  0.26192942254E-01  0.12572921559E-01  0.95195132433E-02  0.30578273886E-01  0.51100000000E-03 0.  1.
         11    1    4    4    0    0  0.71152183406E-01  0.19074385544E-01  0.57032114996E-01  0.93163236576E-01  0.51100000000E-03 0. -1.
</event>
<event>
 8    1  0.1122465E+005  0.1043930E+01  0.7957747E-01            NaN
         13   -1    0    0    0    0  0.00000000000E+00  0.00000000000E+00  0.74505805969E-08  0.10566000000E+00  0.10566000000E+00 0. -1.
     999900   -1    0    0    0    0 -0.00000000000E+00 -0.00000000000E+00 -0.74505805969E-08  0.93827000000E+00  0.93827000000E+00 0. -1.
     999902    2    1    2    0    0  0.16270708588E-01 -0.17978526979E-01  0.35752503557E-02  0.10194198836E+01  0.10191251902E+01 0.  0.
     999903    2    3    3    0    0  0.10578197366E+00  0.42643542395E-01  0.61169742626E-01  0.13093554081E+00  0.19851467800E-01 0.  0.
         14    1    1    2    0    0 -0.16270708588E-01  0.17978526979E-01 -0.35752503557E-02  0.24510116389E-01  0.00000000000E+00 0. -1.
     999901    1    3    3    0    0 -0.89511265071E-01 -0.60622069374E-01 -0.57594492270E-01  0.88848434281E+00  0.88000000000E+00 0. -1.
        -11    1    4    4    0    0  0.44109188349E-01  0.75140903612E-02  0.21917350409E-01  0.49826834344E-01  0.51100000000E-03 0. -1.
         11    1    4    4    0    0  0.61672785311E-01  0.35129452034E-01  0.39252392217E-01  0.81108706462E-01  0.51100000000E-03 0.  1.
</event>
<event>
 8    1  0.1122465E+005  0.1043930E+01  0.7957747E-01            NaN
         13   -1    0    0    0    0  0.00000000000E+00  0.00000000000E+00  0.74505805969E-08  0.10566000000E+00  0.10566000000E+00 0.  1.
     999900   -1    0    0    0    0 -0.00000000000E+00 -0.00000000000E+00 -0.74505805969E-08  0.93827000000E+00  0.93827000000E+00 0. -1.
     999902    2    1    2    0    0 -0.75355088260E-02 -0.19883123000E-01 -0.11553597910E-01  0.10197306591E+01  0.10194434801E+01 0.  0.
     999903    2    3    3    0    0 -0.80120551029E-01  0.98777827280E-01 -0.24051810793E-03  0.12873290648E+00  0.19893252663E-01 0.  0.
         14    1    1    2    0    0  0.75355088260E-02  0.19883123000E-01  0.11553597910E-01  0.24199340862E-01  0.00000000000E+00 0.  1.
     999901    1    3    3    0    0  0.72585042203E-01 -0.11866095028E+00 -0.11313079802E-01  0.89099775266E+00  0.88000000000E+00 0. -1.
        -11    1    4    4    0    0 -0.66726576126E-01  0.69100032332E-01  0.21186559508E-02  0.96083298517E-01  0.51100000000E-03 0. -1.
         11    1    4    4    0    0 -0.13393974903E-01  0.29677794948E-01 -0.23591740587E-02  0.32649607960E-01  0.51100000000E-03 0.  1.
</event>
<event>
 8    1  0.1122465E+005  0.1043930E+01  0.7957747E-01            NaN
         13   -1    0    0    0    0  0.00000000000E+00  0.00000000000E+00  0.74505805969E-08  0.10566000000E+00  0.10566000000E+00 0.  1.
     999900   -1    0    0    0    0 -0.00000000000E+00 -0.00000000000E+00 -0.74505805969E-08  0.93827000000E+00  0.93827000000E+00 0.  1.
     999902    2    1    2    0    0  0.16821114276E-01  0.17683194218E-01 -0.24320000938E-02  0.10194032826E+01  0.10191081850E+01 0.  0.
     999903    2    3    3    0    0  0.14725804945E-01  0.97746543805E-01 -0.85422310255E-01  0.13187755233E+00  0.17985593167E-01 0.  0.
         14    1    1    2    0    0 -0.16821114276E-01 -0.17683194218E-01  0.24320000938E-02  0.24526717426E-01  0.00000000000E+00 0.  1.
     999901    1    3    3    0    0  0.20953093311E-02 -0.80063349587E-01  0.82990310161E-01  0.88752573025E+00  0.88000000000E+00 0. -1.
        -11    1    4    4    0    0  0.13152885207E-01  0.89041037898E-01 -0.69740333675E-01  0.11386518380E+00  0.51100000000E-03 0. -1.
         11    1    4    4    0    0  0.15729197386E-02  0.87055059070E-02 -0.15681976580E-01  0.18012368530E-01  0.51100000000E-03 0.  1.
</event>
<event>
 8    1  0.1122465E+005  0.1043930E+01  0.7957747E-01            NaN
         13   -1    0    0    0    0  0.00000000000E+00  0.00000000000E+00  0.74505805969E-08  0.10566000000E+00  0.10566000000E+00 0.  1.
     999900   -1    0    0    0    0 -0.00000000000E+00 -0.00000000000E+00 -0.74505805969E-08  0.93827000000E+00  0.93827000000E+00 0.  1.
     999902    2    1    2    0    0 -0.23339375821E-03  0.22531204236E-01 -0.79066160235E-02  0.10200506320E+01  0.10197710859E+01 0.  0.
     999903    2    3    3    0    0 -0.53946522607E-01  0.54127445577E-01 -0.10622419463E+00  0.13238528466E+00  0.20056829359E-01 0.  0.
         14    1    1    2    0    0  0.23339375821E-03 -0.22531204236E-01  0.79066160235E-02  0.23879367955E-01  0.00000000000E+00 0. -1.
     999901    1    3    3    0    0  0.53713128848E-01 -0.31596241341E-01  0.98317578610E-01  0.88766534738E+00  0.88000000000E+00 0. -1.
        -11    1    4    4    0    0 -0.18535318948E-01  0.16745324610E-01 -0.20209862153E-01  0.32135083539E-01  0.51100000000E-03 0.  1.
         11    1    4    4    0    0 -0.35411203659E-01  0.37382120967E-01 -0.86014332481E-01  0.10025020113E+00  0.51100000000E-03 0. -1.
</event>
<event>
 8    1  0.1122465E+005  0.1043930E+01  0.7957747E-01            NaN
         13   -1    0    0    0    0  0.00000000000E+00  0.00000000000E+00  0.74505805969E-08  0.10566000000E+00  0.10566000000E+00 0.  1.
     999900   -1    0    0    0    0 -0.00000000000E+00 -0.00000000000E+00 -0.74505805969E-08  0.93827000000E+00  0.93827000000E+00 0. -1.
     999902    2    1    2    0    0 -0.79813836433E-03 -0.23262387191E-01  0.42314577747E-02  0.10202724237E+01  0.10199981067E+01 0.  0.
     999903    2    3    3    0    0  0.11168460462E+00 -0.16562973847E-01  0.63763183631E-01  0.13109230919E+00  0.19278665168E-01 0.  0.
         14    1    1    2    0    0  0.79813836433E-03  0.23262387191E-01 -0.42314577747E-02  0.23657576325E-01  0.00000000000E+00 0. -1.
     999901    1    3    3    0    0 -0.11248274298E+00 -0.66994133441E-02 -0.59531725857E-01  0.88918011448E+00  0.88000000000E+00 0. -1.
        -11    1    4    4    0    0  0.45417315970E-01 -0.10384738471E-01  0.16362801363E-01  0.49381957966E-01  0.51100000000E-03 0.  1.
         11    1    4    4    0    0  0.66267288650E-01 -0.61782353757E-02  0.47400382268E-01  0.81710351227E-01  0.51100000000E-03 0. -1.
</event>
<event>
 8    1  0.1122465E+005  0.1043930E+01  0.7957747E-01            NaN
         13   -1    0    0    0    0  0.00000000000E+00  0.00000000000E+00  0.74505805969E-08  0.10566000000E+00  0.10566000000E+00 0. -1.
     999900   -1    0    0    0    0 -0.00000000000E+00 -0.00000000000E+00 -0.74505805969E-08  0.93827000000E+00  0.93827000000E+00 0. -1.
     999902    2    1    2    0    0 -0.10679171941E-01  0.87014287960E-03  0.20208837447E-01  0.10210564569E+01  0.10208002200E+01 0.  0.
     999903    2    3    3    0    0 -0.84603856705E-01  0.46214456539E-01 -0.85490919513E-01  0.13049853942E+00  0.20678078003E-01 0.  0.
         14    1    1    2    0    0  0.10679171941E-01 -0.87014287960E-03 -0.20208837447E-01  0.22873543078E-01  0.00000000000E+00 0.  1.
     999901    1    3    3    0    0  0.73924684764E-01 -0.45344313660E-01  0.10569975696E+00  0.89055791750E+00  0.88000000000E+00 0.  1.
        -11    1    4    4    0    0 -0.19442263144E-01  0.21612360145E-02 -0.12703568017E-01  0.23330544328E-01  0.51100000000E-03 0.  1.
         11    1    4    4    0    0 -0.65161593561E-01  0.44053220525E-01 -0.72787351496E-01  0.10716799510E+00  0.51100000000E-03 0. -1.
</event>
<event>
 8    1  0.1122465E+005  0.1043930E+01  0.7957747E-01            NaN
         13   -1    0    0    0    0  0.00000000000E+00  0.00000000000E+00  0.74505805969E-08  0.10566000000E+00  0.10566000000E+00 0.  1.
     999900   -1    0    0    0    0 -0.00000000000E+00 -0.00000000000E+00 -0.74505805969E-08  0.93827000000E+00  0.93827000000E+00 0. -1.
     999902    2    1    2    0    0  0.23001740247E-01 -0.18713832446E-02  0.56571175695E-02  0.10201690003E+01  0.10198922512E+01 0.  0.
     999903    2    3    3    0    0  0.51035673126E-01  0.10621239966E+00  0.54768537485E-01  0.13175471790E+00  0.21771523131E-01 0.  0.
         14    1    1    2    0    0 -0.23001740247E-01  0.18713832446E-02 -0.56571175695E-02  0.23760999744E-01  0.00000000000E+00 0.  1.
     999901    1    3    3    0    0 -0.28033932879E-01 -0.10808378290E+00 -0.49111419915E-01  0.88841428235E+00  0.88000000000E+00 0. -1.
        -11    1    4    4    0    0  0.76429484859E-02  0.52441896602E-02  0.82376350286E-02  0.12411121570E-01  0.51100000000E-03 0. -1.
         11    1    4    4    0    0  0.43392724640E-01  0.10096821000E+00  0.46530902456E-01  0.11934359634E+00  0.51100000000E-03 0.  1.
</event>
<event>
 8    1  0.1122465E+005  0.1043930E+01  0.7957747E-01            NaN
         13   -1    0    0    0    0  0.00000000000E+00  0.00000000000E+00  0.74505805969E-08  0.10566000000E+00  0.10566000000E+00 0.  1.
     999900   -1    0    0    0    0 -0.00000000000E+00 -0.00000000000E+00 -0.74505805969E-08  0.93827000000E+00  0.93827000000E+00 0.  1.
     999902    2    1    2    0    0 -0.48157414393E-02 -0.12749034729E-01  0.19615590826E-01  0.10200448445E+01  0.10197651612E+01 0.  0.
     999903    2    3    3    0    0 -0.70402704336E-01 -0.12936795319E-01  0.11028943615E+00  0.13295779620E+00  0.19751313688E-01 0.  0.
         14    1    1    2    0    0  0.48157414393E-02  0.12749034729E-01 -0.19615590826E-01  0.23885155549E-01  0.00000000000E+00 0. -1.
     999901    1    3    3    0    0  0.65586962897E-01  0.18776059020E-03 -0.90673845322E-01  0.88708704825E+00  0.88000000000E+00 0.  1.
        -11    1    4    4    0    0 -0.18980981581E-01  0.42725537888E-02  0.22283031994E-01  0.29585925936E-01  0.51100000000E-03 0. -1.
         11    1    4    4    0    0 -0.51421722755E-01 -0.17209349108E-01  0.88006404154E-01  0.10337187026E+00  0.51100000000E-03 0.  1.
</event>
<event>
 8    1  0.1122465E+005  0.1043930E+01  0.7957747E-01            NaN
         13   -1    0    0    0    0  0.00000000000E+00  0.00000000000E+00  0.74505805969E-08  0.10566000000E+00  0.10566000000E+00 0.  1.
     999900   -1    0    0    0    0 -0.00000000000E+00 -0.00000000000E+00 -0.74505805969E-08  0.93827000000E+00  0.93827000000E+00 0. -1.
     999902    2    1    2    0    0 -0.13885257757E-01 -0.81584923069E-02 -0.17193319530E-01  0.10203721644E+01  0.10201001825E+01 0.  0.
     999903    2    3    3    0    0  0.38111860372E-01 -0.61530825794E-02  0.12052828437E+00  0.12814183423E+00  0.20072070689E-01 0.  0.
         14    1    1    2    0    0  0.13885257757E-01  0.81584923069E-02  0.17193319530E-01  0.23557835558E-01  0.00000000000E+00 0.  1.
     999901    1    3    3    0    0 -0.51997118129E-01 -0.20054097275E-02 -0.13772160390E+00  0.89223033021E+00  0.88000000000E+00 0. -1.
        -11    1    4    4    0    0  0.26246437181E-01  0.55405141660E-02  0.72704922248E-01  0.77497352226E-01  0.51100000000E-03 0.  1.
         11    1    4    4    0    0  0.11865423191E-01 -0.11693596745E-01  0.47823362122E-01  0.50644482009E-01  0.51100000000E-03 0. -1.
</event>
<event>
 8    1  0.1122465E+005  0.1043930E+01  0.7957747E-01            NaN
         13   -1    0    0    0    0  0.00000000000E+00  0.00000000000E+00  0.74505805969E-08  0.10566000000E+00  0.10566000000E+00 0.  1.
     999900   -1    0    0    0    0 -0.00000000000E+00 -0.00000000000E+00 -0.74505805969E-08  0.93827000000E+00  0.93827000000E+00 0.  1.
     999902    2    1    2    0    0 -0.33702607956E-02  0.21906574281E-01 -0.82794596721E-02  0.10202697780E+01  0.10199953989E+01 0.  0.
     999903    2    3    3    0    0 -0.48618999413E-01  0.11597610167E+00 -0.40087466172E-01  0.13352952647E+00  0.20220440989E-01 0.  0.
         14    1    1    2    0    0  0.33702607956E-02 -0.21906574281E-01  0.82794596721E-02  0.23660222040E-01  0.00000000000E+00 0.  1.
     999901    1    3    3    0    0  0.45248738617E-01 -0.94069527388E-01  0.31808006500E-01  0.88674025149E+00  0.88000000000E+00 0.  1.
        -11    1    4    4    0    0 -0.45797044895E-01  0.89834072076E-01 -0.35043782047E-01  0.10675138223E+00  0.51100000000E-03 0.  1.
         11    1    4    4    0    0 -0.28219545176E-02  0.26142029593E-01 -0.50436841246E-02  0.26778144243E-01  0.51100000000E-03 0. -1.
</event>
<event>
 8    1  0.1122465E+005  0.1043930E+01  0.7957747E-01            NaN
         13   -1    0    0    0    0  0.00000000000E+00  0.00000000000E+00  0.74505805969E-08  0.10566000000E+00  0.10566000000E+00 0. -1.
     999900   -1    0    0    0    0 -0.00000000000E+00 -0.00000000000E+00 -0.74505805969E-08  0.93827000000E+00  0.93827000000E+00 0. -1.
     999902    2    1    2    0    0 -0.19524672831E-01 -0.12843292400E-01 -0.36132070185E-02  0.10202822036E+01  0.10200081160E+01 0.  0.
     999903    2    3    3    0    0 -0.16841898363E-01 -0.11752384413E+00  0.54583867201E-01  0.13216502968E+00  0.19816483844E-01 0.  0.
         14    1    1    2    0    0  0.19524672831E-01  0.12843292400E-01  0.36132070185E-02  0.23647796383E-01  0.00000000000E+00 0.  1.
     999901    1    3    3    0    0 -0.26827744677E-02  0.10468055173E+00 -0.58197074219E-01  0.88811717393E+00  0.88000000000E+00 0. -1.
        -11    1    4    4    0    0 -0.11884406109E-01 -0.70294172375E-01  0.43083955033E-01  0.83300648742E-01  0.51100000000E-03 0.  1.
         11    1    4    4    0    0 -0.49574922541E-02 -0.47229671758E-01  0.11499912167E-01  0.48864380940E-01  0.51100000000E-03 0. -1.
</event>
<event>
 8    1  0.1122465E+005  0.1043930E+01  0.7957747E-01            NaN
         13   -1    0    0    0    0  0.00000000000E+00  0.00000000000E+00  0.74505805969E-08  0.10566000000E+00  0.10566000000E+00 0. -1.
     999900   -1    0    0    0    0 -0.00000000000E+00 -0.00000000000E+00 -0.74505805969E-08  0.93827000000E+00  0.93827000000E+00 0.  1.
     999902    2    1    2    0    0  0.10037995911E-01  0.27498836549E-01 -0.19358923138E-02  0.10145923952E+01  0.10141681485E+01 0.  0.
     999903    2    3    3    0    0  0.10717969450E+00  0.56559472150E-01  0.36129549178E-01  0.12795266685E+00  0.19495636088E-01 0.  0.
         14    1    1    2    0    0 -0.10037995911E-01 -0.27498836549E-01  0.19358923138E-02  0.29337604751E-01  0.00000000000E+00 0. -1.
     999901    1    3    3    0    0 -0.97141698588E-01 -0.29060635600E-01 -0.38065441491E-01  0.88663972840E+00  0.88000000000E+00 0.  1.
        -11    1    4    4    0    0  0.98652121308E-01  0.57384742883E-01  0.34360858435E-01  0.11918967853E+00  0.51100000000E-03 0.  1.
         11    1    4    4    0    0  0.85275731916E-02 -0.82527073322E-03  0.17686907429E-02  0.87629883183E-02  0.51100000000E-03 0. -1.
</event>
<event>
 8    1  0.1122465E+005  0.1043930E+01  0.7957747E-01            NaN
         13   -1    0    0    0    0  0.00000000000E+00  0.00000000000E+00  0.74505805969E-08  0.10566000000E+00  0.10566000000E+00 0.  1.
     999900   -1    0    0    0    0 -0.00000000000E+00 -0.00000000000E+00 -0.74505805969E-08  0.93827000000E+00  0.93827000000E+00 0.  1.
     999902    2    1    2    0    0 -0.20484838913E-01 -0.22074554926E-02 -0.98553028802E-02  0.10210908126E+01  0.10208353536E+01 0.  0.
     999903    2    3    3    0    0 -0.47262887867E-01 -0.12083162046E+00 -0.19583221277E-01  0.13267458764E+00  0.19620972880E-01 0.  0.
         14    1    1    2    0    0  0.20484838913E-01  0.22074554926E-02  0.98553028802E-02  0.22839187374E-01  0.00000000000E+00 0.  1.
     999901    1    3    3    0    0  0.26778048954E-01  0.11862416497E+00  0.97279183964E-02  0.88841622499E+00  0.88000000000E+00 0. -1.
        -11    1    4    4    0    0 -0.14320854898E-01 -0.63417487972E-01 -0.10509229676E-01  0.65860228477E-01  0.51100000000E-03 0. -1.
         11    1    4    4    0    0 -0.32942032969E-01 -0.57414132491E-01 -0.90739916008E-02  0.66814359163E-01  0.51100000000E-03 0.  1.
</event>
<event>
 8    1  0.1122465E+005  0.1043930E+01  0.7957747E-01            NaN
         13   -1    0    0    0    0  0.00000000000E+00  0.00000000000E+00  0.74505805969E-08  0.10566000000E+00  0.10566000000E+00 0.  1.
     999900   -1    0    0    0    0 -0.00000000000E+00 -0.00000000000E+00 -0.74505805969E-08  0.93827000000E+00  0.93827000000E+00 0. -1.
     999902    2    1    2    0    0 -0.16423091070E-01 -0.23750779008E-02  0.16472563870E-01  0.10205482919E+01  0.10202804084E+01 0.  0.
     999903    2    3    3    0    0  0.15617830015E-01  0.90565407825E-01 -0.87888464411E-01  0.12894536525E+00  0.21366219446E-01 0.  0.
         14    1    1    2    0    0  0.16423091070E-01  0.23750779008E-02 -0.16472563870E-01  0.23381708145E-01  0.00000000000E+00 0. -1.
     999901    1    3    3    0    0 -0.32040921085E-01 -0.92940485725E-01  0.10436102828E+00  0.89160292661E+00  0.88000000000E+00 0.  1.
        -11    1    4    4    0    0  0.15368715095E-01  0.38994063286E-01 -0.48137524489E-01  0.63829591571E-01  0.51100000000E-03 0. -1.
         11    1    4    4    0    0  0.24911492045E-03  0.51571344539E-01 -0.39750939923E-01  0.65115773677E-01  0.51100000000E-03 0.  1.
</event>
<event>
 8    1  0.1122465E+005  0.1043930E+01  0.7957747E-01            NaN
         13   -1    0    0    0    0  0.00000000000E+00  0.00000000000E+00  0.74505805969E-08  0.10566000000E+00  0.10566000000E+00 0. -1.
     999900   -1    0    0    0    0 -0.00000000000E+00 -0.00000000000E+00 -0.74505805969E-08  0.93827000000E+00  0.93827000000E+00 0. -1.
     999902    2    1    2    0    0  0.14953899433E-02  0.95335639869E-02  0.21581937387E-01  0.10202888271E+01  0.10200148948E+01 0.  0.
     999903    2    3    3    0    0  0.38806374290E-02  0.87747633467E-01  0.98541023330E-01  0.13347101552E+00  0.19735049532E-01 0.  0.
         14    1    1    2    0    0 -0.14953899433E-02 -0.95335639869E-02 -0.21581937387E-01  0.23641172872E-01  0.00000000000E+00 0.  1.
     999901    1    3    3    0    0 -0.23852474857E-02 -0.78214069480E-01 -0.76959085943E-01  0.88681781160E+00  0.88000000000E+00 0. -1.
        -11    1    4    4    0    0  0.82747054481E-02  0.27808296950E-01  0.23579407907E-01  0.37390128747E-01  0.51100000000E-03 0.  1.
         11    1    4    4    0    0 -0.43940680191E-02  0.59939336518E-01  0.74961615423E-01  0.96080886776E-01  0.51100000000E-03 0. -1.
</event>
<event>
 8    1  0.1122465E+005  0.1043930E+01  0.7957747E-01            NaN
         13   -1    0    0    0    0  0.00000000000E+00  0.00000000000E+00  0.74505805969E-08  0.10566000000E+00  0.10566000000E+00 0.  1.
     999900   -1    0    0    0    0 -0.00000000000E+00 -0.00000000000E+00 -0.74505805969E-08  0.93827000000E+00  0.93827000000E+00 0. -1.
     999902    2    1    2    0    0 -0.21285439745E-01 -0.34639792056E-02 -0.94897395819E-02  0.10203689250E+01  0.10200968674E+01 0.  0.
     999903    2    3    3    0    0  0.22025491413E-01  0.96372192530E-01 -0.83079101463E-01  0.13061699772E+00  0.19645386946E-01 0.  0.
         14    1    1    2    0    0  0.21285439745E-01  0.34639792056E-02  0.94897395819E-02  0.23561074984E-01  0.00000000000E+00 0.  1.
     999901    1    3    3    0    0 -0.43310931158E-01 -0.99836171736E-01  0.73589361881E-01  0.88975192730E+00  0.88000000000E+00 0.  1.
        -11    1    4    4    0    0  0.17086430596E-01  0.66075825219E-01 -0.68256260134E-01  0.96525328061E-01  0.51100000000E-03 0. -1.
         11    1    4    4    0    0  0.49390608169E-02  0.30296367312E-01 -0.14822841330E-01  0.34091669659E-01  0.51100000000E-03 0.  1.
</event>
<event>
 8    1  0.1122465E+005  0.1043930E+01  0.7957747E-01            NaN
         13   -1    0    0    0    0  0.00000000000E+00  0.00000000000E+00  0.74505805969E-08  0.10566000000E+00  0.10566000000E+00 0. -1.
     999900   -1    0    0    0    0 -0.00000000000E+00 -0.00000000000E+00 -0.74505805969E-08  0.93827000000E+00  0.93827000000E+00 0.  1.
     999902    2    1    2    0    0  0.54172710552E-02  0.17935871702E-01  0.15456253638E-01  0.10196413587E+01  0.10193520306E+01 0.  0.
     999903    2    3    3    0    0  0.63966213783E-01  0.81983332175E-01  0.80422276381E-01  0.13298999543E+00  0.20140831314E-01 0.  0.
         14    1    1    2    0    0 -0.54172710552E-02 -0.17935871702E-01 -0.15456253638E-01  0.24288641295E-01  0.00000000000E+00 0.  1.
     999901    1    3    3    0    0 -0.58548942727E-01 -0.64047460472E-01 -0.64966022742E-01  0.88665136328E+00  0.88000000000E+00 0.  1.
        -11    1    4    4    0    0  0.58135717338E-01  0.69511020995E-01  0.76693834885E-01  0.11871709692E+00  0.51100000000E-03 0.  1.
         11    1    4    4    0    0  0.58304964444E-02  0.12472311180E-01  0.37284414957E-02  0.14272898512E-01  0.51100000000E-03 0. -1.
</event>
<event>
 8    1  0.1122465E+005  0.1043930E+01  0.7957747E-01            NaN
         13   -1    0    0    0    0  0.00000000000E+00  0.00000000000E+00  0.74505805969E-08  0.10566000000E+00  0.10566000000E+00 0. -1.
     999900   -1    0    0    0    0 -0.00000000000E+00 -0.00000000000E+00 -0.74505805969E-08  0.93827000000E+00  0.93827000000E+00 0. -1.
     999902    2    1    2    0    0 -0.78214033530E-02 -0.11610030227E-02  0.22524339281E-01  0.10200580889E+01  0.10197787194E+01 0.  0.
     999903    2    3    3    0    0  0.56085538019E-01  0.72405077006E-01  0.92845940819E-01  0.13189076633E+00  0.19665267964E-01 0.  0.
         14    1    1    2    0    0  0.78214033530E-02  0.11610030227E-02 -0.22524339281E-01  0.23871911077E-01  0.00000000000E+00 0.  1.
     999901    1    3    3    0    0 -0.63906941372E-01 -0.73566080029E-01 -0.70321601538E-01  0.88816732260E+00  0.88000000000E+00 0. -1.
        -11    1    4    4    0    0  0.49925703737E-01  0.54655868396E-01  0.80712059251E-01  0.10951957575E+00  0.51100000000E-03 0. -1.
         11    1    4    4    0    0  0.61598342821E-02  0.17749208610E-01  0.12133881568E-01  0.22371190572E-01  0.51100000000E-03 0.  1.
</event>
<event>
 8    1  0.1122465E+005  0.1043930E+01  0.7957747E-01            NaN
         13   -1    0    0    0    0  0.00000000000E+00  0.00000000000E+00  0.74505805969E-08  0.10566000000E+00  0.10566000000E+00 0.  1.
     999900   -1    0    0    0    0 -0.00000000000E+00 -0.00000000000E+00 -0.74505805969E-08  0.93827000000E+00  0.93827000000E+00 0. -1.
     999902    2    1    2    0    0  0.13490154141E-01  0.12676878045E-01  0.14068116378E-01  0.10206792066E+01  0.10204143489E+01 0.  0.
     999903    2    3    3    0    0  0.87195032298E-02  0.79548192055E-01 -0.10152222035E+00  0.13059176274E+00  0.18533825185E-01 0.  0.
         14    1    1    2    0    0 -0.13490154141E-01 -0.12676878045E-01 -0.14068116378E-01  0.23250793409E-01  0.00000000000E+00 0. -1.
     999901    1    3    3    0    0  0.47706509117E-02 -0.66871314010E-01  0.11559033673E+00  0.89008744385E+00  0.88000000000E+00 0.  1.
        -11    1    4    4    0    0 -0.33781258262E-03  0.61561453074E-01 -0.70437042046E-01  0.93549797622E-01  0.51100000000E-03 0.  1.
         11    1    4    4    0    0  0.90573158124E-02  0.17986738980E-01 -0.31085178305E-01  0.37041965123E-01  0.51100000000E-03 0. -1.
</event>
<event>
 8    1  0.1122465E+005  0.1043930E+01  0.7957747E-01            NaN
         13   -1    0    0    0    0  0.00000000000E+00  0.00000000000E+00  0.74505805969E-08  0.10566000000E+00  0.10566000000E+00 0. -1.
     999900   -1    0    0    0    0 -0.00000000000E+00 -0.00000000000E+00 -0.74505805969E-08  0.93827000000E+00  0.93827000000E+00 0.  1.
     999902    2    1    2    0    0  0.14498684419E-02 -0.11470909281E-01  0.20412027091E-01  0.10204707859E+01  0.10202011028E+01 0.  0.
     999903    2    3    3    0    0  0.11985487444E+00 -0.29361447945E-01 -0.37281758992E-01  0.13048854459E+00  0.20249571952E-01 0.  0.
         14    1    1    2    0    0 -0.14498684419E-02  0.11470909281E-01 -0.20412027091E-01  0.23459214143E-01  0.00000000000E+00 0.  1.
     999901    1    3    3    0    0 -0.11840500599E+00  0.17890538664E-01  0.57693786083E-01  0.88998224127E+00  0.88000000000E+00 0. -1.
        -11    1    4    4    0    0  0.69892646674E-01 -0.16550436353E-01 -0.32015337787E-01  0.78639315722E-01  0.51100000000E-03 0. -1.
         11    1    4    4    0    0  0.49962227762E-01 -0.12811011592E-01 -0.52664212051E-02  0.51849228868E-01  0.51100000000E-03 0.  1.
</event>
<event>
 8    1  0.1122465E+005  0.1043930E+01  0.7957747E-01            NaN
         13   -1    0    0    0    0  0.00000000000E+00  0.00000000000E+00  0.74505805969E-08  0.10566000000E+00  0.10566000000E+00 0. -1.
     999900   -1    0    0    0    0 -0.00000000000E+00 -0.00000000000E+00 -0.74505805969E-08  0.93827000000E+00  0.93827000000E+00 0. -1.
     999902    2    1    2    0    0  0.49516568616E-02  0.79170580571E-03 -0.22792765065E-01  0.10205921371E+01  0.10203252690E+01 0.  0.
     999903    2    3    3    0    0 -0.30537811674E-01  0.49042554242E-01  0.11229930284E+00  0.12827071883E+00  0.22461385154E-01 0.  0.
         14    1    1    2    0    0 -0.49516568616E-02 -0.79170580571E-03  0.22792765065E-01  0.23337862864E-01  0.00000000000E+00 0. -1.
     999901    1    3    3    0    0  0.35489468535E-01 -0.48250848436E-01 -0.13509206791E+00  0.89232141830E+00  0.88000000000E+00 0. -1.
        -11    1    4    4    0    0 -0.26462115070E-01  0.28451965804E-01  0.87737667390E-01  0.95957893329E-01  0.51100000000E-03 0. -1.
         11    1    4    4    0    0 -0.40756966036E-02  0.20590588438E-01  0.24561635450E-01  0.32312825503E-01  0.51100000000E-03 0.  1.
</event>
<event>
 8    1  0.1122465E+005  0.1043930E+01  0.7957747E-01            NaN
         13   -1    0    0    0    0  0.00000000000E+00  0.00000000000E+00  0.74505805969E-08  0.10566000000E+00  0.10566000000E+00 0.  1.
     999900   -1    0    0    0    0 -0.00000000000E+00 -0.00000000000E+00 -0.74505805969E-08  0.93827000000E+00  0.93827000000E+00 0. -1.
     999902    2    1    2    0    0  0.60833039588E-02  0.17651178135E-01 -0.16125993806E-01  0.10192598084E+01  0.10189612057E+01 0.  0.
     999903    2    3    3    0    0  0.53070689871E-02 -0.92373754318E-01 -0.88236176348E-01  0.12948120296E+00  0.20461760308E-01 0.  0.
         14    1    1    2    0    0 -0.60833039588E-02 -0.17651178135E-01  0.16125993806E-01  0.24670191585E-01  0.00000000000E+00 0.  1.
     999901    1    3    3    0    0  0.77623497170E-03  0.11002493245E+00  0.72110182542E-01  0.88977860546E+00  0.88000000000E+00 0.  1.
        -11    1    4    4    0    0  0.83415146105E-03 -0.82123611166E-01 -0.69194799724E-01  0.10739257306E+00  0.51100000000E-03 0. -1.
         11    1    4    4    0    0  0.44729175260E-02 -0.10250143152E-01 -0.19041376624E-01  0.22088629894E-01  0.51100000000E-03 0.  1.
</event>
<event>
 8    1  0.1122465E+005  0.1043930E+01  0.7957747E-01            NaN
         13   -1    0    0    0    0  0.00000000000E+00  0.00000000000E+00  0.74505805969E-08  0.10566000000E+00  0.10566000000E+00 0.  1.
     999900   -1    0    0    0    0 -0.00000000000E+00 -0.00000000000E+00 -0.74505805969E-08  0.93827000000E+00  0.93827000000E+00 0. -1.
     999902    2    1    2    0    0 -0.10588633393E-02 -0.84876731462E-02 -0.24099134480E-01  0.10183579436E+01  0.10180368221E+01 0.  0.
     999903    2    3    3    0    0  0.22657606838E-01  0.11022157710E+00 -0.60350207894E-01  0.12933123004E+00  0.20548875019E-01 0.  0.
         14    1    1    2    0    0  0.10588633393E-02  0.84876731462E-02  0.24099134480E-01  0.25572056423E-01  0.00000000000E+00 0.  1.
     999901    1    3    3    0    0 -0.23716470177E-01 -0.11870925025E+00  0.36251073413E-01  0.88902671353E+00  0.88000000000E+00 0. -1.
        -11    1    4    4    0    0  0.47465976922E-02  0.51956738995E-01 -0.18364098671E-01  0.55313055942E-01  0.51100000000E-03 0. -1.
         11    1    4    4    0    0  0.17911009146E-01  0.58264838110E-01 -0.41986109223E-01  0.74018174101E-01  0.51100000000E-03 0.  1.
</event>
<event>
 8    1  0.1122465E+005  0.1043930E+01  0.7957747E-01            NaN
         13   -1    0    0    0    0  0.00000000000E+00  0.00000000000E+00  0.74505805969E-08  0.10566000000E+00  0.10566000000E+00 0.  1.
     999900   -1    0    0    0    0 -0.00000000000E+00 -0.00000000000E+00 -0.74505805969E-08  0.93827000000E+00  0.93827000000E+00 0. -1.
     999902    2    1    2    0    0 -0.56992764656E-02  0.11581563429E-01  0.19463910706E-01  0.10205749538E+01  0.10203076880E+01 0.  0.
     999903    2    3    3    0    0 -0.11542395583E+00 -0.42249631699E-01 -0.38065221703E-01  0.13026775742E+00  0.20322562822E-01 0.  0.
         14    1    1    2    0    0  0.56992764656E-02 -0.11581563429E-01 -0.19463910706E-01  0.23355046214E-01  0.00000000000E+00 0. -1.
     999901    1    3    3    0    0  0.10972467937E+00  0.53831195128E-01  0.57529132409E-01  0.89030719637E+00  0.88000000000E+00 0.  1.
        -11    1    4    4    0    0 -0.90504071967E-02  0.44713622961E-03 -0.71336871363E-02  0.11543847469E-01  0.51100000000E-03 0. -1.
         11    1    4    4    0    0 -0.10637354864E+00 -0.42696767929E-01 -0.30931534567E-01  0.11872390995E+00  0.51100000000E-03 0.  1.
</event>
<event>
 8    1  0.1122465E+005  0.1043930E+01  0.7957747E-01            NaN
         13   -1    0    0    0    0  0.00000000000E+00  0.00000000000E+00  0.74505805969E-08  0.10566000000E+00  0.10566000000E+00 0. -1.
     999900   -1    0    0    0    0 -0.00000000000E+00 -0.00000000000E+00 -0.74505805969E-08  0.93827000000E+00  0.93827000000E+00 0. -1.
     999902    2    1    2    0    0  0.77020140294E-02 -0.54840784034E-02  0.21221558506E-01  0.10206974650E+01  0.10204330279E+01 0.  0.
     999903    2    3    3    0    0 -0.90514663051E-01  0.55490683512E-01  0.74762693022E-01  0.13152307812E+00  0.20898316324E-01 0.  0.
         14    1    1    2    0    0 -0.77020140294E-02  0.54840784034E-02 -0.21221558506E-01  0.23232534977E-01  0.00000000000E+00 0. -1.
     999901    1    3    3    0    0  0.98216677080E-01 -0.60974761915E-01 -0.53541134516E-01  0.88917438691E+00  0.88000000000E+00 0. -1.
        -11    1    4    4    0    0 -0.36774610806E-01  0.10856564706E-01  0.26592063061E-01  0.46665146909E-01  0.51100000000E-03 0. -1.
         11    1    4    4    0    0 -0.53740052244E-01  0.44634118805E-01  0.48170629961E-01  0.84857931206E-01  0.51100000000E-03 0.  1.
</event>
<event>
 8    1  0.1122465E+005  0.1043930E+01  0.7957747E-01            NaN
         13   -1    0    0    0    0  0.00000000000E+00  0.00000000000E+00  0.74505805969E-08  0.10566000000E+00  0.10566000000E+00 0. -1.
     999900   -1    0    0    0    0 -0.00000000000E+00 -0.00000000000E+00 -0.74505805969E-08  0.93827000000E+00  0.93827000000E+00 0. -1.
     999902    2    1    2    0    0 -0.22004887385E-01 -0.74699501511E-02 -0.12808884532E-02  0.10206564979E+01  0.10203911166E+01 0.  0.
     999903    2    3    3    0    0 -0.78067927531E-01 -0.93286362452E-01 -0.49415727867E-01  0.13339977979E+00  0.23593226976E-01 0.  0.
         14    1    1    2    0    0  0.22004887385E-01  0.74699501511E-02  0.12808884532E-02  0.23273502085E-01  0.00000000000E+00 0.  1.
     999901    1    3    3    0    0  0.56063040146E-01  0.85816412301E-01  0.48134839414E-01  0.88725671812E+00  0.88000000000E+00 0.  1.
        -11    1    4    4    0    0 -0.11772126385E-01 -0.27761421159E-01 -0.68507316357E-02  0.30926899446E-01  0.51100000000E-03 0. -1.
         11    1    4    4    0    0 -0.66295801146E-01 -0.65524941293E-01 -0.42564996231E-01  0.10247288035E+00  0.51100000000E-03 0.  1.
</event>
<event>
 8    1  0.1122465E+005  0.1043930E+01  0.7957747E-01            NaN
         13   -1    0    0    0    0  0.00000000000E+00  0.00000000000E+00  0.74505805969E-08  0.10566000000E+00  0.10566000000E+00 0.  1.
     999900   -1    0    0    0    0 -0.00000000000E+00 -0.00000000000E+00 -0.74505805969E-08  0.93827000000E+00  0.93827000000E+00 0.  1.
     999902    2    1    2    0    0  0.10558045383E-01 -0.96025213449E-02 -0.13550283036E-02  0.10295941415E+01  0.10294943318E+01 0.  0.
     999903    2    3    3    0    0  0.11710201307E+00 -0.64283399909E-01 -0.40126150787E-01  0.14063699093E+00  0.17983833642E-01 0.  0.
         14    1    1    2    0    0 -0.10558045383E-01  0.96025213449E-02  0.13550283036E-02  0.14335858544E-01  0.00000000000E+00 0.  1.
     999901    1    3    3    0    0 -0.10654396769E+00  0.54680878564E-01  0.38771122483E-01  0.88895715053E+00  0.88000000000E+00 0. -1.
        -11    1    4    4    0    0  0.58971412075E-01 -0.39939235146E-01 -0.14993114698E-01  0.72786156345E-01  0.51100000000E-03 0. -1.
         11    1    4    4    0    0  0.58130600994E-01 -0.24344164763E-01 -0.25133036088E-01  0.67850834586E-01  0.51100000000E-03 0.  1.
</event>
<event>
 8    1  0.1122465E+005  0.1043930E+01  0.7957747E-01            NaN
         13   -1    0    0    0    0  0.00000000000E+00  0.00000000000E+00  0.74505805969E-08  0.10566000000E+00  0.10566000000E+00 0.  1.
     999900   -1    0    0    0    0 -0.00000000000E+00 -0.00000000000E+00 -0.74505805969E-08  0.93827000000E+00  0.93827000000E+00 0.  1.
     999902    2    1    2    0    0 -0.18632187022E-01  0.14474507127E-01 -0.43713485443E-02  0.10199346163E+01  0.10196523148E+01 0.  0.
     999903    2    3    3    0    0 -0.14910106113E-01 -0.72786153341E-01  0.10292198430E+00  0.12912591855E+00  0.23673457841E-01 0.  0.
         14    1    1    2    0    0  0.18632187022E-01 -0.14474507127E-01  0.43713485443E-02  0.23995383678E-01  0.00000000000E+00 0. -1.
     999901    1    3    3    0    0 -0.37220809088E-02  0.87260660467E-01 -0.10729333285E+00  0.89080869777E+00  0.88000000000E+00 0. -1.
        -11    1    4    4    0    0 -0.20587073892E-01 -0.56039726904E-01  0.85626142377E-01  0.10438570775E+00  0.51100000000E-03 0. -1.
         11    1    4    4    0    0  0.56769677790E-02 -0.16746426437E-01  0.17295841927E-01  0.24740210802E-01  0.51100000000E-03 0.  1.
</event>
<event>
 8    1  0.1122465E+005  0.1043930E+01  0.7957747E-01            NaN
         13   -1    0    0    0    0  0.00000000000E+00  0.00000000000E+00  0.74505805969E-08  0.10566000000E+00  0.10566000000E+00 0.  1.
     999900   -1    0    0    0    0 -0.00000000000E+00 -0.00000000000E+00 -0.74505805969E-08  0.93827000000E+00  0.93827000000E+00 0. -1.
     999902    2    1    2    0    0 -0.10044062855E-01 -0.20997676126E-01 -0.33833971838E-02  0.10204090949E+01  0.10201379749E+01 0.  0.
     999903    2    3    3    0    0  0.46350411809E-01  0.11574557362E+00 -0.15538272115E-01  0.12798162213E+00  0.24340485094E-01 0.  0.
         14    1    1    2    0    0  0.10044062855E-01  0.20997676126E-01  0.33833971838E-02  0.23520905124E-01  0.00000000000E+00 0. -1.
     999901    1    3    3    0    0 -0.56394474664E-01 -0.13674324975E+00  0.12154874931E-01  0.89242747274E+00  0.88000000000E+00 0. -1.
        -11    1    4    4    0    0  0.33074028009E-01  0.89979209509E-01 -0.17575117316E-02  0.95882737972E-01  0.51100000000E-03 0. -1.
         11    1    4    4    0    0  0.13276383800E-01  0.25766364115E-01 -0.13780760383E-01  0.32098884159E-01  0.51100000000E-03 0.  1.
</event>
<event>
 8    1  0.1122465E+005  0.1043930E+01  0.7957747E-01            NaN
         13   -1    0    0    0    0  0.00000000000E+00  0.00000000000E+00  0.74505805969E-08  0.10566000000E+00  0.10566000000E+00 0. -1.
     999900   -1    0    0    0    0 -0.00000000000E+00 -0.00000000000E+00 -0.74505805969E-08  0.93827000000E+00  0.93827000000E+00 0.  1.
     999902    2    1    2    0    0 -0.73052446121E-02  0.11334126557E-01  0.19369706973E-01  0.10203288438E+01  0.10200558490E+01 0.  0.
     999903    2    3    3    0    0  0.22448737902E-02 -0.11789173029E+00  0.53147188593E-01  0.13019882800E+00  0.14953649324E-01 0.  0.
         14    1    1    2    0    0  0.73052446121E-02 -0.11334126557E-01 -0.19369706973E-01  0.23601156155E-01  0.00000000000E+00 0.  1.
     999901    1    3    3    0    0 -0.95501184022E-02  0.12922585685E+00 -0.33777481620E-01  0.89013001584E+00  0.88000000000E+00 0.  1.
        -11    1    4    4    0    0 -0.41389121158E-02 -0.41990989675E-01  0.13353433381E-01  0.44260017075E-01  0.51100000000E-03 0.  1.
         11    1    4    4    0    0  0.63837859060E-02 -0.75900740617E-01  0.39793755212E-01  0.85938810927E-01  0.51100000000E-03 0. -1.
</event>
<event>
 8    1  0.1122465E+005  0.1043930E+01  0.7957747E-01            NaN
         13   -1    0    0    0    0  0.00000000000E+00  0.00000000000E+00  0.74505805969E-08  0.10566000000E+00  0.10566000000E+00 0. -1.
     999900   -1    0    0    0    0 -0.00000000000E+00 -0.00000000000E+00 -0.74505805969E-08  0.93827000000E+00  0.93827000000E+00 0.  1.
     999902    2    1    2    0    0 -0.21235651099E-01  0.37670640159E-02 -0.10325860145E-01  0.10200183494E+01  0.10197380379E+01 0.  0.
     999903    2    3    3    0    0  0.92194539531E-01  0.84071993928E-01 -0.26306955281E-01  0.12896802231E+00  0.19307035019E-01 0.  0.
         14    1    1    2    0    0  0.21235651099E-01 -0.37670640159E-02  0.10325860145E-01  0.23911650647E-01  0.00000000000E+00 0.  1.
     999901    1    3    3    0    0 -0.11343019063E+00 -0.80304929912E-01  0.15981095136E-01  0.89105032704E+00  0.88000000000E+00 0.  1.
        -11    1    4    4    0    0  0.38680600882E-01  0.23685450859E-01 -0.59146633922E-02  0.45743128785E-01  0.51100000000E-03 0. -1.
         11    1    4    4    0    0  0.53513938649E-01  0.60386543069E-01 -0.20392291889E-01  0.83224893529E-01  0.51100000000E-03 0.  1.
</event>
<event>
 8    1  0.1122465E+005  0.1043930E+01  0.7957747E-01            NaN
         13   -1    0    0    0    0  0.00000000000E+00  0.00000000000E+00  0.74505805969E-08  0.10566000000E+00  0.10566000000E+00 0. -1.
     999900   -1    0    0    0    0 -0.00000000000E+00 -0.00000000000E+00 -0.74505805969E-08  0.93827000000E+00  0.93827000000E+00 0.  1.
     999902    2    1    2    0    0  0.15219916433E-01  0.16664848002E-01  0.76714692089E-02  0.10200927507E+01  0.10198142015E+01 0.  0.
     999903    2    3    3    0    0  0.12286816219E+00 -0.37905955536E-01 -0.18651673828E-01  0.13146514292E+00  0.20043755198E-01 0.  0.
         14    1    1    2    0    0 -0.15219916433E-01 -0.16664848002E-01 -0.76714692089E-02  0.23837249316E-01  0.00000000000E+00 0.  1.
     999901    1    3    3    0    0 -0.10764824576E+00  0.54570803538E-01  0.26323143037E-01  0.88862760776E+00  0.88000000000E+00 0.  1.
        -11    1    4    4    0    0  0.12019958004E-01 -0.53112263737E-02 -0.80925069186E-02  0.15441447641E-01  0.51100000000E-03 0.  1.
         11    1    4    4    0    0  0.11084820419E+00 -0.32594729162E-01 -0.10559166910E-01  0.11602369528E+00  0.51100000000E-03 0. -1.
</event>
<event>
 8    1  0.1122465E+005  0.1043930E+01  0.7957747E-01            NaN
         13   -1    0    0    0    0  0.00000000000E+00  0.00000000000E+00  0.74505805969E-08  0.10566000000E+00  0.10566000000E+00 0.  1.
     999900   -1    0    0    0    0 -0.00000000000E+00 -0.00000000000E+00 -0.74505805969E-08  0.93827000000E+00  0.93827000000E+00 0.  1.
     999902    2    1    2    0    0 -0.88709238387E-02 -0.22886437582E-01  0.14580121345E-02  0.10193412197E+01  0.10190446085E+01 0.  0.
     999903    2    3    3    0    0 -0.52070609267E-01  0.85082644087E-01  0.78228139760E-01  0.12837702972E+00  0.20263643180E-01 0.  0.
         14    1    1    2    0    0  0.88709238387E-02  0.22886437582E-01 -0.14580121345E-02  0.24588780253E-01  0.00000000000E+00 0. -1.
     999901    1    3    3    0    0  0.43199685429E-01 -0.10796908167E+00 -0.76770127625E-01  0.89096419003E+00  0.88000000000E+00 0.  1.
        -11    1    4    4    0    0 -0.29351770628E-01  0.40391672697E-01  0.27287946981E-01  0.56902608321E-01  0.51100000000E-03 0.  1.
         11    1    4    4    0    0 -0.22718838639E-01  0.44690971390E-01  0.50940192779E-01  0.71474421398E-01  0.51100000000E-03 0. -1.
</event>
<event>
 8    1  0.1122465E+005  0.1043930E+01  0.7957747E-01            NaN
         13   -1    0    0    0    0  0.00000000000E+00  0.00000000000E+00  0.74505805969E-08  0.10566000000E+00  0.10566000000E+00 0.  1.
     999900   -1    0    0    0    0 -0.00000000000E+00 -0.00000000000E+00 -0.74505805969E-08  0.93827000000E+00  0.93827000000E+00 0.  1.
     999902    2    1    2    0    0  0.81185092049E-02  0.18391807544E-01  0.11111734023E-01  0.10209595971E+01  0.10207011607E+01 0.  0.
     999903    2    3    3    0    0  0.67472167660E-01 -0.83458459671E-01  0.72355966743E-01  0.13098926628E+00  0.20124464142E-01 0.  0.
         14    1    1    2    0    0 -0.81185092049E-02 -0.18391807544E-01 -0.11111734023E-01  0.22970402901E-01  0.00000000000E+00 0. -1.
     999901    1    3    3    0    0 -0.59353658455E-01  0.10185026721E+00 -0.61244232720E-01  0.88997033082E+00  0.88000000000E+00 0.  1.
        -11    1    4    4    0    0  0.21388562445E-01 -0.22721740863E-01  0.10885882299E-01  0.33053164232E-01  0.51100000000E-03 0. -1.
         11    1    4    4    0    0  0.46083605215E-01 -0.60736718807E-01  0.61470084444E-01  0.97936102044E-01  0.51100000000E-03 0.  1.
</event>
<event>
 8    1  0.1122465E+005  0.1043930E+01  0.7957747E-01            NaN
         13   -1    0    0    0    0  0.00000000000E+00  0.00000000000E+00  0.74505805969E-08  0.10566000000E+00  0.10566000000E+00 0.  1.
     999900   -1    0    0    0    0 -0.00000000000E+00 -0.00000000000E+00 -0.74505805969E-08  0.93827000000E+00  0.93827000000E+00 0. -1.
     999902    2    1    2    0    0  0.16313726240E-01  0.16861816380E-01  0.39954842802E-02  0.10201303695E+01  0.10198527092E+01 0.  0.
     999903    2    3    3    0    0 -0.38747853759E-01 -0.11417572842E+00 -0.36893040422E-01  0.12778823381E+00  0.20766394472E-01 0.  0.
         14    1    1    2    0    0 -0.16313726240E-01 -0.16861816380E-01 -0.39954842802E-02  0.23799630462E-01  0.00000000000E+00 0. -1.
     999901    1    3    3    0    0  0.55061579999E-01  0.13103754480E+00  0.40888524702E-01  0.89234213573E+00  0.88000000000E+00 0.  1.
        -11    1    4    4    0    0 -0.18121954003E-01 -0.82907235264E-01 -0.24568886631E-01  0.88351039537E-01  0.51100000000E-03 0. -1.
         11    1    4    4    0    0 -0.20625899756E-01 -0.31268493151E-01 -0.12324153791E-01  0.39437194276E-01  0.51100000000E-03 0.  1.
</event>
<event>
 8    1  0.1122465E+005  0.1043930E+01  0.7957747E-01            NaN
         13   -1    0    0    0    0  0.00000000000E+00  0.00000000000E+00  0.74505805969E-08  0.10566000000E+00  0.10566000000E+00 0. -1.
     999900   -1    0    0    0    0 -0.00000000000E+00 -0.00000000000E+00 -0.74505805969E-08  0.93827000000E+00  0.93827000000E+00 0.  1.
     999902    2    1    2    0    0 -0.21973612997E-01  0.42620723456E-02 -0.14859000204E-02  0.10214975943E+01  0.10212512532E+01 0.  0.
     999903    2    3    3    0    0 -0.11878305921E-02 -0.11334888908E+00  0.62940091517E-01  0.13109594590E+00  0.19372927342E-01 0.  0.
         14    1    1    2    0    0  0.21973612997E-01 -0.42620723456E-02  0.14859000204E-02  0.22432405749E-01  0.00000000000E+00 0.  1.
     999901    1    3    3    0    0 -0.20785782405E-01  0.11761096143E+00 -0.64425991537E-01  0.89040164835E+00  0.88000000000E+00 0. -1.
        -11    1    4    4    0    0 -0.76868794685E-02 -0.56254480772E-01  0.23791236477E-01  0.61562478646E-01  0.51100000000E-03 0. -1.
         11    1    4    4    0    0  0.64990488764E-02 -0.57094408311E-01  0.39148855040E-01  0.69533467255E-01  0.51100000000E-03 0.  1.
</event>
<event>
 8    1  0.1122465E+005  0.1043930E+01  0.7957747E-01            NaN
         13   -1    0    0    0    0  0.00000000000E+00  0.00000000000E+00  0.74505805969E-08  0.10566000000E+00  0.10566000000E+00 0. -1.
     999900   -1    0    0    0    0 -0.00000000000E+00 -0.00000000000E+00 -0.74505805969E-08  0.93827000000E+00  0.93827000000E+00 0. -1.
     999902    2    1    2    0    0  0.17559633513E-02  0.14432113169E-01  0.19039450660E-01  0.10199744165E+01  0.10196930619E+01 0.  0.
     999903    2    3    3    0    0  0.12264862555E+00  0.35890027382E-01  0.24417540332E-01  0.13143381436E+00  0.18650787339E-01 0.  0.
         14    1    1    2    0    0 -0.17559633513E-02 -0.14432113169E-01 -0.19039450660E-01  0.23955583467E-01  0.00000000000E+00 0.  1.
     999901    1    3    3    0    0 -0.12089266220E+00 -0.21457914212E-01 -0.53780896724E-02  0.88854060217E+00  0.88000000000E+00 0.  1.
        -11    1    4    4    0    0  0.47176246343E-01  0.15800778196E-01  0.51929317163E-03  0.49757347166E-01  0.51100000000E-03 0. -1.
         11    1    4    4    0    0  0.75472379203E-01  0.20089249186E-01  0.23898247161E-01  0.81676467197E-01  0.51100000000E-03 0.  1.
</event>
<event>
 8    1  0.1122465E+005  0.1043930E+01  0.7957747E-01            NaN
         13   -1    0    0    0    0  0.00000000000E+00  0.00000000000E+00  0.74505805969E-08  0.10566000000E+00  0.10566000000E+00 0. -1.
     999900   -1    0    0    0    0 -0.00000000000E+00 -0.00000000000E+00 -0.74505805969E-08  0.93827000000E+00  0.93827000000E+00 0.  1.
     999902    2    1    2    0    0  0.18681434308E-01 -0.11373873828E-01 -0.92599369127E-02  0.10201790542E+01  0.10199025420E+01 0.  0.
     999903    2    3    3    0    0  0.70784872518E-01  0.49353420214E-01  0.95260144561E-01  0.13038861825E+00  0.21918904254E-01 0.  0.
         14    1    1    2    0    0 -0.18681434308E-01  0.11373873828E-01  0.92599369127E-02  0.23750945777E-01  0.00000000000E+00 0. -1.
     999901    1    3    3    0    0 -0.52103438210E-01 -0.60727294042E-01 -0.10452008147E+00  0.88979043597E+00  0.88000000000E+00 0.  1.
        -11    1    4    4    0    0  0.43790075617E-01  0.20085475590E-01  0.42191672974E-01  0.64042138015E-01  0.51100000000E-03 0. -1.
         11    1    4    4    0    0  0.26994796901E-01  0.29267944624E-01  0.53068471587E-01  0.66346480237E-01  0.51100000000E-03 0.  1.
</event>
<event>
 8    1  0.1122465E+005  0.1043930E+01  0.7957747E-01            NaN
         13   -1    0    0    0    0  0.00000000000E+00  0.00000000000E+00  0.74505805969E-08  0.10566000000E+00  0.10566000000E+00 0. -1.
     999900   -1    0    0    0    0 -0.00000000000E+00 -0.00000000000E+00 -0.74505805969E-08  0.93827000000E+00  0.93827000000E+00 0. -1.
     999902    2    1    2    0    0  0.21685835956E-01 -0.10383429693E-01 -0.32610909352E-04  0.10198864529E+01  0.10196030035E+01 0.  0.
     999903    2    3    3    0    0  0.29653332809E-01 -0.12708248164E+00  0.56074466050E-02  0.13212862558E+00  0.19931205564E-01 0.  0.
         14    1    1    2    0    0 -0.21685835956E-01  0.10383429693E-01  0.32610909352E-04  0.24043547092E-01  0.00000000000E+00 0. -1.
     999901    1    3    3    0    0 -0.79674968526E-02  0.11669905194E+00 -0.56400575144E-02  0.88775782733E+00  0.88000000000E+00 0.  1.
        -11    1    4    4    0    0  0.11761940514E-01 -0.42633124611E-01 -0.73529433403E-02  0.44835850115E-01  0.51100000000E-03 0. -1.
         11    1    4    4    0    0  0.17891392295E-01 -0.84449357025E-01  0.12960389945E-01  0.87292775467E-01  0.51100000000E-03 0.  1.
</event>
<event>
 8    1  0.1122465E+005  0.1043930E+01  0.7957747E-01            NaN
         13   -1    0    0    0    0  0.00000000000E+00  0.00000000000E+00  0.74505805969E-08  0.10566000000E+00  0.10566000000E+00 0. -1.
     999900   -1    0    0    0    0 -0.00000000000E+00 -0.00000000000E+00 -0.74505805969E-08  0.93827000000E+00  0.93827000000E+00 0.  1.
     999902    2    1    2    0    0 -0.10893043242E-01 -0.50035854308E-02  0.20165576572E-01  0.10204705725E+01  0.10202008845E+01 0.  0.
     999903    2    3    3    0    0 -0.20692640646E-01 -0.54063807441E-01 -0.11353853030E+00  0.12896637979E+00  0.19754710891E-01 0.  0.
         14    1    1    2    0    0  0.10893043242E-01  0.50035854308E-02 -0.20165576572E-01  0.23459427460E-01  0.00000000000E+00 0.  1.
     999901    1    3    3    0    0  0.97995974036E-02  0.49060222011E-01  0.13370410687E+00  0.89150419275E+00  0.88000000000E+00 0. -1.
        -11    1    4    4    0    0 -0.23200581871E-01 -0.36414047168E-01 -0.84369757203E-01  0.94777459777E-01  0.51100000000E-03 0.  1.
         11    1    4    4    0    0  0.25079412253E-02 -0.17649760274E-01 -0.29168773096E-01  0.34188920016E-01  0.51100000000E-03 0. -1.
</event>
<event>
 8    1  0.1122465E+005  0.1043930E+01  0.7957747E-01            NaN
         13   -1    0    0    0    0  0.00000000000E+00  0.00000000000E+00  0.74505805969E-08  0.10566000000E+00  0.10566000000E+00 0.  1.
     999900   -1    0    0    0    0 -0.00000000000E+00 -0.00000000000E+00 -0.74505805969E-08  0.93827000000E+00  0.93827000000E+00 0.  1.
     999902    2    1    2    0    0  0.21682935393E-01  0.10209026530E-01  0.30081888674E-04  0.10199638819E+01  0.10196822768E+01 0.  0.
     999903    2    3    3    0    0 -0.48013788612E-01  0.12872720486E-01  0.11775729859E+00  0.12938854759E+00  0.20089401333E-01 0.  0.
         14    1    1    2    0    0 -0.21682935393E-01 -0.10209026530E-01 -0.30081888674E-04  0.23966118060E-01  0.00000000000E+00 0.  1.
     999901    1    3    3    0    0  0.69696724004E-01 -0.26636939559E-02 -0.11772721670E+00  0.89057533435E+00  0.88000000000E+00 0.  1.
        -11    1    4    4    0    0 -0.34404393251E-01  0.61772406259E-02  0.57878590998E-01  0.67616662101E-01  0.51100000000E-03 0. -1.
         11    1    4    4    0    0 -0.13609395360E-01  0.66954798603E-02  0.59878707593E-01  0.61771885488E-01  0.51100000000E-03 0.  1.
</event>
<event>
 8    1  0.1122465E+005  0.1043930E+01  0.7957747E-01            NaN
         13   -1    0    0    0    0  0.00000000000E+00  0.00000000000E+00  0.74505805969E-08  0.10566000000E+00  0.10566000000E+00 0. -1.
     999900   -1    0    0    0    0 -0.00000000000E+00 -0.00000000000E+00 -0.74505805969E-08  0.93827000000E+00  0.93827000000E+00 0. -1.
     999902    2    1    2    0    0  0.10683649989E-01 -0.12372791818E-01 -0.17436736375E-01  0.10200288258E+01  0.10197487628E+01 0.  0.
     999903    2    3    3    0    0  0.11323587915E+00  0.25557714637E-01 -0.60060653013E-01  0.13223803887E+00  0.20101138768E-01 0.  0.
         14    1    1    2    0    0 -0.10683649989E-01  0.12372791818E-01  0.17436736375E-01  0.23901174236E-01  0.00000000000E+00 0.  1.
     999901    1    3    3    0    0 -0.10255222916E+00 -0.37930506455E-01  0.42623916638E-01  0.88779078689E+00  0.88000000000E+00 0. -1.
        -11    1    4    4    0    0  0.45850049127E-01  0.21290173823E-02 -0.29892144838E-01  0.54777378214E-01  0.51100000000E-03 0.  1.
         11    1    4    4    0    0  0.67385830021E-01  0.23428697255E-01 -0.30168508175E-01  0.77460660656E-01  0.51100000000E-03 0. -1.
</event>
<event>
 8    1  0.1122465E+005  0.1043930E+01  0.7957747E-01            NaN
         13   -1    0    0    0    0  0.00000000000E+00  0.00000000000E+00  0.74505805969E-08  0.10566000000E+00  0.10566000000E+00 0.  1.
     999900   -1    0    0    0    0 -0.00000000000E+00 -0.00000000000E+00 -0.74505805969E-08  0.93827000000E+00  0.93827000000E+00 0. -1.
     999902    2    1    2    0    0 -0.22470262737E-01  0.42494047954E-02 -0.67924990071E-02  0.10200740114E+01  0.10197950189E+01 0.  0.
     999903    2    3    3    0    0  0.73413669431E-01  0.11116201979E-01 -0.10413813744E+00  0.12950281568E+00  0.20324635156E-01 0.  0.
         14    1    1    2    0    0  0.22470262737E-01 -0.42494047954E-02  0.67924990071E-02  0.23855988585E-01  0.00000000000E+00 0. -1.
     999901    1    3    3    0    0 -0.95883932168E-01 -0.68667971841E-02  0.97345638431E-01  0.89057119574E+00  0.88000000000E+00 0.  1.
        -11    1    4    4    0    0  0.29265052776E-01 -0.22715726903E-02 -0.28575260843E-01  0.40968402577E-01  0.51100000000E-03 0. -1.
         11    1    4    4    0    0  0.44148616654E-01  0.13387774670E-01 -0.75562876596E-01  0.88534413103E-01  0.51100000000E-03 0.  1.
</event>
<event>
 8    1  0.1122465E+005  0.1043930E+01  0.7957747E-01            NaN
         13   -1    0    0    0    0  0.00000000000E+00  0.00000000000E+00  0.74505805969E-08  0.10566000000E+00  0.10566000000E+00 0.  1.
     999900   -1    0    0    0    0 -0.00000000000E+00 -0.00000000000E+00 -0.74505805969E-08  0.93827000000E+00  0.93827000000E+00 0. -1.
     999902    2    1    2    0    0 -0.65764929579E-02  0.10664567915E-01  0.19341668241E-01  0.10208847532E+01  0.10206246107E+01 0.  0.
     999903    2    3    3    0    0 -0.35584664089E-01 -0.60588302474E-01 -0.10607706633E+00  0.12866936191E+00  0.19137658604E-01 0.  0.
         14    1    1    2    0    0  0.65764929579E-02 -0.10664567915E-01 -0.19341668241E-01  0.23045246772E-01  0.00000000000E+00 0. -1.
     999901    1    3    3    0    0  0.29008171131E-01  0.71252870389E-01  0.12541873457E+00  0.89221539132E+00  0.88000000000E+00 0.  1.
        -11    1    4    4    0    0 -0.17360003278E-01 -0.23261652909E-01 -0.59853400364E-01  0.66521912675E-01  0.51100000000E-03 0.  1.
         11    1    4    4    0    0 -0.18224660811E-01 -0.37326649565E-01 -0.46223665967E-01  0.62147449230E-01  0.51100000000E-03 0. -1.
</event>
<event>
 8    1  0.1122465E+005  0.1043930E+01  0.7957747E-01            NaN
         13   -1    0    0    0    0  0.00000000000E+00  0.00000000000E+00  0.74505805969E-08  0.10566000000E+00  0.10566000000E+00 0.  1.
     999900   -1    0    0    0    0 -0.00000000000E+00 -0.00000000000E+00 -0.74505805969E-08  0.93827000000E+00  0.93827000000E+00 0. -1.
     999902    2    1    2    0    0  0.43036568150E-02  0.11077581666E-01  0.20002519327E-01  0.10206633918E+01  0.10203981695E+01 0.  0.
     999903    2    3    3    0    0  0.95412811994E-01  0.65796495292E-01 -0.57377512897E-01  0.13089785693E+00  0.20230829852E-01 0.  0.
         14    1    1    2    0    0 -0.43036568150E-02 -0.11077581666E-01 -0.20002519327E-01  0.23266608197E-01  0.00000000000E+00 0. -1.
     999901    1    3    3    0    0 -0.91109155179E-01 -0.54718913626E-01  0.77380032224E-01  0.88976553488E+00  0.88000000000E+00 0.  1.
        -11    1    4    4    0    0  0.36041284862E-01  0.37027696865E-01 -0.24915880575E-01  0.57367994347E-01  0.51100000000E-03 0. -1.
         11    1    4    4    0    0  0.59371527133E-01  0.28768798427E-01 -0.32461632322E-01  0.73529862580E-01  0.51100000000E-03 0.  1.
</event>
<event>
 8    1  0.1122465E+005  0.1043930E+01  0.7957747E-01            NaN
         13   -1    0    0    0    0  0.00000000000E+00  0.00000000000E+00  0.74505805969E-08  0.10566000000E+00  0.10566000000E+00 0.  1.
     999900   -1    0    0    0    0 -0.00000000000E+00 -0.00000000000E+00 -0.74505805969E-08  0.93827000000E+00  0.93827000000E+00 0. -1.
     999902    2    1    2    0    0 -0.14411824527E-01 -0.19253982396E-01 -0.91429551215E-02  0.10182004420E+01  0.10178753018E+01 0.  0.
     999903    2    3    3    0    0  0.54561784610E-01 -0.11371926500E+00  0.23718229745E-01  0.12985315306E+00  0.19754173387E-01 0.  0.
         14    1    1    2    0    0  0.14411824527E-01  0.19253982396E-01  0.91429551215E-02  0.25729557957E-01  0.00000000000E+00 0. -1.
     999901    1    3    3    0    0 -0.68973609136E-01  0.94465282600E-01 -0.32861184866E-01  0.88834728898E+00  0.88000000000E+00 0. -1.
        -11    1    4    4    0    0  0.23422074947E-01 -0.71047612001E-01  0.15286349112E-01  0.76356338021E-01  0.51100000000E-03 0.  1.
         11    1    4    4    0    0  0.31139709662E-01 -0.42671652995E-01  0.84318806326E-02  0.53496815038E-01  0.51100000000E-03 0. -1.
</event>
<event>
 8    1  0.1155260E+005  0.1043930E+01  0.7957747E-01            NaN
         13   -1    0    0    0    0  0.00000000000E+00  0.00000000000E+00  0.74505805969E-08  0.10566000000E+00  0.10566000000E+00 0. -1.
     999900   -1    0    0    0    0 -0.00000000000E+00 -0.00000000000E+00 -0.74505805969E-08  0.93827000000E+00  0.93827000000E+00 0. -1.
     999902    2    1    2    0    0 -0.21477892529E-01  0.47044862189E-02 -0.49990324749E-02  0.10213817765E+01  0.10211328567E+01 0.  0.
     999903    2    3    3    0    0 -0.45017660171E-01 -0.15321750593E-01  0.12096446283E+00  0.13187518687E+00  0.22300624976E-01 0.  0.
         14    1    1    2    0    0  0.21477892529E-01 -0.47044862189E-02  0.49990324749E-02  0.22548223516E-01  0.00000000000E+00 0.  1.
     999901    1    3    3    0    0  0.23539767643E-01  0.20026236812E-01 -0.12596349531E+00  0.88950658962E+00  0.88000000000E+00 0. -1.
        -11    1    4    4    0    0 -0.24098211121E-01 -0.18060192202E-01  0.56244069237E-01  0.63800868074E-01  0.51100000000E-03 0.  1.
         11    1    4    4    0    0 -0.20919449050E-01  0.27384416098E-02  0.64720393595E-01  0.68074318793E-01  0.51100000000E-03 0. -1.
</event>
<event>
 8    1  0.1122465E+005  0.1043930E+01  0.7957747E-01            NaN
         13   -1    0    0    0    0  0.00000000000E+00  0.00000000000E+00  0.74505805969E-08  0.10566000000E+00  0.10566000000E+00 0. -1.
     999900   -1    0    0    0    0 -0.00000000000E+00 -0.00000000000E+00 -0.74505805969E-08  0.93827000000E+00  0.93827000000E+00 0. -1.
     999902    2    1    2    0    0 -0.18778487773E-01  0.58131962758E-02  0.11636337343E-01  0.10210864188E+01  0.10208308604E+01 0.  0.
     999903    2    3    3    0    0 -0.88595685019E-03  0.11355485766E+00 -0.62724906831E-01  0.13122238264E+00  0.19733452577E-01 0.  0.
         14    1    1    2    0    0  0.18778487773E-01 -0.58131962758E-02 -0.11636337343E-01  0.22843581172E-01  0.00000000000E+00 0. -1.
     999901    1    3    3    0    0 -0.17892530923E-01 -0.10774166139E+00  0.74361244174E-01  0.88986403619E+00  0.88000000000E+00 0.  1.
        -11    1    4    4    0    0 -0.56755621349E-02  0.72845168228E-01 -0.49064442836E-01  0.88012562805E-01  0.51100000000E-03 0.  1.
         11    1    4    4    0    0  0.47896052847E-02  0.40709689437E-01 -0.13660463995E-01  0.43209819838E-01  0.51100000000E-03 0. -1.
</event>
<event>
 8    1  0.1122465E+005  0.1043930E+01  0.7957747E-01            NaN
         13   -1    0    0    0    0  0.00000000000E+00  0.00000000000E+00  0.74505805969E-08  0.10566000000E+00  0.10566000000E+00 0. -1.
     999900   -1    0    0    0    0 -0.00000000000E+00 -0.00000000000E+00 -0.74505805969E-08  0.93827000000E+00  0.93827000000E+00 0. -1.
     999902    2    1    2    0    0 -0.60303623323E-02  0.17802819306E-01 -0.13163544789E-01  0.10209825697E+01  0.10207246559E+01 0.  0.
     999903    2    3    3    0    0 -0.66770369368E-01  0.60269563848E-01 -0.97189562069E-01  0.13387877397E+00  0.19672635648E-01 0.  0.
         14    1    1    2    0    0  0.60303623323E-02 -0.17802819306E-01  0.13163544789E-01  0.22947430282E-01  0.00000000000E+00 0. -1.
     999901    1    3    3    0    0  0.60740007036E-01 -0.42466744542E-01  0.84026017280E-01  0.88710379575E+00  0.88000000000E+00 0.  1.
        -11    1    4    4    0    0 -0.29287072106E-01  0.35994106426E-01 -0.39632625707E-01  0.61027161423E-01  0.51100000000E-03 0. -1.
         11    1    4    4    0    0 -0.37483297261E-01  0.24275457422E-01 -0.57556936362E-01  0.72851612549E-01  0.51100000000E-03 0.  1.
</event>
<event>
 8    1  0.1122465E+005  0.1043930E+01  0.7957747E-01            NaN
         13   -1    0    0    0    0  0.00000000000E+00  0.00000000000E+00  0.74505805969E-08  0.10566000000E+00  0.10566000000E+00 0. -1.
     999900   -1    0    0    0    0 -0.00000000000E+00 -0.00000000000E+00 -0.74505805969E-08  0.93827000000E+00  0.93827000000E+00 0.  1.
     999902    2    1    2    0    0 -0.18258383568E-01 -0.11749060405E-01 -0.95539280074E-02  0.10202089854E+01  0.10199331779E+01 0.  0.
     999903    2    3    3    0    0 -0.64623988571E-01 -0.14457015409E-01 -0.11351133201E+00  0.13287351101E+00  0.19628607685E-01 0.  0.
         14    1    1    2    0    0  0.18258383568E-01  0.11749060405E-01  0.95539280074E-02  0.23721014550E-01  0.00000000000E+00 0. -1.
     999901    1    3    3    0    0  0.46365605002E-01  0.27079550039E-02  0.10395740401E+00  0.88733547444E+00  0.88000000000E+00 0. -1.
        -11    1    4    4    0    0 -0.61672296461E-03  0.79098802856E-03  0.50383287238E-03  0.12332793032E-02  0.51100000000E-03 0.  1.
         11    1    4    4    0    0 -0.64007265606E-01 -0.15248003437E-01 -0.11401516489E+00  0.13164023171E+00  0.51100000000E-03 0.  1.
</event>
<event>
 8    1  0.1122465E+005  0.1043930E+01  0.7957747E-01            NaN
         13   -1    0    0    0    0  0.00000000000E+00  0.00000000000E+00  0.74505805969E-08  0.10566000000E+00  0.10566000000E+00 0. -1.
     999900   -1    0    0    0    0 -0.00000000000E+00 -0.00000000000E+00 -0.74505805969E-08  0.93827000000E+00  0.93827000000E+00 0. -1.
     999902    2    1    2    0    0 -0.17817846026E-01  0.10975185897E-01  0.10987719242E-01  0.10202940038E+01  0.10200201929E+01 0.  0.
     999903    2    3    3    0    0  0.31178652999E-01  0.40817408580E-01  0.11969155052E+00  0.13175152417E+00  0.19855165780E-01 0.  0.
         14    1    1    2    0    0  0.17817846026E-01 -0.10975185897E-01 -0.10987719242E-01  0.23635996205E-01  0.00000000000E+00 0. -1.
     999901    1    3    3    0    0 -0.48996499025E-01 -0.29842222683E-01 -0.10870383128E+00  0.88854247963E+00  0.88000000000E+00 0.  1.
        -11    1    4    4    0    0  0.32524014018E-01  0.32937019691E-01  0.93005979188E-01  0.10388951843E+00  0.51100000000E-03 0. -1.
         11    1    4    4    0    0 -0.13453610182E-02  0.78803888894E-02  0.26685571332E-01  0.27862005736E-01  0.51100000000E-03 0.  1.
</event>
<event>
 8    1  0.1122465E+005  0.1043930E+01  0.7957747E-01            NaN
         13   -1    0    0    0    0  0.00000000000E+00  0.00000000000E+00  0.74505805969E-08  0.10566000000E+00  0.10566000000E+00 0. -1.
     999900   -1    0    0    0    0 -0.00000000000E+00 -0.00000000000E+00 -0.74505805969E-08  0.93827000000E+00  0.93827000000E+00 0.  1.
     999902    2    1    2    0    0  0.16144045946E-01  0.95273824495E-02  0.13805119522E-01  0.10206494811E+01  0.10203839379E+01 0.  0.
     999903    2    3    3    0    0 -0.12461806849E+00 -0.25485781037E-01  0.13097254596E-02  0.12868758204E+00  0.19483078820E-01 0.  0.
         14    1    1    2    0    0 -0.16144045946E-01 -0.95273824495E-02 -0.13805119522E-01  0.23280518913E-01  0.00000000000E+00 0.  1.
     999901    1    3    3    0    0  0.14076211444E+00  0.35013163487E-01  0.12495394062E-01  0.89196189905E+00  0.88000000000E+00 0. -1.
        -11    1    4    4    0    0 -0.42917932770E-01 -0.16842104457E-01 -0.44912430417E-02  0.46325347499E-01  0.51100000000E-03 0. -1.
         11    1    4    4    0    0 -0.81700135724E-01 -0.86436765797E-02  0.58009685013E-02  0.82362234541E-01  0.51100000000E-03 0.  1.
</event>
<event>
 8    1  0.1122465E+005  0.1043930E+01  0.7957747E-01            NaN
         13   -1    0    0    0    0  0.00000000000E+00  0.00000000000E+00  0.74505805969E-08  0.10566000000E+00  0.10566000000E+00 0. -1.
     999900   -1    0    0    0    0 -0.00000000000E+00 -0.00000000000E+00 -0.74505805969E-08  0.93827000000E+00  0.93827000000E+00 0.  1.
     999902    2    1    2    0    0 -0.11200271459E-02  0.10246381018E-01 -0.22258387983E-01  0.10194008618E+01  0.10191057052E+01 0.  0.
     999903    2    3    3    0    0  0.99489358403E-01  0.38249664573E-01  0.68537558548E-01  0.12858643879E+00  0.21815270657E-01 0.  0.
         14    1    1    2    0    0  0.11200271459E-02 -0.10246381018E-01  0.22258387983E-01  0.24529138191E-01  0.00000000000E+00 0. -1.
     999901    1    3    3    0    0 -0.10060938555E+00 -0.28003283555E-01 -0.90795946531E-01  0.89081442302E+00  0.88000000000E+00 0. -1.
        -11    1    4    4    0    0  0.64437331635E-01  0.21940373801E-01  0.31360974807E-01  0.74948793004E-01  0.51100000000E-03 0. -1.
         11    1    4    4    0    0  0.35052026768E-01  0.16309290772E-01  0.37176583740E-01  0.53637645787E-01  0.51100000000E-03 0.  1.
</event>
<event>
 8    1  0.1122465E+005  0.1043930E+01  0.7957747E-01            NaN
         13   -1    0    0    0    0  0.00000000000E+00  0.00000000000E+00  0.74505805969E-08  0.10566000000E+00  0.10566000000E+00 0.  1.
     999900   -1    0    0    0    0 -0.00000000000E+00 -0.00000000000E+00 -0.74505805969E-08  0.93827000000E+00  0.93827000000E+00 0. -1.
     999902    2    1    2    0    0  0.87121270370E-02 -0.46298661496E-02 -0.21057065361E-01  0.10206762515E+01  0.10204113257E+01 0.  0.
     999903    2    3    3    0    0 -0.94051683813E-01 -0.17860327451E-02 -0.90393071367E-01  0.13198284545E+00  0.19991373181E-01 0.  0.
         14    1    1    2    0    0 -0.87121270370E-02  0.46298661496E-02  0.21057065361E-01  0.23253748508E-01  0.00000000000E+00 0.  1.
     999901    1    3    3    0    0  0.10276381085E+00 -0.28438334045E-02  0.69336006006E-01  0.88869340604E+00  0.88000000000E+00 0. -1.
        -11    1    4    4    0    0 -0.62913020893E-01  0.77881374913E-02 -0.63605816683E-01  0.89803476104E-01  0.51100000000E-03 0. -1.
         11    1    4    4    0    0 -0.31138662919E-01 -0.95741702363E-02 -0.26787254684E-01  0.42179369348E-01  0.51100000000E-03 0.  1.
</event>
<event>
 8    1  0.1122465E+005  0.1043930E+01  0.7957747E-01            NaN
         13   -1    0    0    0    0  0.00000000000E+00  0.00000000000E+00  0.74505805969E-08  0.10566000000E+00  0.10566000000E+00 0. -1.
     999900   -1    0    0    0    0 -0.00000000000E+00 -0.00000000000E+00 -0.74505805969E-08  0.93827000000E+00  0.93827000000E+00 0.  1.
     999902    2    1    2    0    0  0.18114205282E-01  0.12641495892E-01  0.73218618618E-02  0.10206589555E+01  0.10203936309E+01 0.  0.
     999903    2    3    3    0    0 -0.43240464923E-01 -0.11639784107E+00  0.28145551523E-01  0.12889151266E+00  0.20066259103E-01 0.  0.
         14    1    1    2    0    0 -0.18114205282E-01 -0.12641495892E-01 -0.73218618618E-02  0.23271044509E-01  0.00000000000E+00 0.  1.
     999901    1    3    3    0    0  0.61354670205E-01  0.12903933696E+00 -0.20823689661E-01  0.89176744283E+00  0.88000000000E+00 0.  1.
        -11    1    4    4    0    0 -0.43838764132E-02 -0.99761584524E-02  0.86712712540E-02  0.13935357047E-01  0.51100000000E-03 0.  1.
         11    1    4    4    0    0 -0.38856588510E-01 -0.10642168261E+00  0.19474280269E-01  0.11495615562E+00  0.51100000000E-03 0. -1.
</event>
<event>
 8    1  0.1122465E+005  0.1043930E+01  0.7957747E-01            NaN
         13   -1    0    0    0    0  0.00000000000E+00  0.00000000000E+00  0.74505805969E-08  0.10566000000E+00  0.10566000000E+00 0. -1.
     999900   -1    0    0    0    0 -0.00000000000E+00 -0.00000000000E+00 -0.74505805969E-08  0.93827000000E+00  0.93827000000E+00 0. -1.
     999902    2    1    2    0    0 -0.18658161378E-02  0.80281002242E-03 -0.24982108726E-01  0.10188654527E+01  0.10185571065E+01 0.  0.
     999903    2    3    3    0    0 -0.17600871410E-01 -0.10295415942E+00 -0.77259354835E-01  0.13108957384E+00  0.17496252241E-01 0.  0.
         14    1    1    2    0    0  0.18658161378E-02 -0.80281002242E-03  0.24982108726E-01  0.25064547277E-01  0.00000000000E+00 0. -1.
     999901    1    3    3    0    0  0.15735055272E-01  0.10375696944E+00  0.52277246109E-01  0.88777587889E+00  0.88000000000E+00 0. -1.
        -11    1    4    4    0    0 -0.18472687314E-01 -0.71708329413E-01 -0.47832269041E-01  0.88156178266E-01  0.51100000000E-03 0.  1.
         11    1    4    4    0    0  0.87181590431E-03 -0.31245830009E-01 -0.29427085794E-01  0.42933395571E-01  0.51100000000E-03 0. -1.
</event>
<event>
 8    1  0.1122465E+005  0.1043930E+01  0.7957747E-01            NaN
         13   -1    0    0    0    0  0.00000000000E+00  0.00000000000E+00  0.74505805969E-08  0.10566000000E+00  0.10566000000E+00 0.  1.
     999900   -1    0    0    0    0 -0.00000000000E+00 -0.00000000000E+00 -0.74505805969E-08  0.93827000000E+00  0.93827000000E+00 0.  1.
     999902    2    1    2    0    0 -0.11298355431E-01 -0.20458572264E-01  0.25009747060E-02  0.10204255134E+01  0.10201547763E+01 0.  0.
     999903    2    3    3    0    0  0.23188872222E-01  0.50073951424E-02 -0.12664924619E+00  0.12996627016E+00  0.16982403142E-01 0.  0.
         14    1    1    2    0    0  0.11298355431E-01  0.20458572264E-01 -0.25009747060E-02  0.23504486572E-01  0.00000000000E+00 0. -1.
     999901    1    3    3    0    0 -0.34487227653E-01 -0.25465967406E-01  0.12915022090E+00  0.89045924327E+00  0.88000000000E+00 0. -1.
        -11    1    4    4    0    0  0.12462717633E-03 -0.42620413655E-02 -0.17070291961E-01  0.17602173649E-01  0.51100000000E-03 0.  1.
         11    1    4    4    0    0  0.23064245045E-01  0.92694365078E-02 -0.10957895423E+00  0.11236409651E+00  0.51100000000E-03 0. -1.
</event>
<event>
 8    1  0.1122465E+005  0.1043930E+01  0.7957747E-01            NaN
         13   -1    0    0    0    0  0.00000000000E+00  0.00000000000E+00  0.74505805969E-08  0.10566000000E+00  0.10566000000E+00 0. -1.
     999900   -1    0    0    0    0 -0.00000000000E+00 -0.00000000000E+00 -0.74505805969E-08  0.93827000000E+00  0.93827000000E+00 0. -1.
     999902    2    1    2    0    0  0.77281029660E-02  0.19833944526E-01  0.10290923566E-01  0.10202865646E+01  0.10200125792E+01 0.  0.
     999903    2    3    3    0    0  0.26258128550E-01 -0.11066493014E+00 -0.55405103450E-01  0.12804820735E+00  0.19758589001E-01 0.  0.
         14    1    1    2    0    0 -0.77281029660E-02 -0.19833944526E-01 -0.10290923566E-01  0.23643435426E-01  0.00000000000E+00 0.  1.
     999901    1    3    3    0    0 -0.18530025584E-01  0.13049887467E+00  0.65696027017E-01  0.89223835722E+00  0.88000000000E+00 0.  1.
        -11    1    4    4    0    0  0.78642600576E-02 -0.19585865712E-01 -0.18491804619E-01  0.28065293175E-01  0.51100000000E-03 0. -1.
         11    1    4    4    0    0  0.18393868492E-01 -0.91079064427E-01 -0.36913298831E-01  0.99982914174E-01  0.51100000000E-03 0.  1.
</event>
<event>
 8    1  0.1122465E+005  0.1043930E+01  0.7957747E-01            NaN
         13   -1    0    0    0    0  0.00000000000E+00  0.00000000000E+00  0.74505805969E-08  0.10566000000E+00  0.10566000000E+00 0.  1.
     999900   -1    0    0    0    0 -0.00000000000E+00 -0.00000000000E+00 -0.74505805969E-08  0.93827000000E+00  0.93827000000E+00 0.  1.
     999902    2    1    2    0    0 -0.80491797274E-02  0.20983236284E-01  0.45538325710E-02  0.10209991716E+01  0.10207416351E+01 0.  0.
     999903    2    3    3    0    0  0.97494475555E-02 -0.27141509261E-01 -0.12527563896E+00  0.12999497749E+00  0.19313083740E-01 0.  0.
         14    1    1    2    0    0  0.80491797274E-02 -0.20983236284E-01 -0.45538325710E-02  0.22930828383E-01  0.00000000000E+00 0.  1.
     999901    1    3    3    0    0 -0.17798627283E-01  0.48124745545E-01  0.12982947153E+00  0.89100419412E+00  0.88000000000E+00 0.  1.
        -11    1    4    4    0    0  0.11932663380E-02 -0.24394322883E-01 -0.10511483160E+00  0.10791615179E+00  0.51100000000E-03 0.  1.
         11    1    4    4    0    0  0.85561812175E-02 -0.27471863773E-02 -0.20160807362E-01  0.22078825704E-01  0.51100000000E-03 0. -1.
</event>
<event>
 8    1  0.1122465E+005  0.1043930E+01  0.7957747E-01            NaN
         13   -1    0    0    0    0  0.00000000000E+00  0.00000000000E+00  0.74505805969E-08  0.10566000000E+00  0.10566000000E+00 0.  1.
     999900   -1    0    0    0    0 -0.00000000000E+00 -0.00000000000E+00 -0.74505805969E-08  0.93827000000E+00  0.93827000000E+00 0. -1.
     999902    2    1    2    0    0 -0.35225685091E-02  0.20861481577E-01  0.94870309687E-02  0.10207435027E+01  0.10204801245E+01 0.  0.
     999903    2    3    3    0    0  0.15420051274E-01  0.66552234757E-01  0.11289595021E+00  0.13330906995E+00  0.18942930730E-01 0.  0.
         14    1    1    2    0    0  0.35225685091E-02 -0.20861481577E-01 -0.94870309687E-02  0.23186497344E-01  0.00000000000E+00 0.  1.
     999901    1    3    3    0    0 -0.18942619783E-01 -0.45690753180E-01 -0.10340891924E+00  0.88743443270E+00  0.88000000000E+00 0. -1.
        -11    1    4    4    0    0  0.19003663408E-01  0.60443613000E-01  0.96516634162E-01  0.11545688098E+00  0.51100000000E-03 0. -1.
         11    1    4    4    0    0 -0.35836121338E-02  0.61086217570E-02  0.16379316050E-01  0.17852188968E-01  0.51100000000E-03 0.  1.
</event>
<event>
 8    1  0.1122465E+005  0.1043930E+01  0.7957747E-01            NaN
         13   -1    0    0    0    0  0.00000000000E+00  0.00000000000E+00  0.74505805969E-08  0.10566000000E+00  0.10566000000E+00 0. -1.
     999900   -1    0    0    0    0 -0.00000000000E+00 -0.00000000000E+00 -0.74505805969E-08  0.93827000000E+00  0.93827000000E+00 0.  1.
     999902    2    1    2    0    0 -0.14905900282E-01  0.18566526832E-01  0.48020094588E-03  0.10201154588E+01  0.10198374463E+01 0.  0.
     999903    2    3    3    0    0 -0.11449243683E-01  0.47016096483E-01  0.12053011293E+00  0.13150232141E+00  0.20585283660E-01 0.  0.
         14    1    1    2    0    0  0.14905900282E-01 -0.18566526832E-01 -0.48020094588E-03  0.23814541246E-01  0.00000000000E+00 0.  1.
     999901    1    3    3    0    0 -0.34566565989E-02 -0.28449569651E-01 -0.12004991199E+00  0.88861313734E+00  0.88000000000E+00 0.  1.
        -11    1    4    4    0    0 -0.15374250677E-02  0.90719746786E-02  0.49618502407E-01  0.50467031838E-01  0.51100000000E-03 0. -1.
         11    1    4    4    0    0 -0.99118186148E-02  0.37944121805E-01  0.70911610527E-01  0.81035289574E-01  0.51100000000E-03 0.  1.
</event>
<event>
 8    1  0.1122465E+005  0.1043930E+01  0.7957747E-01            NaN
         13   -1    0    0    0    0  0.00000000000E+00  0.00000000000E+00  0.74505805969E-08  0.10566000000E+00  0.10566000000E+00 0. -1.
     999900   -1    0    0    0    0 -0.00000000000E+00 -0.00000000000E+00 -0.74505805969E-08  0.93827000000E+00  0.93827000000E+00 0. -1.
     999902    2    1    2    0    0  0.20897526694E-01  0.22819449933E-02 -0.10836948509E-01  0.10202793478E+01  0.10200051933E+01 0.  0.
     999903    2    3    3    0    0  0.10133441205E+00  0.82287922267E-01 -0.14762947146E-01  0.13298770334E+00  0.20683795931E-01 0.  0.
         14    1    1    2    0    0 -0.20897526694E-01 -0.22819449933E-02  0.10836948509E-01  0.23650652166E-01  0.00000000000E+00 0. -1.
     999901    1    3    3    0    0 -0.80436885357E-01 -0.80005977274E-01  0.39259986377E-02  0.88729164450E+00  0.88000000000E+00 0. -1.
        -11    1    4    4    0    0  0.24409122363E-01  0.17630225456E-01  0.51258355461E-02  0.30547756304E-01  0.51100000000E-03 0. -1.
         11    1    4    4    0    0  0.76925289688E-01  0.64657696811E-01 -0.19888782692E-01  0.10243994703E+00  0.51100000000E-03 0.  1.
</event>
<event>
 8    1  0.1122465E+005  0.1043930E+01  0.7957747E-01            NaN
         13   -1    0    0    0    0  0.00000000000E+00  0.00000000000E+00  0.74505805969E-08  0.10566000000E+00  0.10566000000E+00 0.  1.
     999900   -1    0    0    0    0 -0.00000000000E+00 -0.00000000000E+00 -0.74505805969E-08  0.93827000000E+00  0.93827000000E+00 0.  1.
     999902    2    1    2    0    0  0.21097653660E-02 -0.21168620236E-01  0.10336568044E-01  0.10202782298E+01  0.10200040490E+01 0.  0.
     999903    2    3    3    0    0  0.11008385616E+00  0.61941328297E-01  0.22572585003E-01  0.12970796988E+00  0.18959227796E-01 0.  0.
         14    1    1    2    0    0 -0.21097653660E-02  0.21168620236E-01 -0.10336568044E-01  0.23651770156E-01  0.00000000000E+00 0.  1.
     999901    1    3    3    0    0 -0.10797409079E+00 -0.83109948533E-01 -0.12236016958E-01  0.89057025997E+00  0.88000000000E+00 0.  1.
        -11    1    4    4    0    0  0.52340526580E-01  0.38695088107E-01  0.16578387497E-01  0.67171010260E-01  0.51100000000E-03 0.  1.
         11    1    4    4    0    0  0.57743329575E-01  0.23246240190E-01  0.59941975052E-02  0.62536959617E-01  0.51100000000E-03 0. -1.
</event>
<event>
 8    1  0.1122465E+005  0.1043930E+01  0.7957747E-01            NaN
         13   -1    0    0    0    0  0.00000000000E+00  0.00000000000E+00  0.74505805969E-08  0.10566000000E+00  0.10566000000E+00 0.  1.
     999900   -1    0    0    0    0 -0.00000000000E+00 -0.00000000000E+00 -0.74505805969E-08  0.93827000000E+00  0.93827000000E+00 0.  1.
     999902    2    1    2    0    0 -0.64624176958E-02  0.18213330471E-01  0.14418640392E-01  0.10198180644E+01  0.10195329808E+01 0.  0.
     999903    2    3    3    0    0  0.10348688779E+00  0.14520493062E-01 -0.72022666896E-01  0.12876554827E+00  0.21746751772E-01 0.  0.
         14    1    1    2    0    0  0.64624176958E-02 -0.18213330471E-01 -0.14418640392E-01  0.24111935635E-01  0.00000000000E+00 0.  1.
     999901    1    3    3    0    0 -0.10994930548E+00  0.36928374091E-02  0.86441307288E-01  0.89105251609E+00  0.88000000000E+00 0. -1.
        -11    1    4    4    0    0  0.86284686592E-02  0.24550121182E-02  0.11018694287E-03  0.89861458960E-02  0.51100000000E-03 0.  1.
         11    1    4    4    0    0  0.94858419130E-01  0.12065480944E-01 -0.72132853839E-01  0.11977940238E+00  0.51100000000E-03 0. -1.
</event>
<event>
 8    1  0.1122465E+005  0.1043930E+01  0.7957747E-01            NaN
         13   -1    0    0    0    0  0.00000000000E+00  0.00000000000E+00  0.74505805969E-08  0.10566000000E+00  0.10566000000E+00 0.  1.
     999900   -1    0    0    0    0 -0.00000000000E+00 -0.00000000000E+00 -0.74505805969E-08  0.93827000000E+00  0.93827000000E+00 0. -1.
     999902    2    1    2    0    0 -0.82375322209E-02 -0.92634141138E-02  0.19840506264E-01  0.10205352684E+01  0.10202670830E+01 0.  0.
     999903    2    3    3    0    0 -0.67293728850E-02  0.36575118883E-01  0.12601999813E+00  0.13296694418E+00  0.20399620935E-01 0.  0.
         14    1    1    2    0    0  0.82375322209E-02  0.92634141138E-02 -0.19840506264E-01  0.23394731607E-01  0.00000000000E+00 0. -1.
     999901    1    3    3    0    0 -0.15081593359E-02 -0.45838532997E-01 -0.10617949187E+00  0.88756832421E+00  0.88000000000E+00 0. -1.
        -11    1    4    4    0    0 -0.11290009483E-01  0.22202201523E-01  0.55259676193E-01  0.60615963249E-01  0.51100000000E-03 0. -1.
         11    1    4    4    0    0  0.45606365982E-02  0.14372917359E-01  0.70760321941E-01  0.72350980932E-01  0.51100000000E-03 0.  1.
</event>
<event>
 8    1  0.1122465E+005  0.1043930E+01  0.7957747E-01            NaN
         13   -1    0    0    0    0  0.00000000000E+00  0.00000000000E+00  0.74505805969E-08  0.10566000000E+00  0.10566000000E+00 0. -1.
     999900   -1    0    0    0    0 -0.00000000000E+00 -0.00000000000E+00 -0.74505805969E-08  0.93827000000E+00  0.93827000000E+00 0.  1.
     999902    2    1    2    0    0 -0.37495228396E-02 -0.18401578367E-01  0.14240528803E-01  0.10203615960E+01  0.10200893671E+01 0.  0.
     999903    2    3    3    0    0 -0.75230448647E-01  0.87325009137E-01  0.56701248554E-01  0.13014221470E+00  0.20897053294E-01 0.  0.
         14    1    1    2    0    0  0.37495228396E-02  0.18401578367E-01 -0.14240528803E-01  0.23568404029E-01  0.00000000000E+00 0.  1.
     999901    1    3    3    0    0  0.71480925807E-01 -0.10572658750E+00 -0.42460719751E-01  0.89021938127E+00  0.88000000000E+00 0.  1.
        -11    1    4    4    0    0 -0.74165788890E-01  0.78495236574E-01  0.54503296675E-01  0.12096667672E+00  0.51100000000E-03 0. -1.
         11    1    4    4    0    0 -0.10646597566E-02  0.88297725626E-02  0.21979518792E-02  0.91755379880E-02  0.51100000000E-03 0.  1.
</event>
<event>
 8    1  0.1122465E+005  0.1043930E+01  0.7957747E-01            NaN
         13   -1    0    0    0    0  0.00000000000E+00  0.00000000000E+00  0.74505805969E-08  0.10566000000E+00  0.10566000000E+00 0. -1.
     999900   -1    0    0    0    0 -0.00000000000E+00 -0.00000000000E+00 -0.74505805969E-08  0.93827000000E+00  0.93827000000E+00 0.  1.
     999902    2    1    2    0    0 -0.10550895996E-01 -0.13714764002E-01  0.15945247996E-01  0.10203998684E+01  0.10201285333E+01 0.  0.
     999903    2    3    3    0    0  0.46068785622E-01  0.83265897580E-01 -0.82574277056E-01  0.12780974196E+00  0.21477341524E-01 0.  0.
         14    1    1    2    0    0  0.10550895996E-01  0.13714764002E-01 -0.15945247996E-01  0.23530131568E-01  0.00000000000E+00 0.  1.
     999901    1    3    3    0    0 -0.56619681618E-01 -0.96980661582E-01  0.98519525052E-01  0.89259012648E+00  0.88000000000E+00 0. -1.
        -11    1    4    4    0    0  0.13390465067E-02  0.11414661867E-01 -0.36140864305E-02  0.12058619026E-01  0.51100000000E-03 0.  1.
         11    1    4    4    0    0  0.44729739115E-01  0.71851235712E-01 -0.78960190625E-01  0.11575112293E+00  0.51100000000E-03 0. -1.
</event>
<event>
 8    1  0.1122465E+005  0.1043930E+01  0.7957747E-01            NaN
         13   -1    0    0    0    0  0.00000000000E+00  0.00000000000E+00  0.74505805969E-08  0.10566000000E+00  0.10566000000E+00 0.  1.
     999900   -1    0    0    0    0 -0.00000000000E+00 -0.00000000000E+00 -0.74505805969E-08  0.93827000000E+00  0.93827000000E+00 0. -1.
     999902    2    1    2    0    0  0.22471244723E-01 -0.12370989853E-02  0.30859009713E-02  0.10212141457E+01  0.10209614690E+01 0.  0.
     999903    2    3    3    0    0  0.13218225230E+00  0.11539542796E-01 -0.26558759958E-02  0.13429097213E+00  0.20535399868E-01 0.  0.
         14    1    1    2    0    0 -0.22471244723E-01  0.12370989853E-02 -0.30859009713E-02  0.22715854333E-01  0.00000000000E+00 0.  1.
     999901    1    3    3    0    0 -0.10971100757E+00 -0.12776641781E-01  0.57417769671E-02  0.88692317354E+00  0.88000000000E+00 0.  1.
        -11    1    4    4    0    0  0.68989521430E-01  0.11588621500E-01  0.72185148316E-02  0.70329355839E-01  0.51100000000E-03 0. -1.
         11    1    4    4    0    0  0.63192730866E-01 -0.49078703842E-04 -0.98743908274E-02  0.63961616288E-01  0.51100000000E-03 0.  1.
</event>
<event>
 8    1  0.1122465E+005  0.1043930E+01  0.7957747E-01            NaN
         13   -1    0    0    0    0  0.00000000000E+00  0.00000000000E+00  0.74505805969E-08  0.10566000000E+00  0.10566000000E+00 0. -1.
     999900   -1    0    0    0    0 -0.00000000000E+00 -0.00000000000E+00 -0.74505805969E-08  0.93827000000E+00  0.93827000000E+00 0.  1.
     999902    2    1    2    0    0 -0.31374418795E-02 -0.18327092808E-01 -0.10721921376E-01  0.10224664153E+01  0.10222411090E+01 0.  0.
     999903    2    3    3    0    0 -0.37781178692E-01  0.76715751147E-01 -0.98982540085E-01  0.13228482282E+00  0.19723264673E-01 0.  0.
         14    1    1    2    0    0  0.31374418795E-02  0.18327092808E-01  0.10721921376E-01  0.21463584750E-01  0.00000000000E+00 0.  1.
     999901    1    3    3    0    0  0.34643736812E-01 -0.95042843955E-01  0.88260618709E-01  0.89018159243E+00  0.88000000000E+00 0. -1.
        -11    1    4    4    0    0 -0.11493054998E-01  0.24467282536E-01 -0.18368659848E-01  0.32686495889E-01  0.51100000000E-03 0. -1.
         11    1    4    4    0    0 -0.26288123694E-01  0.52248468611E-01 -0.80613880237E-01  0.99598326931E-01  0.51100000000E-03 0.  1.
</event>
<event>
 8    1  0.1122465E+005  0.1043930E+01  0.7957747E-01            NaN
         13   -1    0    0    0    0  0.00000000000E+00  0.00000000000E+00  0.74505805969E-08  0.10566000000E+00  0.10566000000E+00 0. -1.
     999900   -1    0    0    0    0 -0.00000000000E+00 -0.00000000000E+00 -0.74505805969E-08  0.93827000000E+00  0.93827000000E+00 0. -1.
     999902    2    1    2    0    0 -0.19687197552E-01  0.10823206785E-02 -0.10406062842E-01  0.10216355319E+01  0.10213922443E+01 0.  0.
     999903    2    3    3    0    0 -0.59442479295E-01 -0.30883840759E-01 -0.11438021926E+00  0.13404725845E+00  0.19965294265E-01 0.  0.
         14    1    1    2    0    0  0.19687197552E-01 -0.10823206785E-02  0.10406062842E-01  0.22294468133E-01  0.00000000000E+00 0. -1.
     999901    1    3    3    0    0  0.39755281744E-01  0.31966161437E-01  0.10397415642E+00  0.88758827342E+00  0.88000000000E+00 0.  1.
        -11    1    4    4    0    0 -0.48140477764E-01 -0.17803328491E-01 -0.73399986772E-01  0.89567199822E-01  0.51100000000E-03 0. -1.
         11    1    4    4    0    0 -0.11302001532E-01 -0.13080512268E-01 -0.40980232488E-01  0.44480058628E-01  0.51100000000E-03 0.  1.
</event>
<event>
 8    1  0.1122465E+005  0.1043930E+01  0.7957747E-01            NaN
         13   -1    0    0    0    0  0.00000000000E+00  0.00000000000E+00  0.74505805969E-08  0.10566000000E+00  0.10566000000E+00 0.  1.
     999900   -1    0    0    0    0 -0.00000000000E+00 -0.00000000000E+00 -0.74505805969E-08  0.93827000000E+00  0.93827000000E+00 0.  1.
     999902    2    1    2    0    0  0.12920181324E-02  0.15455295822E-01  0.17902726476E-01  0.10202436517E+01  0.10199686592E+01 0.  0.
     999903    2    3    3    0    0  0.49490737448E-01  0.12059799415E+00 -0.57317181604E-02  0.13236038769E+00  0.22208339648E-01 0.  0.
         14    1    1    2    0    0 -0.12920181324E-02 -0.15455295822E-01 -0.17902726476E-01  0.23686348285E-01  0.00000000000E+00 0. -1.
     999901    1    3    3    0    0 -0.48198719316E-01 -0.10514269833E+00  0.23634444637E-01  0.88788326402E+00  0.88000000000E+00 0. -1.
        -11    1    4    4    0    0  0.23423550958E-01  0.81743845960E-01 -0.86769327804E-02  0.85476718323E-01  0.51100000000E-03 0. -1.
         11    1    4    4    0    0  0.26067186490E-01  0.38854148195E-01  0.29452146200E-02  0.46883669370E-01  0.51100000000E-03 0.  1.
</event>
<event>
 8    1  0.1122465E+005  0.1043930E+01  0.7957747E-01            NaN
         13   -1    0    0    0    0  0.00000000000E+00  0.00000000000E+00  0.74505805969E-08  0.10566000000E+00  0.10566000000E+00 0. -1.
     999900   -1    0    0    0    0 -0.00000000000E+00 -0.00000000000E+00 -0.74505805969E-08  0.93827000000E+00  0.93827000000E+00 0. -1.
     999902    2    1    2    0    0 -0.17952933874E-01 -0.46836363068E-02  0.14706021535E-01  0.10202548790E+01  0.10199801502E+01 0.  0.
     999903    2    3    3    0    0 -0.12467214767E+00 -0.15841264726E-01  0.40480032148E-01  0.13336267425E+00  0.18785095393E-01 0.  0.
         14    1    1    2    0    0  0.17952933874E-01  0.46836363068E-02 -0.14706021535E-01  0.23675120974E-01  0.00000000000E+00 0.  1.
     999901    1    3    3    0    0  0.10671921379E+00  0.11157628419E-01 -0.25774010613E-01  0.88689220477E+00  0.88000000000E+00 0.  1.
        -11    1    4    4    0    0 -0.84958352582E-01 -0.33329804845E-02  0.32130289462E-01  0.90893602934E-01  0.51100000000E-03 0. -1.
         11    1    4    4    0    0 -0.39713795086E-01 -0.12508284241E-01  0.83497426858E-02  0.42469071319E-01  0.51100000000E-03 0.  1.
</event>
<event>
 8    1  0.1122465E+005  0.1043930E+01  0.7957747E-01            NaN
         13   -1    0    0    0    0  0.00000000000E+00  0.00000000000E+00  0.74505805969E-08  0.10566000000E+00  0.10566000000E+00 0. -1.
     999900   -1    0    0    0    0 -0.00000000000E+00 -0.00000000000E+00 -0.74505805969E-08  0.93827000000E+00  0.93827000000E+00 0.  1.
     999902    2    1    2    0    0  0.10368213206E-01  0.19320462317E-01  0.75805534728E-02  0.10207298944E+01  0.10204662035E+01 0.  0.
     999903    2    3    3    0    0 -0.10470505187E+00 -0.53357706199E-01 -0.48048115362E-01  0.12853119382E+00  0.20036309437E-01 0.  0.
         14    1    1    2    0    0 -0.10368213206E-01 -0.19320462317E-01 -0.75805534728E-02  0.23200105607E-01  0.00000000000E+00 0.  1.
     999901    1    3    3    0    0  0.11507326508E+00  0.72678168516E-01  0.55628668835E-01  0.89219870058E+00  0.88000000000E+00 0.  1.
        -11    1    4    4    0    0 -0.70631269107E-01 -0.41323008840E-01 -0.41673517057E-01  0.91833057121E-01  0.51100000000E-03 0.  1.
         11    1    4    4    0    0 -0.34073782764E-01 -0.12034697360E-01 -0.63745983050E-02  0.36698136695E-01  0.51100000000E-03 0. -1.
</event>
<event>
 8    1  0.1122465E+005  0.1043930E+01  0.7957747E-01            NaN
         13   -1    0    0    0    0  0.00000000000E+00  0.00000000000E+00  0.74505805969E-08  0.10566000000E+00  0.10566000000E+00 0.  1.
     999900   -1    0    0    0    0 -0.00000000000E+00 -0.00000000000E+00 -0.74505805969E-08  0.93827000000E+00  0.93827000000E+00 0. -1.
     999902    2    1    2    0    0 -0.14961013296E-02 -0.14020784949E-01  0.71998052277E-02  0.10280978200E+01  0.10279759090E+01 0.  0.
     999903    2    3    3    0    0  0.20934997956E-01  0.95003108392E-01  0.94203831851E-01  0.13682958637E+00  0.19598699660E-01 0.  0.
         14    1    1    2    0    0  0.14961013296E-02  0.14020784949E-01 -0.71998052277E-02  0.15832180049E-01  0.00000000000E+00 0. -1.
     999901    1    3    3    0    0 -0.22431099285E-01 -0.10902389334E+00 -0.87004026623E-01  0.89126823358E+00  0.88000000000E+00 0. -1.
        -11    1    4    4    0    0  0.75948464936E-02  0.24494678139E-01  0.37185238010E-01  0.45173819822E-01  0.51100000000E-03 0.  1.
         11    1    4    4    0    0  0.13340151462E-01  0.70508430253E-01  0.57018593841E-01  0.91655766553E-01  0.51100000000E-03 0. -1.
</event>
<event>
 8    1  0.1122465E+005  0.1043930E+01  0.7957747E-01            NaN
         13   -1    0    0    0    0  0.00000000000E+00  0.00000000000E+00  0.74505805969E-08  0.10566000000E+00  0.10566000000E+00 0.  1.
     999900   -1    0    0    0    0 -0.00000000000E+00 -0.00000000000E+00 -0.74505805969E-08  0.93827000000E+00  0.93827000000E+00 0. -1.
     999902    2    1    2    0    0  0.12084611367E-01  0.11418689791E-01  0.15893750367E-01  0.10209292259E+01  0.10206700979E+01 0.  0.
     999903    2    3    3    0    0 -0.47076670635E-01 -0.87797500020E-01 -0.78486600309E-01  0.12837583243E+00  0.19889544875E-01 0.  0.
         14    1    1    2    0    0 -0.12084611367E-01 -0.11418689791E-01 -0.15893750367E-01  0.23000774099E-01  0.00000000000E+00 0. -1.
     999901    1    3    3    0    0  0.59161282002E-01  0.99216189811E-01  0.94380350676E-01  0.89255339347E+00  0.88000000000E+00 0. -1.
        -11    1    4    4    0    0 -0.16287374744E-01 -0.25459175749E-01 -0.35523917718E-01  0.46643949843E-01  0.51100000000E-03 0.  1.
         11    1    4    4    0    0 -0.30789295891E-01 -0.62338324270E-01 -0.42962682591E-01  0.81731882584E-01  0.51100000000E-03 0. -1.
</event>
<event>
 8    1  0.1122465E+005  0.1043930E+01  0.7957747E-01            NaN
         13   -1    0    0    0    0  0.00000000000E+00  0.00000000000E+00  0.74505805969E-08  0.10566000000E+00  0.10566000000E+00 0.  1.
     999900   -1    0    0    0    0 -0.00000000000E+00 -0.00000000000E+00 -0.74505805969E-08  0.93827000000E+00  0.93827000000E+00 0.  1.
     999902    2    1    2    0    0  0.15944161096E-01  0.17565682408E-02  0.17317853192E-01  0.10203247073E+01  0.10200516156E+01 0.  0.
     999903    2    3    3    0    0  0.10136646834E+00  0.80021591056E-01  0.26444549683E-01  0.13268419392E+00  0.15071999565E-01 0.  0.
         14    1    1    2    0    0 -0.15944161096E-01 -0.17565682408E-02 -0.17317853192E-01  0.23605292716E-01  0.00000000000E+00 0. -1.
     999901    1    3    3    0    0 -0.85422307240E-01 -0.78265022815E-01 -0.91266964915E-02  0.88764051336E+00  0.88000000000E+00 0. -1.
        -11    1    4    4    0    0  0.86979083474E-01  0.67297962571E-01  0.27762755992E-01  0.11342578397E+00  0.51100000000E-03 0. -1.
         11    1    4    4    0    0  0.14387384863E-01  0.12723628485E-01 -0.13182063086E-02  0.19258409952E-01  0.51100000000E-03 0.  1.
</event>
<event>
 8    1  0.1122465E+005  0.1043930E+01  0.7957747E-01            NaN
         13   -1    0    0    0    0  0.00000000000E+00  0.00000000000E+00  0.74505805969E-08  0.10566000000E+00  0.10566000000E+00 0.  1.
     999900   -1    0    0    0    0 -0.00000000000E+00 -0.00000000000E+00 -0.74505805969E-08  0.93827000000E+00  0.93827000000E+00 0. -1.
     999902    2    1    2    0    0  0.10830477467E-01 -0.12177285424E-01  0.15771504853E-01  0.10212512459E+01  0.10209994032E+01 0.  0.
     999903    2    3    3    0    0 -0.33855550353E-01  0.76394527243E-01 -0.95869485761E-01  0.12866762636E+00  0.19546807661E-01 0.  0.
         14    1    1    2    0    0 -0.10830477467E-01  0.12177285424E-01 -0.15771504853E-01  0.22678754106E-01  0.00000000000E+00 0. -1.
     999901    1    3    3    0    0  0.44686027820E-01 -0.88571812667E-01  0.11164099061E+00  0.89258361954E+00  0.88000000000E+00 0.  1.
        -11    1    4    4    0    0 -0.17714061787E-01  0.47665018350E-01 -0.44172676734E-01  0.67358952264E-01  0.51100000000E-03 0.  1.
         11    1    4    4    0    0 -0.16141488566E-01  0.28729508893E-01 -0.51696809027E-01  0.61308674092E-01  0.51100000000E-03 0. -1.
</event>
<event>
 8    1  0.1122465E+005  0.1043930E+01  0.7957747E-01            NaN
         13   -1    0    0    0    0  0.00000000000E+00  0.00000000000E+00  0.74505805969E-08  0.10566000000E+00  0.10566000000E+00 0.  1.
     999900   -1    0    0    0    0 -0.00000000000E+00 -0.00000000000E+00 -0.74505805969E-08  0.93827000000E+00  0.93827000000E+00 0.  1.
     999902    2    1    2    0    0  0.21315034308E-01  0.20835857642E-01 -0.64063021834E-02  0.10134422261E+01  0.10129835345E+01 0.  0.
     999903    2    3    3    0    0 -0.17785723888E-01 -0.11849779506E+00  0.16312314865E-02  0.12158610651E+00  0.20553855393E-01 0.  0.
         14    1    1    2    0    0 -0.21315034308E-01 -0.20835857642E-01  0.64063021834E-02  0.30487773925E-01  0.00000000000E+00 0. -1.
     999901    1    3    3    0    0  0.39100758196E-01  0.13933365270E+00 -0.80375336698E-02  0.89185611957E+00  0.88000000000E+00 0. -1.
        -11    1    4    4    0    0 -0.12780560811E-01 -0.31803483717E-01 -0.42778319020E-02  0.34545119452E-01  0.51100000000E-03 0.  1.
         11    1    4    4    0    0 -0.50051630763E-02 -0.86694311339E-01  0.59090633885E-02  0.87040987053E-01  0.51100000000E-03 0. -1.
</event>
<event>
 8    1  0.1122465E+005  0.1043930E+01  0.7957747E-01            NaN
         13   -1    0    0    0    0  0.00000000000E+00  0.00000000000E+00  0.74505805969E-08  0.10566000000E+00  0.10566000000E+00 0.  1.
     999900   -1    0    0    0    0 -0.00000000000E+00 -0.00000000000E+00 -0.74505805969E-08  0.93827000000E+00  0.93827000000E+00 0. -1.
     999902    2    1    2    0    0 -0.12589303053E-01 -0.11392916042E-01 -0.18150297114E-01  0.10190759787E+01  0.10187728540E+01 0.  0.
     999903    2    3    3    0    0  0.31931626768E-01 -0.31417932358E-01 -0.12208425205E+00  0.13161590558E+00  0.20284642962E-01 0.  0.
         14    1    1    2    0    0  0.12589303053E-01  0.11392916042E-01  0.18150297114E-01  0.24854021257E-01  0.00000000000E+00 0.  1.
     999901    1    3    3    0    0 -0.44520929821E-01  0.20025016316E-01  0.10393395494E+00  0.88746007316E+00  0.88000000000E+00 0.  1.
        -11    1    4    4    0    0  0.10969478448E-01 -0.89061129371E-02 -0.67444408018E-01  0.68910504272E-01  0.51100000000E-03 0.  1.
         11    1    4    4    0    0  0.20962148321E-01 -0.22511819421E-01 -0.54639844036E-01  0.62705401308E-01  0.51100000000E-03 0. -1.
</event>
<event>
 8    1  0.1122465E+005  0.1043930E+01  0.7957747E-01            NaN
         13   -1    0    0    0    0  0.00000000000E+00  0.00000000000E+00  0.74505805969E-08  0.10566000000E+00  0.10566000000E+00 0. -1.
     999900   -1    0    0    0    0 -0.00000000000E+00 -0.00000000000E+00 -0.74505805969E-08  0.93827000000E+00  0.93827000000E+00 0. -1.
     999902    2    1    2    0    0  0.70119439805E-02 -0.18918095421E-01  0.12734318816E-01  0.10200715724E+01  0.10197925221E+01 0.  0.
     999903    2    3    3    0    0  0.72385130816E-01  0.65472426641E-01 -0.82653117247E-01  0.12850319209E+00  0.12461411390E-01 0.  0.
         14    1    1    2    0    0 -0.70119439805E-02  0.18918095421E-01 -0.12734318816E-01  0.23858427619E-01  0.00000000000E+00 0. -1.
     999901    1    3    3    0    0 -0.65373186836E-01 -0.84390522061E-01  0.95387436064E-01  0.89156838029E+00  0.88000000000E+00 0. -1.
        -11    1    4    4    0    0  0.31167585168E-01  0.24289682556E-01 -0.40505596584E-01  0.56589500082E-01  0.51100000000E-03 0. -1.
         11    1    4    4    0    0  0.41217545648E-01  0.41182744085E-01 -0.42147520664E-01  0.71913692011E-01  0.51100000000E-03 0.  1.
</event>
<event>
 8    1  0.1122465E+005  0.1043930E+01  0.7957747E-01            NaN
         13   -1    0    0    0    0  0.00000000000E+00  0.00000000000E+00  0.74505805969E-08  0.10566000000E+00  0.10566000000E+00 0.  1.
     999900   -1    0    0    0    0 -0.00000000000E+00 -0.00000000000E+00 -0.74505805969E-08  0.93827000000E+00  0.93827000000E+00 0. -1.
     999902    2    1    2    0    0 -0.18678497077E-01  0.97074485612E-02  0.10077175246E-01  0.10205918280E+01  0.10203249527E+01 0.  0.
     999903    2    3    3    0    0 -0.10899545883E+00 -0.67678466044E-01 -0.24574535839E-01  0.13191501700E+00  0.18365159597E-01 0.  0.
         14    1    1    2    0    0  0.18678497077E-01 -0.97074485612E-02 -0.10077175246E-01  0.23338171984E-01  0.00000000000E+00 0. -1.
     999901    1    3    3    0    0  0.90316961750E-01  0.77385914605E-01  0.34651711085E-01  0.88867681102E+00  0.88000000000E+00 0. -1.
        -11    1    4    4    0    0 -0.99094623922E-01 -0.57830010883E-01 -0.16905263201E-01  0.11597458210E+00  0.51100000000E-03 0. -1.
         11    1    4    4    0    0 -0.99008349050E-02 -0.98484551606E-02 -0.76692726380E-02  0.15940434896E-01  0.51100000000E-03 0.  1.
</event>
<event>
 8    1  0.1122465E+005  0.1043930E+01  0.7957747E-01            NaN
         13   -1    0    0    0    0  0.00000000000E+00  0.00000000000E+00  0.74505805969E-08  0.10566000000E+00  0.10566000000E+00 0. -1.
     999900   -1    0    0    0    0 -0.00000000000E+00 -0.00000000000E+00 -0.74505805969E-08  0.93827000000E+00  0.93827000000E+00 0.  1.
     999902    2    1    2    0    0  0.33805018942E-02  0.22520280453E-01 -0.67932258999E-02  0.10201657676E+01  0.10198889423E+01 0.  0.
     999903    2    3    3    0    0 -0.65833275408E-01 -0.76359244877E-01  0.76335923065E-01  0.12804572918E+00  0.20094307188E-01 0.  0.
         14    1    1    2    0    0 -0.33805018942E-02 -0.22520280453E-01  0.67932258999E-02  0.23764232427E-01  0.00000000000E+00 0. -1.
     999901    1    3    3    0    0  0.69213777303E-01  0.98879525330E-01 -0.83129148965E-01  0.89212003839E+00  0.88000000000E+00 0. -1.
        -11    1    4    4    0    0 -0.31825706244E-03 -0.60158590278E-02  0.83350272238E-02  0.10296875605E-01  0.51100000000E-03 0. -1.
         11    1    4    4    0    0 -0.65515018346E-01 -0.70343385849E-01  0.68000895841E-01  0.11774885357E+00  0.51100000000E-03 0.  1.
</event>
<event>
 8    1  0.1122465E+005  0.1043930E+01  0.7957747E-01            NaN
         13   -1    0    0    0    0  0.00000000000E+00  0.00000000000E+00  0.74505805969E-08  0.10566000000E+00  0.10566000000E+00 0. -1.
     999900   -1    0    0    0    0 -0.00000000000E+00 -0.00000000000E+00 -0.74505805969E-08  0.93827000000E+00  0.93827000000E+00 0. -1.
     999902    2    1    2    0    0  0.26764081518E-01  0.48189189776E-02  0.15626397309E-02  0.10166906923E+01  0.10163257273E+01 0.  0.
     999903    2    3    3    0    0 -0.87268657623E-01  0.29424624712E-02  0.87041889904E-01  0.12522353707E+00  0.21912712072E-01 0.  0.
         14    1    1    2    0    0 -0.26764081518E-01 -0.48189189776E-02 -0.15626397309E-02  0.27239307674E-01  0.00000000000E+00 0.  1.
     999901    1    3    3    0    0  0.11403273914E+00  0.18764565064E-02 -0.85479250173E-01  0.89146715525E+00  0.88000000000E+00 0. -1.
        -11    1    4    4    0    0 -0.29407993933E-01 -0.93607952104E-02  0.29341326209E-01  0.42586724914E-01  0.51100000000E-03 0. -1.
         11    1    4    4    0    0 -0.57860663690E-01  0.12303257682E-01  0.57700563695E-01  0.82636812160E-01  0.51100000000E-03 0.  1.
</event>
<event>
 8    1  0.1122465E+005  0.1043930E+01  0.7957747E-01            NaN
         13   -1    0    0    0    0  0.00000000000E+00  0.00000000000E+00  0.74505805969E-08  0.10566000000E+00  0.10566000000E+00 0. -1.
     999900   -1    0    0    0    0 -0.00000000000E+00 -0.00000000000E+00 -0.74505805969E-08  0.93827000000E+00  0.93827000000E+00 0. -1.
     999902    2    1    2    0    0  0.13828829116E-01  0.93910860376E-02 -0.16640346535E-01  0.10203433482E+01  0.10200706927E+01 0.  0.
     999903    2    3    3    0    0 -0.66513922707E-01 -0.91861229676E-01 -0.60074715824E-01  0.12984150447E+00  0.19678855884E-01 0.  0.
         14    1    1    2    0    0 -0.13828829116E-01 -0.93910860376E-02  0.16640346535E-01  0.23586651829E-01  0.00000000000E+00 0. -1.
     999901    1    3    3    0    0  0.80342751823E-01  0.10125231571E+00  0.43434369289E-01  0.89050184371E+00  0.88000000000E+00 0.  1.
        -11    1    4    4    0    0 -0.53483072991E-01 -0.69951173642E-01 -0.37215440709E-01  0.95597363659E-01  0.51100000000E-03 0.  1.
         11    1    4    4    0    0 -0.13030849717E-01 -0.21910056034E-01 -0.22859275115E-01  0.34244140806E-01  0.51100000000E-03 0. -1.
</event>
<event>
 8    1  0.1122465E+005  0.1043930E+01  0.7957747E-01            NaN
         13   -1    0    0    0    0  0.00000000000E+00  0.00000000000E+00  0.74505805969E-08  0.10566000000E+00  0.10566000000E+00 0.  1.
     999900   -1    0    0    0    0 -0.00000000000E+00 -0.00000000000E+00 -0.74505805969E-08  0.93827000000E+00  0.93827000000E+00 0.  1.
     999902    2    1    2    0    0 -0.21825313287E-01 -0.49253103954E-02  0.69596907090E-02  0.10204983915E+01  0.10202293501E+01 0.  0.
     999903    2    3    3    0    0  0.10949452854E+00 -0.63302818808E-01  0.14541229675E-01  0.12880880757E+00  0.19594971213E-01 0.  0.
         14    1    1    2    0    0  0.21825313287E-01  0.49253103954E-02 -0.69596907090E-02  0.23431608509E-01  0.00000000000E+00 0.  1.
     999901    1    3    3    0    0 -0.13131984183E+00  0.58377508413E-01 -0.75815389659E-02  0.89168958392E+00  0.88000000000E+00 0.  1.
        -11    1    4    4    0    0  0.54966566400E-01 -0.42374511190E-01  0.45791346910E-02  0.69556827241E-01  0.51100000000E-03 0.  1.
         11    1    4    4    0    0  0.54527962141E-01 -0.20928307619E-01  0.99620949839E-02  0.59251980325E-01  0.51100000000E-03 0. -1.
</event>
<event>
 8    1  0.1122465E+005  0.1043930E+01  0.7957747E-01            NaN
         13   -1    0    0    0    0  0.00000000000E+00  0.00000000000E+00  0.74505805969E-08  0.10566000000E+00  0.10566000000E+00 0.  1.
     999900   -1    0    0    0    0 -0.00000000000E+00 -0.00000000000E+00 -0.74505805969E-08  0.93827000000E+00  0.93827000000E+00 0.  1.
     999902    2    1    2    0    0 -0.22598482326E-01 -0.95364907727E-02  0.46133978084E-02  0.10189716447E+01  0.10186659380E+01 0.  0.
     999903    2    3    3    0    0 -0.57404048655E-01  0.11444938416E+00 -0.13479058571E-03  0.12958619962E+00  0.19966938346E-01 0.  0.
         14    1    1    2    0    0  0.22598482326E-01  0.95364907727E-02 -0.46133978084E-02  0.24958355295E-01  0.00000000000E+00 0. -1.
     999901    1    3    3    0    0  0.34805566329E-01 -0.12398587494E+00  0.47481883941E-02  0.88938544508E+00  0.88000000000E+00 0.  1.
        -11    1    4    4    0    0 -0.22469613035E-01  0.37787945932E-01 -0.89837835835E-02  0.44875180848E-01  0.51100000000E-03 0.  1.
         11    1    4    4    0    0 -0.34934435621E-01  0.76661438231E-01  0.88489929978E-02  0.84711018775E-01  0.51100000000E-03 0. -1.
</event>
<event>
 8    1  0.1122465E+005  0.1043930E+01  0.7957747E-01            NaN
         13   -1    0    0    0    0  0.00000000000E+00  0.00000000000E+00  0.74505805969E-08  0.10566000000E+00  0.10566000000E+00 0.  1.
     999900   -1    0    0    0    0 -0.00000000000E+00 -0.00000000000E+00 -0.74505805969E-08  0.93827000000E+00  0.93827000000E+00 0.  1.
     999902    2    1    2    0    0 -0.22010982492E-01 -0.67369466209E-02  0.41361809990E-02  0.10205424436E+01  0.10202744246E+01 0.  0.
     999903    2    3    3    0    0 -0.69563734723E-01  0.86695973262E-01  0.68593461366E-01  0.13197859349E+00  0.18920391912E-01 0.  0.
         14    1    1    2    0    0  0.22010982492E-01  0.67369466209E-02 -0.41361809990E-02  0.23387556377E-01  0.00000000000E+00 0. -1.
     999901    1    3    3    0    0  0.47552752231E-01 -0.93432919883E-01 -0.64457280367E-01  0.88856385013E+00  0.88000000000E+00 0. -1.
        -11    1    4    4    0    0 -0.15511543800E-01  0.32333992055E-01  0.25796535310E-01  0.44179377409E-01  0.51100000000E-03 0.  1.
         11    1    4    4    0    0 -0.54052190923E-01  0.54361981207E-01  0.42796926056E-01  0.87799216085E-01  0.51100000000E-03 0. -1.
</event>
<event>
 8    1  0.1122465E+005  0.1043930E+01  0.7957747E-01            NaN
         13   -1    0    0    0    0  0.00000000000E+00  0.00000000000E+00  0.74505805969E-08  0.10566000000E+00  0.10566000000E+00 0.  1.
     999900   -1    0    0    0    0 -0.00000000000E+00 -0.00000000000E+00 -0.74505805969E-08  0.93827000000E+00  0.93827000000E+00 0.  1.
     999902    2    1    2    0    0  0.19215021890E-01 -0.40947541723E-02 -0.11766466034E-01  0.10210294803E+01  0.10207726318E+01 0.  0.
     999903    2    3    3    0    0 -0.70568266481E-01  0.71562144185E-01  0.78164284101E-01  0.12868843289E+00  0.18709268707E-01 0.  0.
         14    1    1    2    0    0 -0.19215021890E-01  0.40947541723E-02  0.11766466034E-01  0.22900519665E-01  0.00000000000E+00 0. -1.
     999901    1    3    3    0    0  0.89783288371E-01 -0.75656898357E-01 -0.89930750136E-01  0.89234104745E+00  0.88000000000E+00 0.  1.
        -11    1    4    4    0    0 -0.23690389393E-01  0.33920676782E-01  0.24418696154E-01  0.48045610682E-01  0.51100000000E-03 0.  1.
         11    1    4    4    0    0 -0.46877877088E-01  0.37641467403E-01  0.53745587947E-01  0.80642822206E-01  0.51100000000E-03 0. -1.
</event>
<event>
 8    1  0.1122465E+005  0.1043930E+01  0.7957747E-01            NaN
         13   -1    0    0    0    0  0.00000000000E+00  0.00000000000E+00  0.74505805969E-08  0.10566000000E+00  0.10566000000E+00 0.  1.
     999900   -1    0    0    0    0 -0.00000000000E+00 -0.00000000000E+00 -0.74505805969E-08  0.93827000000E+00  0.93827000000E+00 0.  1.
     999902    2    1    2    0    0 -0.14886077610E-01  0.69820506482E-02 -0.17314670802E-01  0.10200523501E+01  0.10197728447E+01 0.  0.
     999903    2    3    3    0    0 -0.48442372958E-01 -0.11918572925E+00 -0.15497012238E-02  0.13028110543E+00  0.20466150182E-01 0.  0.
         14    1    1    2    0    0  0.14886077610E-01 -0.69820506482E-02  0.17314670802E-01  0.23877649861E-01  0.00000000000E+00 0.  1.
     999901    1    3    3    0    0  0.33556295348E-01  0.12616777990E+00 -0.15764969579E-01  0.88977124471E+00  0.88000000000E+00 0. -1.
        -11    1    4    4    0    0 -0.23176148727E-01 -0.76330287610E-01 -0.77323127131E-02  0.80146718319E-01  0.51100000000E-03 0.  1.
         11    1    4    4    0    0 -0.25266224232E-01 -0.42855441643E-01  0.61826114893E-02  0.50134387113E-01  0.51100000000E-03 0. -1.
</event>
<event>
 8    1  0.1122465E+005  0.1043930E+01  0.7957747E-01            NaN
         13   -1    0    0    0    0  0.00000000000E+00  0.00000000000E+00  0.74505805969E-08  0.10566000000E+00  0.10566000000E+00 0.  1.
     999900   -1    0    0    0    0 -0.00000000000E+00 -0.00000000000E+00 -0.74505805969E-08  0.93827000000E+00  0.93827000000E+00 0. -1.
     999902    2    1    2    0    0 -0.22348374275E-02  0.52658947480E-02 -0.20974643165E-01  0.10221892594E+01  0.10219580335E+01 0.  0.
     999903    2    3    3    0    0 -0.75358156760E-01  0.10598148561E+00  0.16441048447E-01  0.13264410369E+00  0.20327889394E-01 0.  0.
         14    1    1    2    0    0  0.22348374275E-02 -0.52658947480E-02  0.20974643165E-01  0.21740740597E-01  0.00000000000E+00 0. -1.
     999901    1    3    3    0    0  0.73123319332E-01 -0.10071559086E+00 -0.37415691612E-01  0.88954515571E+00  0.88000000000E+00 0. -1.
        -11    1    4    4    0    0 -0.36304133624E-01  0.66759828358E-01  0.13740863977E-01  0.77226532127E-01  0.51100000000E-03 0.  1.
         11    1    4    4    0    0 -0.39054023136E-01  0.39221657252E-01  0.27001844703E-02  0.55417571563E-01  0.51100000000E-03 0. -1.
</event>
<event>
 7    1  0.1122465E+005  0.1043930E+01  0.7957747E-01            NaN
         13   -1    0    0    0    0  0.00000000000E+00  0.00000000000E+00  0.74505805969E-08  0.10566000000E+00  0.10566000000E+00 0.  1.
     999900   -1    0    0    0    0 -0.00000000000E+00 -0.00000000000E+00 -0.74505805969E-08  0.93827000000E+00  0.93827000000E+00 0. -1.
     999903    2    1    2    0    0 -0.20170247178E-01 -0.86891783673E-01 -0.64578831847E-01  0.11132046783E+00  0.16272679362E-01 0.  0.
         14    1    1    2    0    0 -0.13278810219E-02 -0.35722068906E-01  0.23737820109E-01  0.42910529925E-01  0.00000000000E+00 0.  1.
     999901    1    1    2    0    0  0.21498128200E-01  0.12261385258E+00  0.40841011738E-01  0.88969900225E+00  0.88000000000E+00 0.  1.
        -11    1    3    3    0    0 -0.83776598675E-02 -0.57269461914E-01 -0.48970989413E-01  0.75818173137E-01  0.51100000000E-03 0.  1.
         11    1    3    3    0    0 -0.11792587311E-01 -0.29622321759E-01 -0.15607842434E-01  0.35502294691E-01  0.51100000000E-03 0. -1.
</event>
<event>
 8    1  0.1122465E+005  0.1043930E+01  0.7957747E-01            NaN
         13   -1    0    0    0    0  0.00000000000E+00  0.00000000000E+00  0.74505805969E-08  0.10566000000E+00  0.10566000000E+00 0.  1.
     999900   -1    0    0    0    0 -0.00000000000E+00 -0.00000000000E+00 -0.74505805969E-08  0.93827000000E+00  0.93827000000E+00 0.  1.
     999902    2    1    2    0    0  0.16812084512E-01 -0.68442903156E-02  0.14436437555E-01  0.10207373023E+01  0.10204737817E+01 0.  0.
     999903    2    3    3    0    0  0.67253432483E-01 -0.59057256593E-01 -0.93208821363E-01  0.13121044766E+00  0.22748922107E-01 0.  0.
         14    1    1    2    0    0 -0.16812084512E-01  0.68442903156E-02 -0.14436437555E-01  0.23192697663E-01  0.00000000000E+00 0. -1.
     999901    1    3    3    0    0 -0.50441347971E-01  0.52212966277E-01  0.10764525892E+00  0.88952685468E+00  0.88000000000E+00 0. -1.
        -11    1    4    4    0    0  0.55543688897E-01 -0.57197552185E-01 -0.74910449142E-01  0.10940063009E+00  0.51100000000E-03 0. -1.
         11    1    4    4    0    0  0.11709743586E-01 -0.18597044078E-02 -0.18298372221E-01  0.21809817566E-01  0.51100000000E-03 0.  1.
</event>
<event>
 8    1  0.1122465E+005  0.1043930E+01  0.7957747E-01            NaN
         13   -1    0    0    0    0  0.00000000000E+00  0.00000000000E+00  0.74505805969E-08  0.10566000000E+00  0.10566000000E+00 0. -1.
     999900   -1    0    0    0    0 -0.00000000000E+00 -0.00000000000E+00 -0.74505805969E-08  0.93827000000E+00  0.93827000000E+00 0. -1.
     999902    2    1    2    0    0  0.15108141679E-01 -0.11577950370E-01 -0.14781339748E-01  0.10198303551E+01  0.10195455656E+01 0.  0.
     999903    2    3    3    0    0 -0.50231983371E-01  0.78403048707E-01 -0.88201659035E-01  0.12979863913E+00  0.19946525109E-01 0.  0.
         14    1    1    2    0    0 -0.15108141679E-01  0.11577950370E-01  0.14781339748E-01  0.24099644905E-01  0.00000000000E+00 0.  1.
     999901    1    3    3    0    0  0.65340125050E-01 -0.89980999078E-01  0.73420319287E-01  0.89003171596E+00  0.88000000000E+00 0.  1.
        -11    1    4    4    0    0 -0.20940589251E-01  0.23641070613E-01 -0.19200249060E-01  0.36963754988E-01  0.51100000000E-03 0.  1.
         11    1    4    4    0    0 -0.29291394120E-01  0.54761978095E-01 -0.69001409975E-01  0.92834884143E-01  0.51100000000E-03 0. -1.
</event>
<event>
 8    1  0.1122465E+005  0.1043930E+01  0.7957747E-01            NaN
         13   -1    0    0    0    0  0.00000000000E+00  0.00000000000E+00  0.74505805969E-08  0.10566000000E+00  0.10566000000E+00 0.  1.
     999900   -1    0    0    0    0 -0.00000000000E+00 -0.00000000000E+00 -0.74505805969E-08  0.93827000000E+00  0.93827000000E+00 0.  1.
     999902    2    1    2    0    0  0.22552166940E-02 -0.23669088610E-01  0.90966010722E-02  0.10184729792E+01  0.10181547767E+01 0.  0.
     999903    2    3    3    0    0 -0.98298052323E-01  0.36540445375E-01 -0.69350410654E-01  0.12724344559E+00  0.19588357493E-01 0.  0.
         14    1    1    2    0    0 -0.22552166940E-02  0.23669088610E-01 -0.90966010722E-02  0.25457020820E-01  0.00000000000E+00 0.  1.
     999901    1    3    3    0    0  0.10055326902E+00 -0.60209533985E-01  0.78447011726E-01  0.89122953359E+00  0.88000000000E+00 0. -1.
        -11    1    4    4    0    0 -0.40470075111E-01  0.23487465866E-01 -0.37351961999E-01  0.59874186579E-01  0.51100000000E-03 0.  1.
         11    1    4    4    0    0 -0.57827977213E-01  0.13052979509E-01 -0.31998448655E-01  0.67369259012E-01  0.51100000000E-03 0. -1.
</event>
<event>
 8    1  0.1122465E+005  0.1043930E+01  0.7957747E-01            NaN
         13   -1    0    0    0    0  0.00000000000E+00  0.00000000000E+00  0.74505805969E-08  0.10566000000E+00  0.10566000000E+00 0.  1.
     999900   -1    0    0    0    0 -0.00000000000E+00 -0.00000000000E+00 -0.74505805969E-08  0.93827000000E+00  0.93827000000E+00 0.  1.
     999902    2    1    2    0    0 -0.16848698170E-01 -0.14796070551E-01 -0.15712669075E-01  0.10165495270E+01  0.10161807174E+01 0.  0.
     999903    2    3    3    0    0  0.51930664524E-01 -0.64523607164E-01  0.92630929473E-01  0.12585217996E+00  0.19954756480E-01 0.  0.
         14    1    1    2    0    0  0.16848698170E-01  0.14796070551E-01  0.15712669075E-01  0.27380473028E-01  0.00000000000E+00 0.  1.
     999901    1    3    3    0    0 -0.68779362694E-01  0.49727536613E-01 -0.10834359855E+00  0.89069734701E+00  0.88000000000E+00 0.  1.
        -11    1    4    4    0    0  0.44550397416E-01 -0.48646679654E-01  0.61795285551E-01  0.90388914081E-01  0.51100000000E-03 0. -1.
         11    1    4    4    0    0  0.73802671083E-02 -0.15876927509E-01  0.30835643921E-01  0.35463265878E-01  0.51100000000E-03 0.  1.
</event>
<event>
 8    1  0.1122465E+005  0.1043930E+01  0.7957747E-01            NaN
         13   -1    0    0    0    0  0.00000000000E+00  0.00000000000E+00  0.74505805969E-08  0.10566000000E+00  0.10566000000E+00 0. -1.
     999900   -1    0    0    0    0 -0.00000000000E+00 -0.00000000000E+00 -0.74505805969E-08  0.93827000000E+00  0.93827000000E+00 0. -1.
     999902    2    1    2    0    0 -0.48883924910E-02 -0.22512860281E-01 -0.38332986809E-02  0.10205757833E+01  0.10203085367E+01 0.  0.
     999903    2    3    3    0    0 -0.91018466672E-01 -0.49902982830E-01  0.79063964160E-01  0.13207110425E+00  0.20420508794E-01 0.  0.
         14    1    1    2    0    0  0.48883924910E-02  0.22512860281E-01  0.38332986809E-02  0.23354216706E-01  0.00000000000E+00 0. -1.
     999901    1    3    3    0    0  0.86130074180E-01  0.27390122549E-01 -0.82897262841E-01  0.88850467904E+00  0.88000000000E+00 0.  1.
        -11    1    4    4    0    0 -0.19722041503E-01 -0.16300180399E-01  0.29086258183E-01  0.38741790590E-01  0.51100000000E-03 0.  1.
         11    1    4    4    0    0 -0.71296425168E-01 -0.33602802431E-01  0.49977705977E-01  0.93329313663E-01  0.51100000000E-03 0. -1.
</event>
<event>
 8    1  0.1122465E+005  0.1043930E+01  0.7957747E-01            NaN
         13   -1    0    0    0    0  0.00000000000E+00  0.00000000000E+00  0.74505805969E-08  0.10566000000E+00  0.10566000000E+00 0. -1.
     999900   -1    0    0    0    0 -0.00000000000E+00 -0.00000000000E+00 -0.74505805969E-08  0.93827000000E+00  0.93827000000E+00 0.  1.
     999902    2    1    2    0    0 -0.70563378928E-02  0.18189930797E-01 -0.16473999881E-01  0.10183945705E+01  0.10180743799E+01 0.  0.
     999903    2    3    3    0    0 -0.35429290780E-01 -0.79949505934E-01  0.88803169410E-01  0.12625127717E+00  0.20154998000E-01 0.  0.
         14    1    1    2    0    0  0.70563378928E-02 -0.18189930797E-01  0.16473999881E-01  0.25535429484E-01  0.00000000000E+00 0.  1.
     999901    1    3    3    0    0  0.28372952887E-01  0.98139436731E-01 -0.10527716929E+00  0.89214329335E+00  0.88000000000E+00 0.  1.
        -11    1    4    4    0    0 -0.58887083471E-02 -0.92589132661E-02  0.33580919161E-02  0.11486612346E-01  0.51100000000E-03 0. -1.
         11    1    4    4    0    0 -0.29540582433E-01 -0.70690592668E-01  0.85445077494E-01  0.11476466482E+00  0.51100000000E-03 0.  1.
</event>
<event>
 8    1  0.1122465E+005  0.1043930E+01  0.7957747E-01            NaN
         13   -1    0    0    0    0  0.00000000000E+00  0.00000000000E+00  0.74505805969E-08  0.10566000000E+00  0.10566000000E+00 0. -1.
     999900   -1    0    0    0    0 -0.00000000000E+00 -0.00000000000E+00 -0.74505805969E-08  0.93827000000E+00  0.93827000000E+00 0. -1.
     999902    2    1    2    0    0  0.42109596469E-02  0.23832945052E-01  0.36108518470E-02  0.10194600245E+01  0.10191663072E+01 0.  0.
     999903    2    3    3    0    0  0.11804159893E+00 -0.48097342697E-01 -0.31502261665E-02  0.12919203510E+00  0.20820291951E-01 0.  0.
         14    1    1    2    0    0 -0.42109596469E-02 -0.23832945052E-01 -0.36108518470E-02  0.24469975522E-01  0.00000000000E+00 0.  1.
     999901    1    3    3    0    0 -0.11383063928E+00  0.71930287749E-01  0.67610780135E-02  0.89026798938E+00  0.88000000000E+00 0.  1.
        -11    1    4    4    0    0  0.59859490271E-01 -0.26342998401E-01  0.86241235333E-02  0.65967785835E-01  0.51100000000E-03 0.  1.
         11    1    4    4    0    0  0.58182108655E-01 -0.21754344296E-01 -0.11774349700E-01  0.63224249265E-01  0.51100000000E-03 0. -1.
</event>
<event>
 8    1  0.1122465E+005  0.1043930E+01  0.7957747E-01            NaN
         13   -1    0    0    0    0  0.00000000000E+00  0.00000000000E+00  0.74505805969E-08  0.10566000000E+00  0.10566000000E+00 0.  1.
     999900   -1    0    0    0    0 -0.00000000000E+00 -0.00000000000E+00 -0.74505805969E-08  0.93827000000E+00  0.93827000000E+00 0. -1.
     999902    2    1    2    0    0  0.62534153147E-02 -0.14649809433E-01  0.18009985048E-01  0.10198866708E+01  0.10196032265E+01 0.  0.
     999903    2    3    3    0    0 -0.35439996788E-01 -0.12044823218E+00  0.36338125438E-01  0.13238029467E+00  0.20983637681E-01 0.  0.
         14    1    1    2    0    0 -0.62534153147E-02  0.14649809433E-01 -0.18009985048E-01  0.24043329241E-01  0.00000000000E+00 0. -1.
     999901    1    3    3    0    0  0.41693412103E-01  0.10579842274E+00 -0.18328140390E-01  0.88750637609E+00  0.88000000000E+00 0. -1.
        -11    1    4    4    0    0 -0.21891996501E-01 -0.10236693056E+00  0.29168034883E-01  0.10867052665E+00  0.51100000000E-03 0.  1.
         11    1    4    4    0    0 -0.13548000287E-01 -0.18081301614E-01  0.71700905549E-02  0.23709768016E-01  0.51100000000E-03 0. -1.
</event>
<event>
 8    1  0.1122465E+005  0.1043930E+01  0.7957747E-01            NaN
         13   -1    0    0    0    0  0.00000000000E+00  0.00000000000E+00  0.74505805969E-08  0.10566000000E+00  0.10566000000E+00 0. -1.
     999900   -1    0    0    0    0 -0.00000000000E+00 -0.00000000000E+00 -0.74505805969E-08  0.93827000000E+00  0.93827000000E+00 0. -1.
     999902    2    1    2    0    0  0.33176878679E-02 -0.20807229159E-01  0.11278807623E-01  0.10200310599E+01  0.10197510499E+01 0.  0.
     999903    2    3    3    0    0 -0.70401993357E-01 -0.10643986362E+00 -0.26891445124E-01  0.13198573012E+00  0.20278015184E-01 0.  0.
         14    1    1    2    0    0 -0.33176878679E-02  0.20807229159E-01 -0.11278807623E-01  0.23898940133E-01  0.00000000000E+00 0.  1.
     999901    1    3    3    0    0  0.73719681224E-01  0.85632634460E-01  0.38170252747E-01  0.88804532974E+00  0.88000000000E+00 0.  1.
        -11    1    4    4    0    0 -0.21611031934E-01 -0.50613290662E-01 -0.13002572925E-01  0.56551480233E-01  0.51100000000E-03 0. -1.
         11    1    4    4    0    0 -0.48790961423E-01 -0.55826572956E-01 -0.13888872199E-01  0.75434249891E-01  0.51100000000E-03 0.  1.
</event>
<event>
 8    1  0.1122465E+005  0.1043930E+01  0.7957747E-01            NaN
         13   -1    0    0    0    0  0.00000000000E+00  0.00000000000E+00  0.74505805969E-08  0.10566000000E+00  0.10566000000E+00 0.  1.
     999900   -1    0    0    0    0 -0.00000000000E+00 -0.00000000000E+00 -0.74505805969E-08  0.93827000000E+00  0.93827000000E+00 0. -1.
     999902    2    1    2    0    0 -0.17953267633E-01 -0.14104069881E-01  0.45284536029E-02  0.10206544442E+01  0.10203890155E+01 0.  0.
     999903    2    3    3    0    0 -0.69786539690E-01  0.10488092926E+00 -0.21590566158E-01  0.13075202185E+00  0.27563893497E-01 0.  0.
         14    1    1    2    0    0  0.17953267633E-01  0.14104069881E-01 -0.45284536029E-02  0.23275555803E-01  0.00000000000E+00 0. -1.
     999901    1    3    3    0    0  0.51833272057E-01 -0.11898499914E+00  0.26119019761E-01  0.88990242235E+00  0.88000000000E+00 0. -1.
        -11    1    4    4    0    0 -0.42717461050E-01  0.45799154165E-01 -0.12125712831E-02  0.62642441291E-01  0.51100000000E-03 0. -1.
         11    1    4    4    0    0 -0.27069078639E-01  0.59081775098E-01 -0.20377994875E-01  0.68109580554E-01  0.51100000000E-03 0.  1.
</event>
<event>
 8    1  0.1122465E+005  0.1043930E+01  0.7957747E-01            NaN
         13   -1    0    0    0    0  0.00000000000E+00  0.00000000000E+00  0.74505805969E-08  0.10566000000E+00  0.10566000000E+00 0. -1.
     999900   -1    0    0    0    0 -0.00000000000E+00 -0.00000000000E+00 -0.74505805969E-08  0.93827000000E+00  0.93827000000E+00 0.  1.
     999902    2    1    2    0    0 -0.21746284480E-01 -0.21639305049E-02 -0.10427518522E-01  0.10197160242E+01  0.10194284935E+01 0.  0.
     999903    2    3    3    0    0  0.79917858412E-01 -0.34258107258E-01 -0.93739134761E-01  0.12937538174E+00  0.19760617600E-01 0.  0.
         14    1    1    2    0    0  0.21746284480E-01  0.21639305049E-02  0.10427518522E-01  0.24213975849E-01  0.00000000000E+00 0.  1.
     999901    1    3    3    0    0 -0.10166414289E+00  0.32094176754E-01  0.83311616240E-01  0.89034064241E+00  0.88000000000E+00 0. -1.
        -11    1    4    4    0    0  0.50289132587E-01 -0.24064426426E-01 -0.46050168581E-01  0.72311635460E-01  0.51100000000E-03 0.  1.
         11    1    4    4    0    0  0.29628725826E-01 -0.10193680832E-01 -0.47688966180E-01  0.57063746278E-01  0.51100000000E-03 0. -1.
</event>
<event>
 8    1  0.1122465E+005  0.1043930E+01  0.7957747E-01            NaN
         13   -1    0    0    0    0  0.00000000000E+00  0.00000000000E+00  0.74505805969E-08  0.10566000000E+00  0.10566000000E+00 0.  1.
     999900   -1    0    0    0    0 -0.00000000000E+00 -0.00000000000E+00 -0.74505805969E-08  0.93827000000E+00  0.93827000000E+00 0.  1.
     999902    2    1    2    0    0  0.18938764158E-01 -0.62077645245E-02  0.11007487382E-01  0.10211620860E+01  0.10209082368E+01 0.  0.
     999903    2    3    3    0    0 -0.11831793578E+00  0.26043670856E-01  0.40676061347E-01  0.12944476476E+00  0.20591222386E-01 0.  0.
         14    1    1    2    0    0 -0.18938764158E-01  0.62077645245E-02 -0.11007487382E-01  0.22767913973E-01  0.00000000000E+00 0.  1.
     999901    1    3    3    0    0  0.13725669994E+00 -0.32251435381E-01 -0.29668573966E-01  0.89171732126E+00  0.88000000000E+00 0.  1.
        -11    1    4    4    0    0 -0.83637058813E-01  0.27443758352E-01  0.32020275622E-01  0.93668973792E-01  0.51100000000E-03 0.  1.
         11    1    4    4    0    0 -0.34680876965E-01 -0.14000874959E-02  0.86557857258E-02  0.35775790970E-01  0.51100000000E-03 0. -1.
</event>
<event>
 8    1  0.1122465E+005  0.1043930E+01  0.7957747E-01            NaN
         13   -1    0    0    0    0  0.00000000000E+00  0.00000000000E+00  0.74505805969E-08  0.10566000000E+00  0.10566000000E+00 0.  1.
     999900   -1    0    0    0    0 -0.00000000000E+00 -0.00000000000E+00 -0.74505805969E-08  0.93827000000E+00  0.93827000000E+00 0.  1.
     999902    2    1    2    0    0 -0.20031076653E-01 -0.78594749029E-02  0.95784789253E-02  0.10203766003E+01  0.10201047220E+01 0.  0.
     999903    2    3    3    0    0 -0.28950844981E-01  0.83954327647E-01 -0.92856221099E-01  0.12964532526E+00  0.17296011403E-01 0.  0.
         14    1    1    2    0    0  0.20031076653E-01  0.78594749029E-02 -0.95784789253E-02  0.23553399673E-01  0.00000000000E+00 0. -1.
     999901    1    3    3    0    0  0.89197683281E-02 -0.91813802550E-01  0.10243470002E+00  0.89073127506E+00  0.88000000000E+00 0. -1.
        -11    1    4    4    0    0 -0.21922063823E-01  0.38417513875E-01 -0.49341998986E-01  0.66267459884E-01  0.51100000000E-03 0. -1.
         11    1    4    4    0    0 -0.70287811580E-02  0.45536813772E-01 -0.43514222113E-01  0.63377865380E-01  0.51100000000E-03 0.  1.
</event>
<event>
 8    1  0.1122465E+005  0.1043930E+01  0.7957747E-01            NaN
         13   -1    0    0    0    0  0.00000000000E+00  0.00000000000E+00  0.74505805969E-08  0.10566000000E+00  0.10566000000E+00 0. -1.
     999900   -1    0    0    0    0 -0.00000000000E+00 -0.00000000000E+00 -0.74505805969E-08  0.93827000000E+00  0.93827000000E+00 0. -1.
     999902    2    1    2    0    0  0.21661566328E-01  0.94496088796E-02 -0.87697296526E-02  0.10187223281E+01  0.10184104060E+01 0.  0.
     999903    2    3    3    0    0 -0.12218471983E+00  0.17000357418E-01  0.18471318998E-01  0.12659518326E+00  0.21610943708E-01 0.  0.
         14    1    1    2    0    0 -0.21661566328E-01 -0.94496088796E-02  0.87697296526E-02  0.25207671887E-01  0.00000000000E+00 0. -1.
     999901    1    3    3    0    0  0.14384628616E+00 -0.75507485388E-02 -0.27241048651E-01  0.89212714485E+00  0.88000000000E+00 0. -1.
        -11    1    4    4    0    0 -0.86066855534E-01  0.21087995774E-01  0.16885484568E-01  0.90208579954E-01  0.51100000000E-03 0.  1.
         11    1    4    4    0    0 -0.36117864296E-01 -0.40876383552E-02  0.15858344306E-02  0.36386603310E-01  0.51100000000E-03 0. -1.
</event>
<event>
 7    1  0.1423843E+005  0.1043930E+01  0.7957747E-01            NaN
         13   -1    0    0    0    0  0.00000000000E+00  0.00000000000E+00  0.74505805969E-08  0.10566000000E+00  0.10566000000E+00 0.  1.
     999900   -1    0    0    0    0 -0.00000000000E+00 -0.00000000000E+00 -0.74505805969E-08  0.93827000000E+00  0.93827000000E+00 0.  1.
     999903    2    1    2    0    0  0.84653644407E-01 -0.31303548724E-02 -0.78176878900E-01  0.11699883609E+00  0.20026597760E-01 0.  0.
         14    1    1    2    0    0 -0.38884555077E-01  0.18664193259E-02  0.20143042347E-01  0.43831886791E-01  0.00000000000E+00 0.  1.
     999901    1    1    2    0    0 -0.45769089329E-01  0.12639355466E-02  0.58033836553E-01  0.88309927712E+00  0.88000000000E+00 0. -1.
        -11    1    3    3    0    0  0.42800327060E-01 -0.11469030438E-01 -0.41887342112E-01  0.60977185945E-01  0.51100000000E-03 0.  1.
         11    1    3    3    0    0  0.41853317347E-01  0.83386755657E-02 -0.36289536789E-01  0.56021650140E-01  0.51100000000E-03 0. -1.
</event>
<event>
 8    1  0.1122465E+005  0.1043930E+01  0.7957747E-01            NaN
         13   -1    0    0    0    0  0.00000000000E+00  0.00000000000E+00  0.74505805969E-08  0.10566000000E+00  0.10566000000E+00 0.  1.
     999900   -1    0    0    0    0 -0.00000000000E+00 -0.00000000000E+00 -0.74505805969E-08  0.93827000000E+00  0.93827000000E+00 0. -1.
     999902    2    1    2    0    0 -0.17293399786E-01  0.13626156064E-02 -0.16473971447E-01  0.10200069957E+01  0.10197264149E+01 0.  0.
     999903    2    3    3    0    0 -0.10465720503E+00 -0.69259317054E-01 -0.37696981267E-01  0.13261175799E+00  0.20367434702E-01 0.  0.
         14    1    1    2    0    0  0.17293399786E-01 -0.13626156064E-02  0.16473971447E-01  0.23923004257E-01  0.00000000000E+00 0.  1.
     999901    1    3    3    0    0  0.87363805248E-01  0.70621932661E-01  0.21223009821E-01  0.88739523775E+00  0.88000000000E+00 0. -1.
        -11    1    4    4    0    0 -0.47719530973E-01 -0.32444926477E-01 -0.27918821511E-01  0.64105761098E-01  0.51100000000E-03 0.  1.
         11    1    4    4    0    0 -0.56937674061E-01 -0.36814390577E-01 -0.97781597566E-02  0.68505996893E-01  0.51100000000E-03 0. -1.
</event>
<event>
 8    1  0.1122465E+005  0.1043930E+01  0.7957747E-01            NaN
         13   -1    0    0    0    0  0.00000000000E+00  0.00000000000E+00  0.74505805969E-08  0.10566000000E+00  0.10566000000E+00 0.  1.
     999900   -1    0    0    0    0 -0.00000000000E+00 -0.00000000000E+00 -0.74505805969E-08  0.93827000000E+00  0.93827000000E+00 0. -1.
     999902    2    1    2    0    0 -0.22187100949E-01  0.80486792591E-02  0.11302303528E-02  0.10203010748E+01  0.10200274296E+01 0.  0.
     999903    2    3    3    0    0  0.70663202793E-01  0.57600445499E-01 -0.89535835172E-01  0.12940439622E+00  0.20438503596E-01 0.  0.
         14    1    1    2    0    0  0.22187100949E-01 -0.80486792591E-02 -0.11302303528E-02  0.23628925218E-01  0.00000000000E+00 0.  1.
     999901    1    3    3    0    0 -0.92850303742E-01 -0.49551766240E-01  0.90666065525E-01  0.89089667857E+00  0.88000000000E+00 0.  1.
        -11    1    4    4    0    0  0.43679671379E-01  0.29111515722E-01 -0.63133845656E-01  0.82106867117E-01  0.51100000000E-03 0.  1.
         11    1    4    4    0    0  0.26983531415E-01  0.28488929777E-01 -0.26401989516E-01  0.47297529099E-01  0.51100000000E-03 0. -1.
</event>
<event>
 8    1  0.1122465E+005  0.1043930E+01  0.7957747E-01            NaN
         13   -1    0    0    0    0  0.00000000000E+00  0.00000000000E+00  0.74505805969E-08  0.10566000000E+00  0.10566000000E+00 0. -1.
     999900   -1    0    0    0    0 -0.00000000000E+00 -0.00000000000E+00 -0.74505805969E-08  0.93827000000E+00  0.93827000000E+00 0. -1.
     999902    2    1    2    0    0 -0.16709703163E-01  0.16857343108E-01 -0.15250652168E-02  0.10201453406E+01  0.10198680336E+01 0.  0.
     999903    2    3    3    0    0  0.97944301293E-01 -0.62811498030E-01 -0.49395187602E-01  0.12785378874E+00  0.19192089450E-01 0.  0.
         14    1    1    2    0    0  0.16709703163E-01 -0.16857343108E-01  0.15250652168E-02  0.23784659350E-01  0.00000000000E+00 0.  1.
     999901    1    3    3    0    0 -0.11465400446E+00  0.79668841138E-01  0.47870122385E-01  0.89229155191E+00  0.88000000000E+00 0. -1.
        -11    1    4    4    0    0  0.25176731630E-01 -0.25573394433E-01 -0.10973600558E-01  0.37530618815E-01  0.51100000000E-03 0. -1.
         11    1    4    4    0    0  0.72767569663E-01 -0.37238103597E-01 -0.38421587044E-01  0.90323169929E-01  0.51100000000E-03 0.  1.
</event>
<event>
 8    1  0.1122465E+005  0.1043930E+01  0.7957747E-01            NaN
         13   -1    0    0    0    0  0.00000000000E+00  0.00000000000E+00  0.74505805969E-08  0.10566000000E+00  0.10566000000E+00 0.  1.
     999900   -1    0    0    0    0 -0.00000000000E+00 -0.00000000000E+00 -0.74505805969E-08  0.93827000000E+00  0.93827000000E+00 0. -1.
     999902    2    1    2    0    0  0.32581071075E-02 -0.21785790887E-01 -0.94807852386E-02  0.10199483146E+01  0.10196663391E+01 0.  0.
     999903    2    3    3    0    0 -0.11418435676E+00  0.51991530549E-01  0.19710453734E-01  0.12860777702E+00  0.20255165891E-01 0.  0.
         14    1    1    2    0    0 -0.32581071075E-02  0.21785790887E-01  0.94807852386E-02  0.23981685413E-01  0.00000000000E+00 0. -1.
     999901    1    3    3    0    0  0.11744246387E+00 -0.73777321436E-01 -0.29191238973E-01  0.89134053757E+00  0.88000000000E+00 0.  1.
        -11    1    4    4    0    0 -0.85636071046E-01  0.47773868331E-01  0.17951836671E-01  0.99691567950E-01  0.51100000000E-03 0.  1.
         11    1    4    4    0    0 -0.28548285717E-01  0.42176622180E-02  0.17586170637E-02  0.28916209069E-01  0.51100000000E-03 0. -1.
</event>
<event>
 8    1  0.1122465E+005  0.1043930E+01  0.7957747E-01            NaN
         13   -1    0    0    0    0  0.00000000000E+00  0.00000000000E+00  0.74505805969E-08  0.10566000000E+00  0.10566000000E+00 0. -1.
     999900   -1    0    0    0    0 -0.00000000000E+00 -0.00000000000E+00 -0.74505805969E-08  0.93827000000E+00  0.93827000000E+00 0. -1.
     999902    2    1    2    0    0  0.23162958136E-01 -0.18590810771E-02 -0.53227676596E-02  0.10200907327E+01  0.10198121357E+01 0.  0.
     999903    2    3    3    0    0  0.12111880191E+00  0.27110032540E-01 -0.44593665381E-01  0.13331186491E+00  0.19461251058E-01 0.  0.
         14    1    1    2    0    0 -0.23162958136E-01  0.18590810771E-02  0.53227676596E-02  0.23839267346E-01  0.00000000000E+00 0.  1.
     999901    1    3    3    0    0 -0.97955843774E-01 -0.28969113618E-01  0.39270897721E-01  0.88677886775E+00  0.88000000000E+00 0.  1.
        -11    1    4    4    0    0  0.94225851041E-01  0.16818618174E-01 -0.41571488294E-01  0.10435433236E+00  0.51100000000E-03 0.  1.
         11    1    4    4    0    0  0.26892950869E-01  0.10291414367E-01 -0.30221770865E-02  0.28957532551E-01  0.51100000000E-03 0. -1.
</event>
<event>
 8    1  0.1122465E+005  0.1043930E+01  0.7957747E-01            NaN
         13   -1    0    0    0    0  0.00000000000E+00  0.00000000000E+00  0.74505805969E-08  0.10566000000E+00  0.10566000000E+00 0. -1.
     999900   -1    0    0    0    0 -0.00000000000E+00 -0.00000000000E+00 -0.74505805969E-08  0.93827000000E+00  0.93827000000E+00 0.  1.
     999902    2    1    2    0    0  0.93819668568E-02 -0.24511410949E-01  0.87795859917E-02  0.10162548903E+01  0.10158779899E+01 0.  0.
     999903    2    3    3    0    0  0.10770189276E+00  0.50220063591E-01  0.40512059431E-01  0.12706506183E+00  0.19558897938E-01 0.  0.
         14    1    1    2    0    0 -0.93819668568E-02  0.24511410949E-01 -0.87795859917E-02  0.27675109738E-01  0.00000000000E+00 0.  1.
     999901    1    3    3    0    0 -0.98319925898E-01 -0.74731474540E-01 -0.31732473440E-01  0.88918982843E+00  0.88000000000E+00 0. -1.
        -11    1    4    4    0    0  0.45379116954E-01  0.10680995790E-01  0.15238780159E-01  0.49049255533E-01  0.51100000000E-03 0. -1.
         11    1    4    4    0    0  0.62322775801E-01  0.39539067801E-01  0.25273279273E-01  0.78015806298E-01  0.51100000000E-03 0.  1.
</event>
<event>
 8    1  0.1122465E+005  0.1043930E+01  0.7957747E-01            NaN
         13   -1    0    0    0    0  0.00000000000E+00  0.00000000000E+00  0.74505805969E-08  0.10566000000E+00  0.10566000000E+00 0. -1.
     999900   -1    0    0    0    0 -0.00000000000E+00 -0.00000000000E+00 -0.74505805969E-08  0.93827000000E+00  0.93827000000E+00 0. -1.
     999902    2    1    2    0    0 -0.26472885425E-01  0.22246195750E-01 -0.14244370253E-01  0.10065320191E+01  0.10058370129E+01 0.  0.
     999903    2    3    3    0    0  0.62764953752E-01 -0.54286569800E-02  0.93960585534E-01  0.11499536714E+00  0.20650256501E-01 0.  0.
         14    1    1    2    0    0  0.26472885425E-01 -0.22246195750E-01  0.14244370253E-01  0.37397980854E-01  0.00000000000E+00 0. -1.
     999901    1    3    3    0    0 -0.89237839177E-01  0.27674852730E-01 -0.10820495579E+00  0.89153665201E+00  0.88000000000E+00 0. -1.
        -11    1    4    4    0    0  0.34010457092E-01 -0.78139857300E-02  0.35403106615E-01  0.49713284377E-01  0.51100000000E-03 0. -1.
         11    1    4    4    0    0  0.28754496660E-01  0.23853287501E-02  0.58557478919E-01  0.65282082762E-01  0.51100000000E-03 0.  1.
</event>
<event>
 8    1  0.1122465E+005  0.1043930E+01  0.7957747E-01            NaN
         13   -1    0    0    0    0  0.00000000000E+00  0.00000000000E+00  0.74505805969E-08  0.10566000000E+00  0.10566000000E+00 0. -1.
     999900   -1    0    0    0    0 -0.00000000000E+00 -0.00000000000E+00 -0.74505805969E-08  0.93827000000E+00  0.93827000000E+00 0. -1.
     999902    2    1    2    0    0 -0.87339423878E-02  0.20945752323E-01  0.85215149417E-03  0.10212202564E+01  0.10209677173E+01 0.  0.
     999903    2    3    3    0    0  0.13011773544E-01  0.47722247439E-01  0.12105770134E+00  0.13237874579E+00  0.20553494381E-01 0.  0.
         14    1    1    2    0    0  0.87339423878E-02 -0.20945752323E-01 -0.85215149417E-03  0.22709743551E-01  0.00000000000E+00 0.  1.
     999901    1    3    3    0    0 -0.21745715932E-01 -0.26776495117E-01 -0.12020554985E+00  0.88884151066E+00  0.88000000000E+00 0. -1.
        -11    1    4    4    0    0  0.10356383319E-01  0.18504725954E-01  0.30234061050E-01  0.36932900328E-01  0.51100000000E-03 0. -1.
         11    1    4    4    0    0  0.26553902254E-02  0.29217521486E-01  0.90823640294E-01  0.95445845464E-01  0.51100000000E-03 0.  1.
</event>
<event>
 8    1  0.1122465E+005  0.1043930E+01  0.7957747E-01            NaN
         13   -1    0    0    0    0  0.00000000000E+00  0.00000000000E+00  0.74505805969E-08  0.10566000000E+00  0.10566000000E+00 0. -1.
     999900   -1    0    0    0    0 -0.00000000000E+00 -0.00000000000E+00 -0.74505805969E-08  0.93827000000E+00  0.93827000000E+00 0. -1.
     999902    2    1    2    0    0 -0.20774093598E-01  0.82289900109E-02  0.70505913648E-02  0.10204994627E+01  0.10202304461E+01 0.  0.
     999903    2    3    3    0    0 -0.42685661615E-01 -0.85543249331E-01 -0.86631041329E-01  0.13030308096E+00  0.18282296708E-01 0.  0.
         14    1    1    2    0    0  0.20774093598E-01 -0.82289900109E-02 -0.70505913648E-02  0.23430537340E-01  0.00000000000E+00 0.  1.
     999901    1    3    3    0    0  0.21911568017E-01  0.93772239342E-01  0.93681632694E-01  0.89019638170E+00  0.88000000000E+00 0.  1.
        -11    1    4    4    0    0 -0.22305767105E-01 -0.37904596903E-01 -0.28403561532E-01  0.52357703743E-01  0.51100000000E-03 0. -1.
         11    1    4    4    0    0 -0.20379894510E-01 -0.47638652428E-01 -0.58227479797E-01  0.77945377220E-01  0.51100000000E-03 0.  1.
</event>
<event>
 8    1  0.1704073E+005  0.1043930E+01  0.7957747E-01            NaN
         13   -1    0    0    0    0  0.00000000000E+00  0.00000000000E+00  0.74505805969E-08  0.10566000000E+00  0.10566000000E+00 0. -1.
     999900   -1    0    0    0    0 -0.00000000000E+00 -0.00000000000E+00 -0.74505805969E-08  0.93827000000E+00  0.93827000000E+00 0.  1.
     999902    2    1    2    0    0 -0.19343846446E-01 -0.11820418278E-01  0.82041262189E-02  0.10198216120E+01  0.10195366134E+01 0.  0.
     999903    2    3    3    0    0 -0.76655959629E-01 -0.56935541548E-01 -0.88448040510E-01  0.13153016549E+00  0.18956173797E-01 0.  0.
         14    1    1    2    0    0  0.19343846446E-01  0.11820418278E-01 -0.82041262189E-02  0.24108387972E-01  0.00000000000E+00 0.  1.
     999901    1    3    3    0    0  0.57312113183E-01  0.45115123270E-01  0.96652166728E-01  0.88829144654E+00  0.88000000000E+00 0. -1.
        -11    1    4    4    0    0 -0.43303822354E-01 -0.43377731242E-01 -0.57724510584E-01  0.84197558405E-01  0.51100000000E-03 0. -1.
         11    1    4    4    0    0 -0.33352137275E-01 -0.13557810306E-01 -0.30723529925E-01  0.47332607082E-01  0.51100000000E-03 0.  1.
</event>
<event>
 8    1  0.1122465E+005  0.1043930E+01  0.7957747E-01            NaN
         13   -1    0    0    0    0  0.00000000000E+00  0.00000000000E+00  0.74505805969E-08  0.10566000000E+00  0.10566000000E+00 0. -1.
     999900   -1    0    0    0    0 -0.00000000000E+00 -0.00000000000E+00 -0.74505805969E-08  0.93827000000E+00  0.93827000000E+00 0.  1.
     999902    2    1    2    0    0 -0.62005474461E-02 -0.24383062996E-02 -0.22414094878E-01  0.10205465919E+01  0.10202786690E+01 0.  0.
     999903    2    3    3    0    0 -0.83719577191E-01 -0.93864109867E-01 -0.35769518517E-01  0.13232013152E+00  0.20241542071E-01 0.  0.
         14    1    1    2    0    0  0.62005474461E-02  0.24383062996E-02  0.22414094878E-01  0.23383408123E-01  0.00000000000E+00 0. -1.
     999901    1    3    3    0    0  0.77519029745E-01  0.91425803568E-01  0.13355423639E-01  0.88822646035E+00  0.88000000000E+00 0. -1.
        -11    1    4    4    0    0 -0.29429344409E-01 -0.28297642925E-01 -0.21024468058E-01  0.45925290261E-01  0.51100000000E-03 0. -1.
         11    1    4    4    0    0 -0.54290232782E-01 -0.65566466942E-01 -0.14745050459E-01  0.86394841263E-01  0.51100000000E-03 0.  1.
</event>
<event>
 8    1  0.1122465E+005  0.1043930E+01  0.7957747E-01            NaN
         13   -1    0    0    0    0  0.00000000000E+00  0.00000000000E+00  0.74505805969E-08  0.10566000000E+00  0.10566000000E+00 0. -1.
     999900   -1    0    0    0    0 -0.00000000000E+00 -0.00000000000E+00 -0.74505805969E-08  0.93827000000E+00  0.93827000000E+00 0. -1.
     999902    2    1    2    0    0 -0.13976802047E-01  0.17644095199E-01 -0.83094474396E-02  0.10199360006E+01  0.10196537321E+01 0.  0.
     999903    2    3    3    0    0  0.84097905660E-01 -0.93489031776E-01 -0.71598654273E-02  0.12754004490E+00  0.20063463817E-01 0.  0.
         14    1    1    2    0    0  0.13976802047E-01 -0.17644095199E-01  0.83094474396E-02  0.23993999408E-01  0.00000000000E+00 0.  1.
     999901    1    3    3    0    0 -0.98074707707E-01  0.11113312698E+00 -0.11495820122E-02  0.89239595570E+00  0.88000000000E+00 0.  1.
        -11    1    4    4    0    0  0.21434691985E-01 -0.30166441236E-01 -0.10234905835E-01  0.38398888210E-01  0.51100000000E-03 0. -1.
         11    1    4    4    0    0  0.62663213676E-01 -0.63322590540E-01  0.30750404074E-02  0.89141156686E-01  0.51100000000E-03 0.  1.
</event>
<event>
 8    1  0.1122465E+005  0.1043930E+01  0.7957747E-01            NaN
         13   -1    0    0    0    0  0.00000000000E+00  0.00000000000E+00  0.74505805969E-08  0.10566000000E+00  0.10566000000E+00 0. -1.
     999900   -1    0    0    0    0 -0.00000000000E+00 -0.00000000000E+00 -0.74505805969E-08  0.93827000000E+00  0.93827000000E+00 0. -1.
     999902    2    1    2    0    0 -0.72189133781E-02 -0.14417441358E-01  0.16209811779E-01  0.10210666380E+01  0.10208106317E+01 0.  0.
     999903    2    3    3    0    0 -0.40756187941E-01  0.12046110831E+00 -0.14115347218E-01  0.12964272802E+00  0.20881772681E-01 0.  0.
         14    1    1    2    0    0  0.72189133781E-02  0.14417441358E-01 -0.16209811779E-01  0.22863362036E-01  0.00000000000E+00 0. -1.
     999901    1    3    3    0    0  0.33537274563E-01 -0.13487854967E+00  0.30325158997E-01  0.89142390994E+00  0.88000000000E+00 0.  1.
        -11    1    4    4    0    0 -0.25958632211E-01  0.82393719000E-01 -0.19159775912E-01  0.88486912314E-01  0.51100000000E-03 0. -1.
         11    1    4    4    0    0 -0.14797555730E-01  0.38067389315E-01  0.50444286937E-02  0.41155815709E-01  0.51100000000E-03 0.  1.
</event>
<event>
 8    1  0.1122465E+005  0.1043930E+01  0.7957747E-01            NaN
         13   -1    0    0    0    0  0.00000000000E+00  0.00000000000E+00  0.74505805969E-08  0.10566000000E+00  0.10566000000E+00 0.  1.
     999900   -1    0    0    0    0 -0.00000000000E+00 -0.00000000000E+00 -0.74505805969E-08  0.93827000000E+00  0.93827000000E+00 0.  1.
     999902    2    1    2    0    0 -0.28038083270E-02 -0.17910335986E-01 -0.15368511665E-01  0.10201637923E+01  0.10198869205E+01 0.  0.
     999903    2    3    3    0    0  0.11144173004E+00 -0.58124417329E-01  0.29435243284E-01  0.13073892657E+00  0.20700876556E-01 0.  0.
         14    1    1    2    0    0  0.28038083270E-02  0.17910335986E-01  0.15368511665E-01  0.23766207670E-01  0.00000000000E+00 0.  1.
     999901    1    3    3    0    0 -0.11424553836E+00  0.40214081344E-01 -0.44803754949E-01  0.88942486576E+00  0.88000000000E+00 0.  1.
        -11    1    4    4    0    0  0.45563464619E-01 -0.23441506492E-01  0.22499569232E-01  0.55964500099E-01  0.51100000000E-03 0.  1.
         11    1    4    4    0    0  0.65878265417E-01 -0.34682910837E-01  0.69356740518E-02  0.74774426471E-01  0.51100000000E-03 0. -1.
</event>
<event>
 8    1  0.1122465E+005  0.1043930E+01  0.7957747E-01            NaN
         13   -1    0    0    0    0  0.00000000000E+00  0.00000000000E+00  0.74505805969E-08  0.10566000000E+00  0.10566000000E+00 0.  1.
     999900   -1    0    0    0    0 -0.00000000000E+00 -0.00000000000E+00 -0.74505805969E-08  0.93827000000E+00  0.93827000000E+00 0.  1.
     999902    2    1    2    0    0  0.12578500627E-01 -0.23879344268E-01 -0.17826475226E-01  0.10115845988E+01  0.10110673447E+01 0.  0.
     999903    2    3    3    0    0  0.30050253494E-01  0.28290993223E-01  0.11128801346E+00  0.12046308213E+00  0.20565363669E-01 0.  0.
         14    1    1    2    0    0 -0.12578500627E-01  0.23879344268E-01  0.17826475226E-01  0.32345401214E-01  0.00000000000E+00 0. -1.
     999901    1    3    3    0    0 -0.17471752866E-01 -0.52170337491E-01 -0.12911448869E+00  0.89112151666E+00  0.88000000000E+00 0.  1.
        -11    1    4    4    0    0  0.12230444775E-01  0.14049762528E-01  0.77385408910E-01  0.79597375834E-01  0.51100000000E-03 0. -1.
         11    1    4    4    0    0  0.17819808719E-01  0.14241230695E-01  0.33902604551E-01  0.40865706293E-01  0.51100000000E-03 0.  1.
</event>
<event>
 8    1  0.1122465E+005  0.1043930E+01  0.7957747E-01            NaN
         13   -1    0    0    0    0  0.00000000000E+00  0.00000000000E+00  0.74505805969E-08  0.10566000000E+00  0.10566000000E+00 0. -1.
     999900   -1    0    0    0    0 -0.00000000000E+00 -0.00000000000E+00 -0.74505805969E-08  0.93827000000E+00  0.93827000000E+00 0.  1.
     999902    2    1    2    0    0 -0.18242159433E-01  0.13782625575E-01 -0.53374952832E-02  0.10204517972E+01  0.10201816723E+01 0.  0.
     999903    2    3    3    0    0  0.48635285486E-02 -0.10451828885E+00  0.72706609426E-01  0.12881293456E+00  0.18941870114E-01 0.  0.
         14    1    1    2    0    0  0.18242159433E-01 -0.13782625575E-01  0.53374952832E-02  0.23478202751E-01  0.00000000000E+00 0. -1.
     999901    1    3    3    0    0 -0.23105687981E-01  0.11830091442E+00 -0.78044104709E-01  0.89163886268E+00  0.88000000000E+00 0.  1.
        -11    1    4    4    0    0 -0.19520670169E-02 -0.81807960502E-01  0.49543649662E-01  0.95661838316E-01  0.51100000000E-03 0. -1.
         11    1    4    4    0    0  0.68155955655E-02 -0.22710328345E-01  0.23162959764E-01  0.33151096248E-01  0.51100000000E-03 0.  1.
</event>
<event>
 8    1  0.1122465E+005  0.1043930E+01  0.7957747E-01            NaN
         13   -1    0    0    0    0  0.00000000000E+00  0.00000000000E+00  0.74505805969E-08  0.10566000000E+00  0.10566000000E+00 0.  1.
     999900   -1    0    0    0    0 -0.00000000000E+00 -0.00000000000E+00 -0.74505805969E-08  0.93827000000E+00  0.93827000000E+00 0. -1.
     999902    2    1    2    0    0 -0.38198931075E-02  0.62483959741E-02  0.23418367034E-01  0.10193932123E+01  0.10190978694E+01 0.  0.
     999903    2    3    3    0    0  0.74918638273E-01 -0.10252891106E+00  0.11661645420E-01  0.12912893730E+00  0.20329990451E-01 0.  0.
         14    1    1    2    0    0  0.38198931075E-02 -0.62483959741E-02 -0.23418367034E-01  0.24536787690E-01  0.00000000000E+00 0. -1.
     999901    1    3    3    0    0 -0.78738531381E-01  0.10877730703E+00  0.11756721614E-01  0.89026427501E+00  0.88000000000E+00 0.  1.
        -11    1    4    4    0    0  0.32768155566E-01 -0.60493050693E-01  0.10424155208E-01  0.69585094195E-01  0.51100000000E-03 0. -1.
         11    1    4    4    0    0  0.42150482707E-01 -0.42035860366E-01  0.12374902115E-02  0.59543843109E-01  0.51100000000E-03 0.  1.
</event>
<event>
 8    1  0.1122465E+005  0.1043930E+01  0.7957747E-01            NaN
         13   -1    0    0    0    0  0.00000000000E+00  0.00000000000E+00  0.74505805969E-08  0.10566000000E+00  0.10566000000E+00 0. -1.
     999900   -1    0    0    0    0 -0.00000000000E+00 -0.00000000000E+00 -0.74505805969E-08  0.93827000000E+00  0.93827000000E+00 0.  1.
     999902    2    1    2    0    0  0.21939992951E-01 -0.54016786944E-02 -0.77607612353E-02  0.10200391892E+01  0.10197593720E+01 0.  0.
     999903    2    3    3    0    0  0.11484114162E+00 -0.46254838336E-01  0.43728261377E-01  0.13271133353E+00  0.19290913086E-01 0.  0.
         14    1    1    2    0    0 -0.21939992951E-01  0.54016786944E-02  0.77607612353E-02  0.23890810751E-01  0.00000000000E+00 0. -1.
     999901    1    3    3    0    0 -0.92901148668E-01  0.40853159641E-01 -0.51489022613E-01  0.88732785571E+00  0.88000000000E+00 0.  1.
        -11    1    4    4    0    0  0.22468687247E-01 -0.11736693368E-01  0.13852799399E-02  0.25392361043E-01  0.51100000000E-03 0.  1.
         11    1    4    4    0    0  0.92372454372E-01 -0.34518144968E-01  0.42342981438E-01  0.10731897249E+00  0.51100000000E-03 0. -1.
</event>
<event>
 8    1  0.1122465E+005  0.1043930E+01  0.7957747E-01            NaN
         13   -1    0    0    0    0  0.00000000000E+00  0.00000000000E+00  0.74505805969E-08  0.10566000000E+00  0.10566000000E+00 0. -1.
     999900   -1    0    0    0    0 -0.00000000000E+00 -0.00000000000E+00 -0.74505805969E-08  0.93827000000E+00  0.93827000000E+00 0. -1.
     999902    2    1    2    0    0 -0.10544948777E-01 -0.17016158647E-01  0.12264614314E-01  0.10204530674E+01  0.10201829720E+01 0.  0.
     999903    2    3    3    0    0 -0.82334750864E-01  0.64788685037E-02  0.10049971360E+00  0.13282069715E+00  0.26835763820E-01 0.  0.
         14    1    1    2    0    0  0.10544948777E-01  0.17016158647E-01 -0.12264614314E-01  0.23476932595E-01  0.00000000000E+00 0. -1.
     999901    1    3    3    0    0  0.71789802087E-01 -0.23495027150E-01 -0.88235099286E-01  0.88763237026E+00  0.88000000000E+00 0.  1.
        -11    1    4    4    0    0 -0.58493676609E-01  0.70563909030E-02  0.51217463087E-01  0.78069152050E-01  0.51100000000E-03 0. -1.
         11    1    4    4    0    0 -0.23841074255E-01 -0.57752239923E-03  0.49282250513E-01  0.54751545096E-01  0.51100000000E-03 0.  1.
</event>
<event>
 8    1  0.1122465E+005  0.1043930E+01  0.7957747E-01            NaN
         13   -1    0    0    0    0  0.00000000000E+00  0.00000000000E+00  0.74505805969E-08  0.10566000000E+00  0.10566000000E+00 0.  1.
     999900   -1    0    0    0    0 -0.00000000000E+00 -0.00000000000E+00 -0.74505805969E-08  0.93827000000E+00  0.93827000000E+00 0.  1.
     999902    2    1    2    0    0  0.13286045444E-01 -0.22890786819E-04  0.20947820712E-01  0.10191241394E+01  0.10188222027E+01 0.  0.
     999903    2    3    3    0    0  0.12166169753E+00  0.17436414104E-01 -0.39028642629E-01  0.13027809792E+00  0.18535119937E-01 0.  0.
         14    1    1    2    0    0 -0.13286045444E-01  0.22890786819E-04 -0.20947820712E-01  0.24805860600E-01  0.00000000000E+00 0. -1.
     999901    1    3    3    0    0 -0.10837565208E+00 -0.17459304891E-01  0.59976463341E-01  0.88884604148E+00  0.88000000000E+00 0. -1.
        -11    1    4    4    0    0  0.76922975538E-01  0.17994533279E-01 -0.30743068974E-01  0.84772311544E-01  0.51100000000E-03 0. -1.
         11    1    4    4    0    0  0.44738721990E-01 -0.55811917481E-03 -0.82855736555E-02  0.45505786381E-01  0.51100000000E-03 0.  1.
</event>
<event>
 8    1  0.1122465E+005  0.1043930E+01  0.7957747E-01            NaN
         13   -1    0    0    0    0  0.00000000000E+00  0.00000000000E+00  0.74505805969E-08  0.10566000000E+00  0.10566000000E+00 0. -1.
     999900   -1    0    0    0    0 -0.00000000000E+00 -0.00000000000E+00 -0.74505805969E-08  0.93827000000E+00  0.93827000000E+00 0. -1.
     999902    2    1    2    0    0  0.13812359825E-01 -0.19428894058E-01 -0.70713160528E-02  0.10190650303E+01  0.10187616351E+01 0.  0.
     999903    2    3    3    0    0  0.31754024819E-01  0.79685480170E-02 -0.12480781024E+00  0.13062009376E+00  0.20317567473E-01 0.  0.
         14    1    1    2    0    0 -0.13812359825E-01  0.19428894058E-01  0.70713160528E-02  0.24864969716E-01  0.00000000000E+00 0. -1.
     999901    1    3    3    0    0 -0.17941664994E-01 -0.27397442075E-01  0.11773649418E+00  0.88844493653E+00  0.88000000000E+00 0.  1.
        -11    1    4    4    0    0  0.29900605285E-01  0.41788338712E-02 -0.78332042392E-01  0.83950454646E-01  0.51100000000E-03 0. -1.
         11    1    4    4    0    0  0.18534195340E-02  0.37897141459E-02 -0.46475767843E-01  0.46669639112E-01  0.51100000000E-03 0.  1.
</event>
<event>
 8    1  0.1122465E+005  0.1043930E+01  0.7957747E-01            NaN
         13   -1    0    0    0    0  0.00000000000E+00  0.00000000000E+00  0.74505805969E-08  0.10566000000E+00  0.10566000000E+00 0. -1.
     999900   -1    0    0    0    0 -0.00000000000E+00 -0.00000000000E+00 -0.74505805969E-08  0.93827000000E+00  0.93827000000E+00 0.  1.
     999902    2    1    2    0    0  0.14338616746E-01  0.15250821857E-01  0.10717988416E-01  0.10204127984E+01  0.10201417648E+01 0.  0.
     999903    2    3    3    0    0 -0.49644155725E-01 -0.11345663631E+00 -0.25421219621E-01  0.12801969702E+00  0.20145815881E-01 0.  0.
         14    1    1    2    0    0 -0.14338616746E-01 -0.15250821857E-01 -0.10717988416E-01  0.23517201645E-01  0.00000000000E+00 0. -1.
     999901    1    3    3    0    0  0.63982772470E-01  0.12870745816E+00  0.36139208038E-01  0.89239310134E+00  0.88000000000E+00 0.  1.
        -11    1    4    4    0    0 -0.98526920332E-02 -0.36216294176E-01 -0.17199964251E-03  0.37536465058E-01  0.51100000000E-03 0. -1.
         11    1    4    4    0    0 -0.39791463692E-01 -0.77240342130E-01 -0.25249219979E-01  0.90483231959E-01  0.51100000000E-03 0.  1.
</event>
<event>
 8    1  0.1122465E+005  0.1043930E+01  0.7957747E-01            NaN
         13   -1    0    0    0    0  0.00000000000E+00  0.00000000000E+00  0.74505805969E-08  0.10566000000E+00  0.10566000000E+00 0. -1.
     999900   -1    0    0    0    0 -0.00000000000E+00 -0.00000000000E+00 -0.74505805969E-08  0.93827000000E+00  0.93827000000E+00 0.  1.
     999902    2    1    2    0    0  0.26809253006E-02  0.17519940777E-01 -0.15693280085E-01  0.10202569198E+01  0.10199822389E+01 0.  0.
     999903    2    3    3    0    0 -0.32018260393E-01 -0.63799082264E-01  0.10404948395E+00  0.12775753801E+00  0.20005037176E-01 0.  0.
         14    1    1    2    0    0 -0.26809253006E-02 -0.17519940777E-01  0.15693280085E-01  0.23673080178E-01  0.00000000000E+00 0. -1.
     999901    1    3    3    0    0  0.34699185693E-01  0.81319023041E-01 -0.11974276403E+00  0.89249938181E+00  0.88000000000E+00 0.  1.
        -11    1    4    4    0    0 -0.21038713994E-01 -0.44570270320E-01  0.54495055803E-01  0.73478627579E-01  0.51100000000E-03 0. -1.
         11    1    4    4    0    0 -0.10979546399E-01 -0.19228811944E-01  0.49554428144E-01  0.54278910431E-01  0.51100000000E-03 0.  1.
</event>
<event>
 8    1  0.1122465E+005  0.1043930E+01  0.7957747E-01            NaN
         13   -1    0    0    0    0  0.00000000000E+00  0.00000000000E+00  0.74505805969E-08  0.10566000000E+00  0.10566000000E+00 0. -1.
     999900   -1    0    0    0    0 -0.00000000000E+00 -0.00000000000E+00 -0.74505805969E-08  0.93827000000E+00  0.93827000000E+00 0. -1.
     999902    2    1    2    0    0  0.89761943992E-02 -0.19829872444E-01  0.79744164801E-02  0.10207483861E+01  0.10204851201E+01 0.  0.
     999903    2    3    3    0    0  0.10329930881E+00 -0.79007189244E-01  0.23060121989E-01  0.13360331153E+00  0.20129393233E-01 0.  0.
         14    1    1    2    0    0 -0.89761943992E-02  0.19829872444E-01 -0.79744164801E-02  0.23181613948E-01  0.00000000000E+00 0.  1.
     999901    1    3    3    0    0 -0.94323114416E-01  0.59177316799E-01 -0.15085705509E-01  0.88714507452E+00  0.88000000000E+00 0.  1.
        -11    1    4    4    0    0  0.18275310322E-01 -0.97067617658E-02 -0.28498555197E-02  0.20894759842E-01  0.51100000000E-03 0.  1.
         11    1    4    4    0    0  0.85023998493E-01 -0.69300427478E-01  0.25909977508E-01  0.11270855169E+00  0.51100000000E-03 0. -1.
</event>
<event>
 8    1  0.1122465E+005  0.1043930E+01  0.7957747E-01            NaN
         13   -1    0    0    0    0  0.00000000000E+00  0.00000000000E+00  0.74505805969E-08  0.10566000000E+00  0.10566000000E+00 0.  1.
     999900   -1    0    0    0    0 -0.00000000000E+00 -0.00000000000E+00 -0.74505805969E-08  0.93827000000E+00  0.93827000000E+00 0.  1.
     999902    2    1    2    0    0  0.15486719038E-01 -0.17547028872E-01 -0.36410688854E-02  0.10202446866E+01  0.10199697184E+01 0.  0.
     999903    2    3    3    0    0  0.35480539117E-01  0.12176106886E+00 -0.11763136947E-01  0.12902503525E+00  0.20602470342E-01 0.  0.
         14    1    1    2    0    0 -0.15486719038E-01  0.17547028872E-01  0.36410688854E-02  0.23685313412E-01  0.00000000000E+00 0.  1.
     999901    1    3    3    0    0 -0.19993820079E-01 -0.13930809774E+00  0.81220680620E-02  0.89121965134E+00  0.88000000000E+00 0. -1.
        -11    1    4    4    0    0  0.35065067032E-01  0.10095269484E+00 -0.15129114285E-01  0.10793589181E+00  0.51100000000E-03 0.  1.
         11    1    4    4    0    0  0.41547208489E-03  0.20808374027E-01  0.33659773377E-02  0.21089143442E-01  0.51100000000E-03 0. -1.
</event>
<event>
 8    1  0.1122465E+005  0.1043930E+01  0.7957747E-01            NaN
         13   -1    0    0    0    0  0.00000000000E+00  0.00000000000E+00  0.74505805969E-08  0.10566000000E+00  0.10566000000E+00 0. -1.
     999900   -1    0    0    0    0 -0.00000000000E+00 -0.00000000000E+00 -0.74505805969E-08  0.93827000000E+00  0.93827000000E+00 0. -1.
     999902    2    1    2    0    0  0.31123207484E-02 -0.25963609087E-01  0.12889883077E-01  0.10147761902E+01  0.10143573195E+01 0.  0.
     999903    2    3    3    0    0  0.22025732821E-01 -0.11975118311E+00 -0.35142168653E-01  0.12828822970E+00  0.19935373114E-01 0.  0.
         14    1    1    2    0    0 -0.31123207484E-02  0.25963609087E-01 -0.12889883077E-01  0.29153809751E-01  0.00000000000E+00 0.  1.
     999901    1    3    3    0    0 -0.18913412073E-01  0.93787574020E-01  0.48032051730E-01  0.88648796054E+00  0.88000000000E+00 0.  1.
        -11    1    4    4    0    0  0.21379991253E-01 -0.61292204506E-01 -0.18364977238E-01  0.67463856020E-01  0.51100000000E-03 0. -1.
         11    1    4    4    0    0  0.64574156741E-03 -0.58458978601E-01 -0.16777191415E-01  0.60824373684E-01  0.51100000000E-03 0.  1.
</event>
<event>
 8    1  0.1122465E+005  0.1043930E+01  0.7957747E-01            NaN
         13   -1    0    0    0    0  0.00000000000E+00  0.00000000000E+00  0.74505805969E-08  0.10566000000E+00  0.10566000000E+00 0.  1.
     999900   -1    0    0    0    0 -0.00000000000E+00 -0.00000000000E+00 -0.74505805969E-08  0.93827000000E+00  0.93827000000E+00 0. -1.
     999902    2    1    2    0    0  0.22762896971E-01  0.19120529695E-02  0.14086998706E-02  0.10210435442E+01  0.10207870146E+01 0.  0.
     999903    2    3    3    0    0 -0.22406420082E-02  0.73004244271E-01  0.10744321462E+00  0.13148039580E+00  0.20209155199E-01 0.  0.
         14    1    1    2    0    0 -0.22762896971E-01 -0.19120529695E-02 -0.14086998706E-02  0.22886455828E-01  0.00000000000E+00 0.  1.
     999901    1    3    3    0    0  0.25003538979E-01 -0.71092191302E-01 -0.10603451475E+00  0.88956314837E+00  0.88000000000E+00 0.  1.
        -11    1    4    4    0    0 -0.70419320020E-02  0.88125004384E-02  0.18766653270E-01  0.21901994572E-01  0.51100000000E-03 0.  1.
         11    1    4    4    0    0  0.48012899938E-02  0.64191743833E-01  0.88676561347E-01  0.10957840123E+00  0.51100000000E-03 0. -1.
</event>
<event>
 8    1  0.1122465E+005  0.1043930E+01  0.7957747E-01            NaN
         13   -1    0    0    0    0  0.00000000000E+00  0.00000000000E+00  0.74505805969E-08  0.10566000000E+00  0.10566000000E+00 0. -1.
     999900   -1    0    0    0    0 -0.00000000000E+00 -0.00000000000E+00 -0.74505805969E-08  0.93827000000E+00  0.93827000000E+00 0.  1.
     999902    2    1    2    0    0 -0.10049440044E-01 -0.20968925734E-01  0.40635995010E-02  0.10203249172E+01  0.10200518304E+01 0.  0.
     999903    2    3    3    0    0  0.68985738395E-01  0.13488261428E-01 -0.10660102974E+00  0.12921296167E+00  0.19779904568E-01 0.  0.
         14    1    1    2    0    0  0.10049440044E-01  0.20968925734E-01 -0.40635995010E-02  0.23605082769E-01  0.00000000000E+00 0.  1.
     999901    1    3    3    0    0 -0.79035178439E-01 -0.34457187161E-01  0.11066462924E+00  0.89111195556E+00  0.88000000000E+00 0. -1.
        -11    1    4    4    0    0  0.64620870395E-01  0.14222128260E-01 -0.10564417932E+00  0.12465584450E+00  0.51100000000E-03 0.  1.
         11    1    4    4    0    0  0.43648680001E-02 -0.73386683252E-03 -0.95685041548E-03  0.45571171703E-02  0.51100000000E-03 0. -1.
</event>
<event>
 8    1  0.1122465E+005  0.1043930E+01  0.7957747E-01            NaN
         13   -1    0    0    0    0  0.00000000000E+00  0.00000000000E+00  0.74505805969E-08  0.10566000000E+00  0.10566000000E+00 0. -1.
     999900   -1    0    0    0    0 -0.00000000000E+00 -0.00000000000E+00 -0.74505805969E-08  0.93827000000E+00  0.93827000000E+00 0. -1.
     999902    2    1    2    0    0  0.76235481561E-02  0.62798224795E-02  0.22865086198E-01  0.10190228359E+01  0.10187183974E+01 0.  0.
     999903    2    3    3    0    0  0.10925616681E+00 -0.35646554172E-01  0.60305518610E-01  0.13139183361E+00  0.20481004730E-01 0.  0.
         14    1    1    2    0    0 -0.76235481561E-02 -0.62798224795E-02 -0.22865086198E-01  0.24907164104E-01  0.00000000000E+00 0.  1.
     999901    1    3    3    0    0 -0.10163261866E+00  0.41926376651E-01 -0.37440432413E-01  0.88763100228E+00  0.88000000000E+00 0. -1.
        -11    1    4    4    0    0  0.93093807805E-01 -0.37611883058E-01  0.50687478619E-01  0.11247485234E+00  0.51100000000E-03 0. -1.
         11    1    4    4    0    0  0.16162359007E-01  0.19653288858E-02  0.96180399907E-02  0.18916981275E-01  0.51100000000E-03 0.  1.
</event>
<event>
 8    1  0.1122465E+005  0.1043930E+01  0.7957747E-01            NaN
         13   -1    0    0    0    0  0.00000000000E+00  0.00000000000E+00  0.74505805969E-08  0.10566000000E+00  0.10566000000E+00 0. -1.
     999900   -1    0    0    0    0 -0.00000000000E+00 -0.00000000000E+00 -0.74505805969E-08  0.93827000000E+00  0.93827000000E+00 0. -1.
     999902    2    1    2    0    0  0.11972166222E-01 -0.12854326662E-01 -0.15654534100E-01  0.10204006372E+01  0.10201293199E+01 0.  0.
     999903    2    3    3    0    0  0.11605253487E+00 -0.20698079659E-01 -0.58569926143E-01  0.13319379629E+00  0.20335923150E-01 0.  0.
         14    1    1    2    0    0 -0.11972166222E-01  0.12854326662E-01  0.15654534100E-01  0.23529362844E-01  0.00000000000E+00 0. -1.
     999901    1    3    3    0    0 -0.10408036865E+00  0.78437529972E-02  0.42915392043E-01  0.88720684086E+00  0.88000000000E+00 0.  1.
        -11    1    4    4    0    0  0.41097614504E-01 -0.50457406527E-02 -0.31305973007E-01  0.51911448482E-01  0.51100000000E-03 0. -1.
         11    1    4    4    0    0  0.74954920369E-01 -0.15652339006E-01 -0.27263953137E-01  0.81282347811E-01  0.51100000000E-03 0.  1.
</event>
<event>
 8    1  0.1122465E+005  0.1043930E+01  0.7957747E-01            NaN
         13   -1    0    0    0    0  0.00000000000E+00  0.00000000000E+00  0.74505805969E-08  0.10566000000E+00  0.10566000000E+00 0. -1.
     999900   -1    0    0    0    0 -0.00000000000E+00 -0.00000000000E+00 -0.74505805969E-08  0.93827000000E+00  0.93827000000E+00 0. -1.
     999902    2    1    2    0    0 -0.24501163029E-02 -0.31825560075E-02  0.23292213346E-01  0.10202940330E+01  0.10200202228E+01 0.  0.
     999903    2    3    3    0    0 -0.75410631315E-01 -0.93205089625E-01  0.52229911157E-01  0.13222608310E+00  0.19540250411E-01 0.  0.
         14    1    1    2    0    0  0.24501163029E-02  0.31825560075E-02 -0.23292213346E-01  0.23635966983E-01  0.00000000000E+00 0.  1.
     999901    1    3    3    0    0  0.72960515012E-01  0.90022533617E-01 -0.28937697811E-01  0.88806794991E+00  0.88000000000E+00 0. -1.
        -11    1    4    4    0    0 -0.31224559357E-01 -0.34002352471E-01  0.10378443412E-01  0.47319195780E-01  0.51100000000E-03 0.  1.
         11    1    4    4    0    0 -0.44186071958E-01 -0.59202737153E-01  0.41851467745E-01  0.84906887323E-01  0.51100000000E-03 0. -1.
</event>
<event>
 8    1  0.1122465E+005  0.1043930E+01  0.7957747E-01            NaN
         13   -1    0    0    0    0  0.00000000000E+00  0.00000000000E+00  0.74505805969E-08  0.10566000000E+00  0.10566000000E+00 0. -1.
     999900   -1    0    0    0    0 -0.00000000000E+00 -0.00000000000E+00 -0.74505805969E-08  0.93827000000E+00  0.93827000000E+00 0. -1.
     999902    2    1    2    0    0  0.17379705081E-02  0.22710914607E-01  0.53464437116E-02  0.10205336190E+01  0.10202653953E+01 0.  0.
     999903    2    3    3    0    0 -0.10905108004E+00 -0.64905862933E-01 -0.11756930787E-01  0.12910586598E+00  0.20620138382E-01 0.  0.
         14    1    1    2    0    0 -0.17379705081E-02 -0.22710914607E-01 -0.53464437116E-02  0.23396381006E-01  0.00000000000E+00 0. -1.
     999901    1    3    3    0    0  0.11078905055E+00  0.87616777541E-01  0.17103374499E-01  0.89142775302E+00  0.88000000000E+00 0.  1.
        -11    1    4    4    0    0 -0.22072670383E-01 -0.56849790730E-02 -0.66788792458E-02  0.23756900342E-01  0.51100000000E-03 0. -1.
         11    1    4    4    0    0 -0.86978409660E-01 -0.59220883860E-01 -0.50780515414E-02  0.10534896564E+00  0.51100000000E-03 0.  1.
</event>
<event>
 8    1  0.1122465E+005  0.1043930E+01  0.7957747E-01            NaN
         13   -1    0    0    0    0  0.00000000000E+00  0.00000000000E+00  0.74505805969E-08  0.10566000000E+00  0.10566000000E+00 0. -1.
     999900   -1    0    0    0    0 -0.00000000000E+00 -0.00000000000E+00 -0.74505805969E-08  0.93827000000E+00  0.93827000000E+00 0.  1.
     999902    2    1    2    0    0  0.27373106400E-02  0.22774211956E-01 -0.55116609374E-02  0.10203389846E+01  0.10200662270E+01 0.  0.
     999903    2    3    3    0    0 -0.10340819788E+00 -0.68926128297E-01  0.26336259287E-01  0.12866072909E+00  0.20394070404E-01 0.  0.
         14    1    1    2    0    0 -0.27373106400E-02 -0.22774211956E-01  0.55116609374E-02  0.23591015367E-01  0.00000000000E+00 0. -1.
     999901    1    3    3    0    0  0.10614550852E+00  0.91700340253E-01 -0.31847920224E-01  0.89167825554E+00  0.88000000000E+00 0.  1.
        -11    1    4    4    0    0 -0.27731425759E-01 -0.11200248524E-01  0.34942465439E-04  0.29912202921E-01  0.51100000000E-03 0.  1.
         11    1    4    4    0    0 -0.75676772116E-01 -0.57725879773E-01  0.26301316822E-01  0.98748526172E-01  0.51100000000E-03 0. -1.
</event>
<event>
 8    1  0.1122465E+005  0.1043930E+01  0.7957747E-01            NaN
         13   -1    0    0    0    0  0.00000000000E+00  0.00000000000E+00  0.74505805969E-08  0.10566000000E+00  0.10566000000E+00 0. -1.
     999900   -1    0    0    0    0 -0.00000000000E+00 -0.00000000000E+00 -0.74505805969E-08  0.93827000000E+00  0.93827000000E+00 0. -1.
     999902    2    1    2    0    0  0.94106632081E-02  0.18515142374E-01 -0.12277932185E-01  0.10198028639E+01  0.10195174165E+01 0.  0.
     999903    2    3    3    0    0  0.22873192832E-01  0.12631623041E+00 -0.28680111204E-01  0.13297066680E+00  0.19485287619E-01 0.  0.
         14    1    1    2    0    0 -0.94106632081E-02 -0.18515142374E-01  0.12277932185E-01  0.24127136131E-01  0.00000000000E+00 0. -1.
     999901    1    3    3    0    0 -0.13462529624E-01 -0.10780108804E+00  0.16402179019E-01  0.88683219707E+00  0.88000000000E+00 0. -1.
        -11    1    4    4    0    0  0.67619438495E-02  0.54491417019E-01 -0.21645331230E-01  0.59023892606E-01  0.51100000000E-03 0.  1.
         11    1    4    4    0    0  0.16111248983E-01  0.71824813395E-01 -0.70347799742E-02  0.73946774191E-01  0.51100000000E-03 0. -1.
</event>
<event>
 8    1  0.1122465E+005  0.1043930E+01  0.7957747E-01            NaN
         13   -1    0    0    0    0  0.00000000000E+00  0.00000000000E+00  0.74505805969E-08  0.10566000000E+00  0.10566000000E+00 0.  1.
     999900   -1    0    0    0    0 -0.00000000000E+00 -0.00000000000E+00 -0.74505805969E-08  0.93827000000E+00  0.93827000000E+00 0.  1.
     999902    2    1    2    0    0  0.10707888351E-01 -0.15423851289E-01 -0.37458317084E-02  0.10247835821E+01  0.10246047067E+01 0.  0.
     999903    2    3    3    0    0  0.11985933432E+00 -0.30703258329E-01  0.54713992245E-01  0.13598380185E+00  0.13748575291E-01 0.  0.
         14    1    1    2    0    0 -0.10707888351E-01  0.15423851289E-01  0.37458317084E-02  0.19146417855E-01  0.00000000000E+00 0.  1.
     999901    1    3    3    0    0 -0.10915144597E+00  0.15279407040E-01 -0.58459823954E-01  0.88879978030E+00  0.88000000000E+00 0. -1.
        -11    1    4    4    0    0  0.26063729215E-01 -0.12344862685E-01  0.14627639727E-01  0.32341035547E-01  0.51100000000E-03 0. -1.
         11    1    4    4    0    0  0.93795605104E-01 -0.18358395644E-01  0.40086352518E-01  0.10364276630E+00  0.51100000000E-03 0.  1.
</event>
<event>
 8    1  0.1122465E+005  0.1043930E+01  0.7957747E-01            NaN
         13   -1    0    0    0    0  0.00000000000E+00  0.00000000000E+00  0.74505805969E-08  0.10566000000E+00  0.10566000000E+00 0.  1.
     999900   -1    0    0    0    0 -0.00000000000E+00 -0.00000000000E+00 -0.74505805969E-08  0.93827000000E+00  0.93827000000E+00 0.  1.
     999902    2    1    2    0    0 -0.51385024885E-02  0.21637327949E-01  0.72095631280E-02  0.10205514635E+01  0.10202836535E+01 0.  0.
     999903    2    3    3    0    0  0.10788141680E+00 -0.67117919366E-01  0.66972720912E-02  0.12889499460E+00  0.20636157336E-01 0.  0.
         14    1    1    2    0    0  0.51385024885E-02 -0.21637327949E-01 -0.72095631280E-02  0.23378536505E-01  0.00000000000E+00 0.  1.
     999901    1    3    3    0    0 -0.11301991928E+00  0.88755247315E-01  0.51229103674E-03  0.89165646890E+00  0.88000000000E+00 0.  1.
        -11    1    4    4    0    0  0.39390615071E-01 -0.32631151876E-01  0.10072835678E-01  0.52135743670E-01  0.51100000000E-03 0. -1.
         11    1    4    4    0    0  0.68490801725E-01 -0.34486767490E-01 -0.33755635868E-02  0.76759250930E-01  0.51100000000E-03 0.  1.
</event>
<event>
 8    1  0.1122465E+005  0.1043930E+01  0.7957747E-01            NaN
         13   -1    0    0    0    0  0.00000000000E+00  0.00000000000E+00  0.74505805969E-08  0.10566000000E+00  0.10566000000E+00 0. -1.
     999900   -1    0    0    0    0 -0.00000000000E+00 -0.00000000000E+00 -0.74505805969E-08  0.93827000000E+00  0.93827000000E+00 0.  1.
     999902    2    1    2    0    0  0.19919232972E-01 -0.25164942210E-02  0.11639934471E-01  0.10207223146E+01  0.10204584494E+01 0.  0.
     999903    2    3    3    0    0  0.97755699731E-01 -0.81355982980E-01  0.35346598158E-01  0.13345900172E+00  0.19671053416E-01 0.  0.
         14    1    1    2    0    0 -0.19919232972E-01  0.25164942210E-02 -0.11639934471E-01  0.23207685362E-01  0.00000000000E+00 0. -1.
     999901    1    3    3    0    0 -0.77836466759E-01  0.78839488759E-01 -0.23706663687E-01  0.88726331292E+00  0.88000000000E+00 0.  1.
        -11    1    4    4    0    0  0.59523784869E-01 -0.61565197708E-01  0.23093450797E-01  0.88695677035E-01  0.51100000000E-03 0.  1.
         11    1    4    4    0    0  0.38231914863E-01 -0.19790785272E-01  0.12253147361E-01  0.44763324687E-01  0.51100000000E-03 0. -1.
</event>
<event>
 8    1  0.1122465E+005  0.1043930E+01  0.7957747E-01            NaN
         13   -1    0    0    0    0  0.00000000000E+00  0.00000000000E+00  0.74505805969E-08  0.10566000000E+00  0.10566000000E+00 0.  1.
     999900   -1    0    0    0    0 -0.00000000000E+00 -0.00000000000E+00 -0.74505805969E-08  0.93827000000E+00  0.93827000000E+00 0. -1.
     999902    2    1    2    0    0 -0.39616906054E-02 -0.12520307183E-01  0.20081949286E-01  0.10199354637E+01  0.10196531824E+01 0.  0.
     999903    2    3    3    0    0  0.20977669565E-01 -0.12511496235E+00  0.30649321640E-01  0.13234817369E+00  0.21973660099E-01 0.  0.
         14    1    1    2    0    0  0.39616906054E-02  0.12520307183E-01 -0.20081949286E-01  0.23994536285E-01  0.00000000000E+00 0.  1.
     999901    1    3    3    0    0 -0.24939360171E-01  0.11259465517E+00 -0.10567372354E-01  0.88758729003E+00  0.88000000000E+00 0.  1.
        -11    1    4    4    0    0  0.94660327056E-02 -0.10035702709E+00  0.18624935101E-01  0.10250994093E+00  0.51100000000E-03 0.  1.
         11    1    4    4    0    0  0.11511636860E-01 -0.24757935262E-01  0.12024386539E-01  0.29838232760E-01  0.51100000000E-03 0. -1.
</event>
<event>
 8    1  0.1122465E+005  0.1043930E+01  0.7957747E-01            NaN
         13   -1    0    0    0    0  0.00000000000E+00  0.00000000000E+00  0.74505805969E-08  0.10566000000E+00  0.10566000000E+00 0. -1.
     999900   -1    0    0    0    0 -0.00000000000E+00 -0.00000000000E+00 -0.74505805969E-08  0.93827000000E+00  0.93827000000E+00 0. -1.
     999902    2    1    2    0    0 -0.14214358637E-01  0.74530130381E-02 -0.17879189824E-01  0.10199037472E+01  0.10196207102E+01 0.  0.
     999903    2    3    3    0    0  0.90447141362E-01  0.54983896773E-01  0.69179064202E-01  0.12816816190E+00  0.20914600572E-01 0.  0.
         14    1    1    2    0    0  0.14214358637E-01 -0.74530130381E-02  0.17879189824E-01  0.24026252799E-01  0.00000000000E+00 0. -1.
     999901    1    3    3    0    0 -0.10466150000E+00 -0.47530883735E-01 -0.87058254026E-01  0.89173558530E+00  0.88000000000E+00 0.  1.
        -11    1    4    4    0    0  0.60618087602E-01  0.38730125453E-01  0.57989110283E-01  0.92398989143E-01  0.51100000000E-03 0.  1.
         11    1    4    4    0    0  0.29829053760E-01  0.16253771319E-01  0.11189953919E-01  0.35769172761E-01  0.51100000000E-03 0. -1.
</event>
<event>
 8    1  0.1122465E+005  0.1043930E+01  0.7957747E-01            NaN
         13   -1    0    0    0    0  0.00000000000E+00  0.00000000000E+00  0.74505805969E-08  0.10566000000E+00  0.10566000000E+00 0. -1.
     999900   -1    0    0    0    0 -0.00000000000E+00 -0.00000000000E+00 -0.74505805969E-08  0.93827000000E+00  0.93827000000E+00 0.  1.
     999902    2    1    2    0    0 -0.13775640223E-01 -0.19583122539E-01 -0.31490392006E-02  0.10197808095E+01  0.10194948338E+01 0.  0.
     999903    2    3    3    0    0 -0.75725473025E-01 -0.88507818928E-01  0.60354566084E-01  0.13263871075E+00  0.19554351609E-01 0.  0.
         14    1    1    2    0    0  0.13775640223E-01  0.19583122539E-01  0.31490392006E-02  0.24149190459E-01  0.00000000000E+00 0. -1.
     999901    1    3    3    0    0  0.61949832802E-01  0.68924696389E-01 -0.63503605285E-01  0.88714209879E+00  0.88000000000E+00 0. -1.
        -11    1    4    4    0    0 -0.27145495295E-01 -0.42567913116E-01  0.18588197089E-01  0.53802298593E-01  0.51100000000E-03 0.  1.
         11    1    4    4    0    0 -0.48579977730E-01 -0.45939905812E-01  0.41766368996E-01  0.78836412160E-01  0.51100000000E-03 0. -1.
</event>
<event>
 8    1  0.1122465E+005  0.1043930E+01  0.7957747E-01            NaN
         13   -1    0    0    0    0  0.00000000000E+00  0.00000000000E+00  0.74505805969E-08  0.10566000000E+00  0.10566000000E+00 0.  1.
     999900   -1    0    0    0    0 -0.00000000000E+00 -0.00000000000E+00 -0.74505805969E-08  0.93827000000E+00  0.93827000000E+00 0. -1.
     999902    2    1    2    0    0 -0.23725008290E-01  0.70232094817E-02  0.22731907247E-01  0.10103302813E+01  0.10097714277E+01 0.  0.
     999903    2    3    3    0    0  0.66558937692E-01 -0.16171380192E-01 -0.93518619012E-01  0.11780388687E+00  0.20986136756E-01 0.  0.
         14    1    1    2    0    0  0.23725008290E-01 -0.70232094817E-02 -0.22731907247E-01  0.33599718703E-01  0.00000000000E+00 0. -1.
     999901    1    3    3    0    0 -0.90283945983E-01  0.23194589673E-01  0.11625052626E+00  0.89252639443E+00  0.88000000000E+00 0.  1.
        -11    1    4    4    0    0  0.31102506822E-01 -0.10585010037E-01 -0.61380491053E-01  0.69622081059E-01  0.51100000000E-03 0.  1.
         11    1    4    4    0    0  0.35456430870E-01 -0.55863701549E-02 -0.32138127959E-01  0.48181805811E-01  0.51100000000E-03 0. -1.
</event>
<event>
 8    1  0.1122465E+005  0.1043930E+01  0.7957747E-01            NaN
         13   -1    0    0    0    0  0.00000000000E+00  0.00000000000E+00  0.74505805969E-08  0.10566000000E+00  0.10566000000E+00 0.  1.
     999900   -1    0    0    0    0 -0.00000000000E+00 -0.00000000000E+00 -0.74505805969E-08  0.93827000000E+00  0.93827000000E+00 0.  1.
     999902    2    1    2    0    0  0.13558042992E-01  0.16338471070E-02 -0.19552404389E-01  0.10200807547E+01  0.10198019217E+01 0.  0.
     999903    2    3    3    0    0 -0.13392893812E-02 -0.53895814531E-01  0.11448024271E+00  0.12807726569E+00  0.19786548329E-01 0.  0.
         14    1    1    2    0    0 -0.13558042992E-01 -0.16338471070E-02  0.19552404389E-01  0.23849245346E-01  0.00000000000E+00 0.  1.
     999901    1    3    3    0    0  0.14897332373E-01  0.55529661638E-01 -0.13403264710E+00  0.89200348896E+00  0.88000000000E+00 0.  1.
        -11    1    4    4    0    0 -0.89990005956E-02 -0.13434401482E-01  0.35141702036E-01  0.38686761275E-01  0.51100000000E-03 0. -1.
         11    1    4    4    0    0  0.76597112144E-02 -0.40461413049E-01  0.79338540678E-01  0.89390504416E-01  0.51100000000E-03 0.  1.
</event>
<event>
 8    1  0.1122465E+005  0.1043930E+01  0.7957747E-01            NaN
         13   -1    0    0    0    0  0.00000000000E+00  0.00000000000E+00  0.74505805969E-08  0.10566000000E+00  0.10566000000E+00 0.  1.
     999900   -1    0    0    0    0 -0.00000000000E+00 -0.00000000000E+00 -0.74505805969E-08  0.93827000000E+00  0.93827000000E+00 0.  1.
     999902    2    1    2    0    0 -0.21890818386E-01 -0.99356338296E-02 -0.11365913337E-03  0.10198896658E+01  0.10196062930E+01 0.  0.
     999903    2    3    3    0    0  0.11888611327E+00 -0.29239701860E-01 -0.31292931554E-01  0.12794631641E+00  0.20053533939E-01 0.  0.
         14    1    1    2    0    0  0.21890818386E-01  0.99356338296E-02  0.11365913337E-03  0.24040334183E-01  0.00000000000E+00 0. -1.
     999901    1    3    3    0    0 -0.14077693166E+00  0.19304068031E-01  0.31179272421E-01  0.89194334941E+00  0.88000000000E+00 0. -1.
        -11    1    4    4    0    0  0.87356742222E-01 -0.12330232222E-01 -0.20528016182E-01  0.90580878819E-01  0.51100000000E-03 0. -1.
         11    1    4    4    0    0  0.31529371048E-01 -0.16909469638E-01 -0.10764915372E-01  0.37365437588E-01  0.51100000000E-03 0.  1.
</event>
<event>
 8    1  0.1122465E+005  0.1043930E+01  0.7957747E-01            NaN
         13   -1    0    0    0    0  0.00000000000E+00  0.00000000000E+00  0.74505805969E-08  0.10566000000E+00  0.10566000000E+00 0. -1.
     999900   -1    0    0    0    0 -0.00000000000E+00 -0.00000000000E+00 -0.74505805969E-08  0.93827000000E+00  0.93827000000E+00 0.  1.
     999902    2    1    2    0    0  0.11576084798E-01  0.60179354135E-02  0.18197570801E-01  0.10215386430E+01  0.10212932127E+01 0.  0.
     999903    2    3    3    0    0 -0.17119672922E-01  0.10415382935E-02 -0.12657123598E+00  0.12923476064E+00  0.19676828429E-01 0.  0.
         14    1    1    2    0    0 -0.11576084798E-01 -0.60179354135E-02 -0.18197570801E-01  0.22391357014E-01  0.00000000000E+00 0.  1.
     999901    1    3    3    0    0  0.28695757720E-01  0.49763971200E-02  0.14476880678E+00  0.89230388235E+00  0.88000000000E+00 0. -1.
        -11    1    4    4    0    0 -0.38063856794E-02  0.25680790956E-02 -0.92560003188E-01  0.92675233549E-01  0.51100000000E-03 0. -1.
         11    1    4    4    0    0 -0.13313287243E-01 -0.15265408021E-02 -0.34011232789E-01  0.36559527088E-01  0.51100000000E-03 0.  1.
</event>
<event>
 8    1  0.1122465E+005  0.1043930E+01  0.7957747E-01            NaN
         13   -1    0    0    0    0  0.00000000000E+00  0.00000000000E+00  0.74505805969E-08  0.10566000000E+00  0.10566000000E+00 0.  1.
     999900   -1    0    0    0    0 -0.00000000000E+00 -0.00000000000E+00 -0.74505805969E-08  0.93827000000E+00  0.93827000000E+00 0.  1.
     999902    2    1    2    0    0 -0.18832098422E-01  0.14455868506E-01 -0.11910266223E-02  0.10201594592E+01  0.10198824852E+01 0.  0.
     999903    2    3    3    0    0 -0.13629052310E-01  0.12469039611E+00  0.37426529210E-01  0.13242636960E+00  0.20063706715E-01 0.  0.
         14    1    1    2    0    0  0.18832098422E-01 -0.14455868506E-01  0.11910266223E-02  0.23770540795E-01  0.00000000000E+00 0.  1.
     999901    1    3    3    0    0 -0.52030461125E-02 -0.11023452760E+00 -0.38617555832E-01  0.88773308961E+00  0.88000000000E+00 0.  1.
        -11    1    4    4    0    0 -0.16369242842E-01  0.81717660569E-01  0.18411817786E-01  0.85352119571E-01  0.51100000000E-03 0.  1.
         11    1    4    4    0    0  0.27401905317E-02  0.42972735541E-01  0.19014711424E-01  0.47074250027E-01  0.51100000000E-03 0. -1.
</event>
<event>
 8    1  0.1122465E+005  0.1043930E+01  0.7957747E-01            NaN
         13   -1    0    0    0    0  0.00000000000E+00  0.00000000000E+00  0.74505805969E-08  0.10566000000E+00  0.10566000000E+00 0.  1.
     999900   -1    0    0    0    0 -0.00000000000E+00 -0.00000000000E+00 -0.74505805969E-08  0.93827000000E+00  0.93827000000E+00 0.  1.
     999902    2    1    2    0    0 -0.20919679392E-01  0.93674126368E-02  0.23989607231E-02  0.10208836029E+01  0.10206234341E+01 0.  0.
     999903    2    3    3    0    0  0.39853321903E-01 -0.11547124245E+00 -0.35152612007E-01  0.12920643708E+00  0.23166833003E-01 0.  0.
         14    1    1    2    0    0  0.20919679392E-01 -0.93674126368E-02 -0.23989607231E-02  0.23046397070E-01  0.00000000000E+00 0.  1.
     999901    1    3    3    0    0 -0.60773001295E-01  0.12483865509E+00  0.37551572730E-01  0.89167716585E+00  0.88000000000E+00 0.  1.
        -11    1    4    4    0    0  0.15349432085E-01 -0.60439953758E-01 -0.71350551487E-02  0.62767533077E-01  0.51100000000E-03 0. -1.
         11    1    4    4    0    0  0.24503889819E-01 -0.55031288692E-01 -0.28017556858E-01  0.66438903999E-01  0.51100000000E-03 0.  1.
</event>
<event>
 8    1  0.1122465E+005  0.1043930E+01  0.7957747E-01            NaN
         13   -1    0    0    0    0  0.00000000000E+00  0.00000000000E+00  0.74505805969E-08  0.10566000000E+00  0.10566000000E+00 0. -1.
     999900   -1    0    0    0    0 -0.00000000000E+00 -0.00000000000E+00 -0.74505805969E-08  0.93827000000E+00  0.93827000000E+00 0.  1.
     999902    2    1    2    0    0 -0.19467457183E-01  0.50237689177E-02 -0.22952148515E-02  0.10236941863E+01  0.10234941617E+01 0.  0.
     999903    2    3    3    0    0 -0.11314784666E+00  0.54580953941E-01  0.47943184157E-01  0.13591277929E+00  0.19804517968E-01 0.  0.
         14    1    1    2    0    0  0.19467457183E-01 -0.50237689177E-02  0.22952148515E-02  0.20235813661E-01  0.00000000000E+00 0.  1.
     999901    1    3    3    0    0  0.93680389475E-01 -0.49557185023E-01 -0.50238399009E-01  0.88778140704E+00  0.88000000000E+00 0. -1.
        -11    1    4    4    0    0 -0.56329216199E-01  0.35949438374E-01  0.31612584394E-01  0.73925363239E-01  0.51100000000E-03 0.  1.
         11    1    4    4    0    0 -0.56818630459E-01  0.18631515567E-01  0.16330599763E-01  0.61987416055E-01  0.51100000000E-03 0. -1.
</event>
<event>
 8    1  0.1122465E+005  0.1043930E+01  0.7957747E-01            NaN
         13   -1    0    0    0    0  0.00000000000E+00  0.00000000000E+00  0.74505805969E-08  0.10566000000E+00  0.10566000000E+00 0. -1.
     999900   -1    0    0    0    0 -0.00000000000E+00 -0.00000000000E+00 -0.74505805969E-08  0.93827000000E+00  0.93827000000E+00 0. -1.
     999902    2    1    2    0    0 -0.25210975965E-02 -0.18263421579E-01 -0.15101653609E-01  0.10200979115E+01  0.10198194843E+01 0.  0.
     999903    2    3    3    0    0  0.12521833993E+00 -0.11311091923E-01  0.26134368609E-01  0.12989225642E+00  0.19529966721E-01 0.  0.
         14    1    1    2    0    0  0.25210975965E-02  0.18263421579E-01  0.15101653609E-01  0.23832088507E-01  0.00000000000E+00 0. -1.
     999901    1    3    3    0    0 -0.12773943753E+00 -0.69523296553E-02 -0.41236022218E-01  0.89020565507E+00  0.88000000000E+00 0. -1.
        -11    1    4    4    0    0  0.75271524971E-01 -0.15222190576E-01  0.20417814850E-01  0.79464871746E-01  0.51100000000E-03 0.  1.
         11    1    4    4    0    0  0.49946814963E-01  0.39110986524E-02  0.57165537595E-02  0.50427384678E-01  0.51100000000E-03 0. -1.
</event>
<event>
 8    1  0.1122465E+005  0.1043930E+01  0.7957747E-01            NaN
         13   -1    0    0    0    0  0.00000000000E+00  0.00000000000E+00  0.74505805969E-08  0.10566000000E+00  0.10566000000E+00 0. -1.
     999900   -1    0    0    0    0 -0.00000000000E+00 -0.00000000000E+00 -0.74505805969E-08  0.93827000000E+00  0.93827000000E+00 0.  1.
     999902    2    1    2    0    0 -0.20096744544E-01  0.20518258880E-02 -0.83745550288E-02  0.10220617055E+01  0.10218277289E+01 0.  0.
     999903    2    3    3    0    0  0.14150081531E-01  0.11827946956E-01  0.12803136308E+00  0.13084063749E+00  0.19675297935E-01 0.  0.
         14    1    1    2    0    0  0.20096744544E-01 -0.20518258880E-02  0.83745550288E-02  0.21868294462E-01  0.00000000000E+00 0.  1.
     999901    1    3    3    0    0 -0.34246826075E-01 -0.97761210675E-02 -0.13640591811E+00  0.89122106805E+00  0.88000000000E+00 0.  1.
        -11    1    4    4    0    0  0.17902154230E-01  0.41165466319E-02  0.87250381801E-01  0.89164585613E-01  0.51100000000E-03 0. -1.
         11    1    4    4    0    0 -0.37520726992E-02  0.77114003236E-02  0.40780981283E-01  0.41676051875E-01  0.51100000000E-03 0.  1.
</event>
<event>
 8    1  0.1122465E+005  0.1043930E+01  0.7957747E-01            NaN
         13   -1    0    0    0    0  0.00000000000E+00  0.00000000000E+00  0.74505805969E-08  0.10566000000E+00  0.10566000000E+00 0. -1.
     999900   -1    0    0    0    0 -0.00000000000E+00 -0.00000000000E+00 -0.74505805969E-08  0.93827000000E+00  0.93827000000E+00 0.  1.
     999902    2    1    2    0    0 -0.10093958320E-01 -0.16287828069E-01  0.14114212940E-01  0.10201310012E+01  0.10198533557E+01 0.  0.
     999903    2    3    3    0    0 -0.81190276454E-02 -0.58584762542E-01  0.11755323555E+00  0.13306135205E+00  0.19709571501E-01 0.  0.
         14    1    1    2    0    0  0.10093958320E-01  0.16287828069E-01 -0.14114212940E-01  0.23798998817E-01  0.00000000000E+00 0.  1.
     999901    1    3    3    0    0 -0.19749306741E-02  0.42296934473E-01 -0.10343902261E+00  0.88706964913E+00  0.88000000000E+00 0.  1.
        -11    1    4    4    0    0  0.44839506915E-03 -0.31579714736E-01  0.80051369125E-01  0.86057900629E-01  0.51100000000E-03 0. -1.
         11    1    4    4    0    0 -0.85674227146E-02 -0.27005047806E-01  0.37501866425E-01  0.47003451419E-01  0.51100000000E-03 0.  1.
</event>
<event>
 8    1  0.1122465E+005  0.1043930E+01  0.7957747E-01            NaN
         13   -1    0    0    0    0  0.00000000000E+00  0.00000000000E+00  0.74505805969E-08  0.10566000000E+00  0.10566000000E+00 0.  1.
     999900   -1    0    0    0    0 -0.00000000000E+00 -0.00000000000E+00 -0.74505805969E-08  0.93827000000E+00  0.93827000000E+00 0.  1.
     999902    2    1    2    0    0 -0.21407083173E-02  0.69201242465E-03  0.24382447506E-01  0.10194439783E+01  0.10191498710E+01 0.  0.
     999903    2    3    3    0    0 -0.13689076876E-01  0.86353686636E-01  0.98121960710E-01  0.13213974463E+00  0.13734733923E-01 0.  0.
         14    1    1    2    0    0  0.21407083173E-02 -0.69201242465E-03 -0.24382447506E-01  0.24486021721E-01  0.00000000000E+00 0. -1.
     999901    1    3    3    0    0  0.11548368558E-01 -0.85661674211E-01 -0.73739513203E-01  0.88730423365E+00  0.88000000000E+00 0. -1.
        -11    1    4    4    0    0 -0.14267960705E-01  0.59127819299E-01  0.61498971336E-01  0.86498891982E-01  0.51100000000E-03 0.  1.
         11    1    4    4    0    0  0.57888382917E-03  0.27225867337E-01  0.36622989374E-01  0.45640852648E-01  0.51100000000E-03 0. -1.
</event>
<event>
 8    1  0.1122465E+005  0.1043930E+01  0.7957747E-01            NaN
         13   -1    0    0    0    0  0.00000000000E+00  0.00000000000E+00  0.74505805969E-08  0.10566000000E+00  0.10566000000E+00 0. -1.
     999900   -1    0    0    0    0 -0.00000000000E+00 -0.00000000000E+00 -0.74505805969E-08  0.93827000000E+00  0.93827000000E+00 0.  1.
     999902    2    1    2    0    0  0.11960537760E-01 -0.71624815838E-02 -0.19065482517E-01  0.10203111891E+01  0.10200377808E+01 0.  0.
     999903    2    3    3    0    0  0.11988912915E+00  0.31793923921E-01  0.37285253586E-01  0.13107466945E+00  0.20152467578E-01 0.  0.
         14    1    1    2    0    0 -0.11960537760E-01  0.71624815838E-02  0.19065482517E-01  0.23618810926E-01  0.00000000000E+00 0. -1.
     999901    1    3    3    0    0 -0.10792859139E+00 -0.38956405504E-01 -0.56350736103E-01  0.88923651962E+00  0.88000000000E+00 0. -1.
        -11    1    4    4    0    0  0.59071483209E-01  0.15424756849E-01  0.78671509381E-02  0.61559048378E-01  0.51100000000E-03 0.  1.
         11    1    4    4    0    0  0.60817645945E-01  0.16369167072E-01  0.29418102648E-01  0.69515621075E-01  0.51100000000E-03 0. -1.
</event>
<event>
 8    1  0.1122465E+005  0.1043930E+01  0.7957747E-01            NaN
         13   -1    0    0    0    0  0.00000000000E+00  0.00000000000E+00  0.74505805969E-08  0.10566000000E+00  0.10566000000E+00 0.  1.
     999900   -1    0    0    0    0 -0.00000000000E+00 -0.00000000000E+00 -0.74505805969E-08  0.93827000000E+00  0.93827000000E+00 0.  1.
     999902    2    1    2    0    0 -0.86273199722E-02  0.21354155618E-01  0.57346008524E-02  0.10201957155E+01  0.10199195957E+01 0.  0.
     999903    2    3    3    0    0  0.20089066469E-01  0.10572953236E+00  0.75521121166E-01  0.13294490913E+00  0.19713054465E-01 0.  0.
         14    1    1    2    0    0  0.86273199722E-02 -0.21354155618E-01 -0.57346008524E-02  0.23734284464E-01  0.00000000000E+00 0. -1.
     999901    1    3    3    0    0 -0.28716386441E-01 -0.84375376744E-01 -0.69786520313E-01  0.88725080641E+00  0.88000000000E+00 0. -1.
        -11    1    4    4    0    0  0.42946246190E-02  0.11114174224E-01  0.16349528092E-01  0.20237017051E-01  0.51100000000E-03 0.  1.
         11    1    4    4    0    0  0.15794441850E-01  0.94615358138E-01  0.59171593074E-01  0.11270789208E+00  0.51100000000E-03 0. -1.
</event>
<event>
 8    1  0.1122465E+005  0.1043930E+01  0.7957747E-01            NaN
         13   -1    0    0    0    0  0.00000000000E+00  0.00000000000E+00  0.74505805969E-08  0.10566000000E+00  0.10566000000E+00 0.  1.
     999900   -1    0    0    0    0 -0.00000000000E+00 -0.00000000000E+00 -0.74505805969E-08  0.93827000000E+00  0.93827000000E+00 0. -1.
     999902    2    1    2    0    0  0.92783132948E-02 -0.78004439064E-03  0.19492080478E-01  0.10223282230E+01  0.10220999750E+01 0.  0.
     999903    2    3    3    0    0  0.28669294518E-01 -0.42681608155E-01 -0.11812969573E+00  0.13043613063E+00  0.20379181454E-01 0.  0.
         14    1    1    2    0    0 -0.92783132948E-02  0.78004439064E-03 -0.19492080478E-01  0.21601776969E-01  0.00000000000E+00 0. -1.
     999901    1    3    3    0    0 -0.19390981223E-01  0.41901563765E-01  0.13762177621E+00  0.89189209240E+00  0.88000000000E+00 0.  1.
        -11    1    4    4    0    0  0.16583128019E-01 -0.13136712520E-01 -0.30088334480E-01  0.36785083166E-01  0.51100000000E-03 0. -1.
         11    1    4    4    0    0  0.12086166498E-01 -0.29544895635E-01 -0.88041361255E-01  0.93651047465E-01  0.51100000000E-03 0.  1.
</event>
<event>
 8    1  0.1122465E+005  0.1043930E+01  0.7957747E-01            NaN
         13   -1    0    0    0    0  0.00000000000E+00  0.00000000000E+00  0.74505805969E-08  0.10566000000E+00  0.10566000000E+00 0.  1.
     999900   -1    0    0    0    0 -0.00000000000E+00 -0.00000000000E+00 -0.74505805969E-08  0.93827000000E+00  0.93827000000E+00 0.  1.
     999902    2    1    2    0    0  0.57565795822E-02 -0.20868787508E-01  0.98777683119E-02  0.10201347314E+01  0.10198571740E+01 0.  0.
     999903    2    3    3    0    0 -0.56486000725E-02 -0.12649394239E+00 -0.35322919066E-01  0.13259326556E+00  0.17339011381E-01 0.  0.
         14    1    1    2    0    0 -0.57565795822E-02  0.20868787508E-01 -0.98777683119E-02  0.23795268592E-01  0.00000000000E+00 0. -1.
     999901    1    3    3    0    0  0.11405179655E-01  0.10562515488E+00  0.45200687378E-01  0.88754146585E+00  0.88000000000E+00 0. -1.
        -11    1    4    4    0    0 -0.52418175283E-02 -0.75709509779E-01 -0.29689533201E-01  0.81493165509E-01  0.51100000000E-03 0.  1.
         11    1    4    4    0    0 -0.40678254423E-03 -0.50784432610E-01 -0.56333858651E-02  0.51100100047E-01  0.51100000000E-03 0. -1.
</event>
<event>
 8    1  0.1122465E+005  0.1043930E+01  0.7957747E-01            NaN
         13   -1    0    0    0    0  0.00000000000E+00  0.00000000000E+00  0.74505805969E-08  0.10566000000E+00  0.10566000000E+00 0. -1.
     999900   -1    0    0    0    0 -0.00000000000E+00 -0.00000000000E+00 -0.74505805969E-08  0.93827000000E+00  0.93827000000E+00 0.  1.
     999902    2    1    2    0    0  0.49159803481E-03  0.19596155083E-01  0.13795283366E-01  0.10199600020E+01  0.10196783046E+01 0.  0.
     999903    2    3    3    0    0  0.23326036831E-02 -0.32793023028E-01 -0.12208844858E+00  0.12798892402E+00  0.19868366672E-01 0.  0.
         14    1    1    2    0    0 -0.49159803481E-03 -0.19596155083E-01 -0.13795283366E-01  0.23969998035E-01  0.00000000000E+00 0.  1.
     999901    1    3    3    0    0 -0.18410056483E-02  0.52389178111E-01  0.13588373195E+00  0.89197107795E+00  0.88000000000E+00 0. -1.
        -11    1    4    4    0    0 -0.20560761333E-02 -0.18730362490E-02 -0.40931394226E-01  0.41028963771E-01  0.51100000000E-03 0.  1.
         11    1    4    4    0    0  0.43886798164E-02 -0.30919986779E-01 -0.81157054359E-01  0.86959960247E-01  0.51100000000E-03 0. -1.
</event>
<event>
 8    1  0.1122465E+005  0.1043930E+01  0.7957747E-01            NaN
         13   -1    0    0    0    0  0.00000000000E+00  0.00000000000E+00  0.74505805969E-08  0.10566000000E+00  0.10566000000E+00 0.  1.
     999900   -1    0    0    0    0 -0.00000000000E+00 -0.00000000000E+00 -0.74505805969E-08  0.93827000000E+00  0.93827000000E+00 0.  1.
     999902    2    1    2    0    0 -0.17316575146E-01 -0.46596828893E-02  0.14924936764E-01  0.10205991158E+01  0.10203324091E+01 0.  0.
     999903    2    3    3    0    0  0.27646570853E-01 -0.69079339506E-02  0.12755571965E+00  0.13227911020E+00  0.20377658034E-01 0.  0.
         14    1    1    2    0    0  0.17316575146E-01  0.46596828893E-02 -0.14924936764E-01  0.23330884184E-01  0.00000000000E+00 0. -1.
     999901    1    3    3    0    0 -0.44963145998E-01  0.22482510612E-02 -0.11263078289E+00  0.88832000562E+00  0.88000000000E+00 0.  1.
        -11    1    4    4    0    0  0.16982642547E-01 -0.61310437477E-02  0.37872819697E-01  0.41959640586E-01  0.51100000000E-03 0.  1.
         11    1    4    4    0    0  0.10663928306E-01 -0.77689020291E-03  0.89682899954E-01  0.90319469609E-01  0.51100000000E-03 0. -1.
</event>
<event>
 8    1  0.1122465E+005  0.1043930E+01  0.7957747E-01            NaN
         13   -1    0    0    0    0  0.00000000000E+00  0.00000000000E+00  0.74505805969E-08  0.10566000000E+00  0.10566000000E+00 0.  1.
     999900   -1    0    0    0    0 -0.00000000000E+00 -0.00000000000E+00 -0.74505805969E-08  0.93827000000E+00  0.93827000000E+00 0. -1.
     999902    2    1    2    0    0 -0.95550801991E-03 -0.20155100143E-01  0.12736467748E-01  0.10200687622E+01  0.10197896455E+01 0.  0.
     999903    2    3    3    0    0  0.11180163467E+00 -0.17349242739E-02  0.65533280772E-01  0.13111376923E+00  0.19839206518E-01 0.  0.
         14    1    1    2    0    0  0.95550801991E-03  0.20155100143E-01 -0.12736467748E-01  0.23861237772E-01  0.00000000000E+00 0. -1.
     999901    1    3    3    0    0 -0.11275714269E+00 -0.18420175869E-01 -0.52796813024E-01  0.88895499300E+00  0.88000000000E+00 0.  1.
        -11    1    4    4    0    0  0.64843550358E-01 -0.71295283805E-02  0.29097619864E-01  0.71431427262E-01  0.51100000000E-03 0. -1.
         11    1    4    4    0    0  0.46958084316E-01  0.53946041066E-02  0.36435660909E-01  0.59682341969E-01  0.51100000000E-03 0.  1.
</event>
<event>
 8    1  0.1122465E+005  0.1043930E+01  0.7957747E-01            NaN
         13   -1    0    0    0    0  0.00000000000E+00  0.00000000000E+00  0.74505805969E-08  0.10566000000E+00  0.10566000000E+00 0.  1.
     999900   -1    0    0    0    0 -0.00000000000E+00 -0.00000000000E+00 -0.74505805969E-08  0.93827000000E+00  0.93827000000E+00 0. -1.
     999902    2    1    2    0    0  0.23470847413E-01  0.25476359497E-01  0.12383372679E-02  0.10092679307E+01  0.10086725419E+01 0.  0.
     999903    2    3    3    0    0 -0.16322792160E-01  0.11624150758E+00 -0.31225832896E-01  0.12311006200E+00  0.20062729028E-01 0.  0.
         14    1    1    2    0    0 -0.23470847413E-01 -0.25476359497E-01 -0.12383372679E-02  0.34662069337E-01  0.00000000000E+00 0. -1.
     999901    1    3    3    0    0  0.39793639573E-01 -0.90765148083E-01  0.32464170164E-01  0.88615786867E+00  0.88000000000E+00 0.  1.
        -11    1    4    4    0    0  0.75721129193E-03  0.19189115007E-01 -0.12164434747E-01  0.22738295834E-01  0.51100000000E-03 0.  1.
         11    1    4    4    0    0 -0.17080003452E-01  0.97052392573E-01 -0.19061398149E-01  0.10037176616E+00  0.51100000000E-03 0. -1.
</event>
<event>
 8    1  0.1122465E+005  0.1043930E+01  0.7957747E-01            NaN
         13   -1    0    0    0    0  0.00000000000E+00  0.00000000000E+00  0.74505805969E-08  0.10566000000E+00  0.10566000000E+00 0.  1.
     999900   -1    0    0    0    0 -0.00000000000E+00 -0.00000000000E+00 -0.74505805969E-08  0.93827000000E+00  0.93827000000E+00 0. -1.
     999902    2    1    2    0    0  0.15330928091E-01 -0.15971915978E-01 -0.71965938542E-02  0.10206506010E+01  0.10203850836E+01 0.  0.
     999903    2    3    3    0    0  0.17829391136E-01 -0.82029799157E-01 -0.10143618641E+00  0.13315356602E+00  0.19844321385E-01 0.  0.
         14    1    1    2    0    0 -0.15330928091E-01  0.15971915978E-01  0.71965938542E-02  0.23279399030E-01  0.00000000000E+00 0.  1.
     999901    1    3    3    0    0 -0.24984630450E-02  0.66057883179E-01  0.94239592555E-01  0.88749703495E+00  0.88000000000E+00 0.  1.
        -11    1    4    4    0    0  0.53777575298E-02 -0.52967855601E-01 -0.51681279890E-01  0.74200605220E-01  0.51100000000E-03 0.  1.
         11    1    4    4    0    0  0.12451633606E-01 -0.29061943556E-01 -0.49754906519E-01  0.58952960795E-01  0.51100000000E-03 0. -1.
</event>
<event>
 8    1  0.1122465E+005  0.1043930E+01  0.7957747E-01            NaN
         13   -1    0    0    0    0  0.00000000000E+00  0.00000000000E+00  0.74505805969E-08  0.10566000000E+00  0.10566000000E+00 0.  1.
     999900   -1    0    0    0    0 -0.00000000000E+00 -0.00000000000E+00 -0.74505805969E-08  0.93827000000E+00  0.93827000000E+00 0.  1.
     999902    2    1    2    0    0  0.15205756825E-02  0.23456450348E-01  0.27170551475E-02  0.10202678023E+01  0.10199933768E+01 0.  0.
     999903    2    3    3    0    0  0.84454082500E-01  0.90704868952E-01  0.43614677580E-01  0.13287108608E+00  0.19814643918E-01 0.  0.
         14    1    1    2    0    0 -0.15205756825E-02 -0.23456450348E-01 -0.27170551475E-02  0.23662197743E-01  0.00000000000E+00 0.  1.
     999901    1    3    3    0    0 -0.82933506818E-01 -0.67248418604E-01 -0.40897622433E-01  0.88739671618E+00  0.88000000000E+00 0.  1.
        -11    1    4    4    0    0  0.56760480440E-01  0.46667541112E-01  0.25248478025E-01  0.77700439489E-01  0.51100000000E-03 0. -1.
         11    1    4    4    0    0  0.27693602060E-01  0.44037327841E-01  0.18366199555E-01  0.55170646593E-01  0.51100000000E-03 0.  1.
</event>
<event>
 8    1  0.1122465E+005  0.1043930E+01  0.7957747E-01            NaN
         13   -1    0    0    0    0  0.00000000000E+00  0.00000000000E+00  0.74505805969E-08  0.10566000000E+00  0.10566000000E+00 0. -1.
     999900   -1    0    0    0    0 -0.00000000000E+00 -0.00000000000E+00 -0.74505805969E-08  0.93827000000E+00  0.93827000000E+00 0.  1.
     999902    2    1    2    0    0  0.84660260273E-02 -0.12298722542E-01 -0.18440434345E-01  0.10202027627E+01  0.10199268087E+01 0.  0.
     999903    2    3    3    0    0 -0.12741177725E-01  0.85676565252E-02 -0.13017611504E+00  0.13263867280E+00  0.20284335015E-01 0.  0.
         14    1    1    2    0    0 -0.84660260273E-02  0.12298722542E-01  0.18440434345E-01  0.23727237338E-01  0.00000000000E+00 0. -1.
     999901    1    3    3    0    0  0.21207203752E-01 -0.20866379067E-01  0.11173568070E+00  0.88756408986E+00  0.88000000000E+00 0. -1.
        -11    1    4    4    0    0 -0.15375710265E-01  0.11587441198E-01 -0.12208702524E+00  0.12359686126E+00  0.51100000000E-03 0. -1.
         11    1    4    4    0    0  0.26345325409E-02 -0.30197846731E-02 -0.80890898035E-02  0.90418115458E-02  0.51100000000E-03 0.  1.
</event>
<event>
 8    1  0.1122465E+005  0.1043930E+01  0.7957747E-01            NaN
         13   -1    0    0    0    0  0.00000000000E+00  0.00000000000E+00  0.74505805969E-08  0.10566000000E+00  0.10566000000E+00 0.  1.
     999900   -1    0    0    0    0 -0.00000000000E+00 -0.00000000000E+00 -0.74505805969E-08  0.93827000000E+00  0.93827000000E+00 0.  1.
     999902    2    1    2    0    0  0.11494421728E-01  0.20892739311E-01  0.30076132769E-03  0.10200821753E+01  0.10198033759E+01 0.  0.
     999903    2    3    3    0    0  0.65834402474E-01 -0.29015251945E-01 -0.10612910291E+00  0.13060426262E+00  0.24860280250E-01 0.  0.
         14    1    1    2    0    0 -0.11494421728E-01 -0.20892739311E-01 -0.30076132769E-03  0.23847824726E-01  0.00000000000E+00 0. -1.
     999901    1    3    3    0    0 -0.54339980745E-01  0.49907991257E-01  0.10642986424E+00  0.88947791266E+00  0.88000000000E+00 0. -1.
        -11    1    4    4    0    0  0.26355299531E-01 -0.12703719693E-01 -0.23289771974E-01  0.37398675204E-01  0.51100000000E-03 0.  1.
         11    1    4    4    0    0  0.39479102943E-01 -0.16311532252E-01 -0.82839330941E-01  0.93205587415E-01  0.51100000000E-03 0. -1.
</event>
<event>
 8    1  0.1122465E+005  0.1043930E+01  0.7957747E-01            NaN
         13   -1    0    0    0    0  0.00000000000E+00  0.00000000000E+00  0.74505805969E-08  0.10566000000E+00  0.10566000000E+00 0. -1.
     999900   -1    0    0    0    0 -0.00000000000E+00 -0.00000000000E+00 -0.74505805969E-08  0.93827000000E+00  0.93827000000E+00 0.  1.
     999902    2    1    2    0    0 -0.51166015834E-02 -0.66265735903E-02 -0.20831072467E-01  0.10214795063E+01  0.10212327634E+01 0.  0.
     999903    2    3    3    0    0 -0.51702847707E-01 -0.28956083909E-01  0.11373977688E+00  0.12975185789E+00  0.19676598406E-01 0.  0.
         14    1    1    2    0    0  0.51166015834E-02  0.66265735903E-02  0.20831072467E-01  0.22450493746E-01  0.00000000000E+00 0. -1.
     999901    1    3    3    0    0  0.46586246123E-01  0.22329510318E-01 -0.13457084935E+00  0.89172764836E+00  0.88000000000E+00 0.  1.
        -11    1    4    4    0    0 -0.21031184837E-01 -0.10142427961E-01  0.26166155119E-01  0.35072900868E-01  0.51100000000E-03 0. -1.
         11    1    4    4    0    0 -0.30671662869E-01 -0.18813655948E-01  0.87573621764E-01  0.94678957024E-01  0.51100000000E-03 0.  1.
</event>
<event>
 8    1  0.1122465E+005  0.1043930E+01  0.7957747E-01            NaN
         13   -1    0    0    0    0  0.00000000000E+00  0.00000000000E+00  0.74505805969E-08  0.10566000000E+00  0.10566000000E+00 0.  1.
     999900   -1    0    0    0    0 -0.00000000000E+00 -0.00000000000E+00 -0.74505805969E-08  0.93827000000E+00  0.93827000000E+00 0.  1.
     999902    2    1    2    0    0  0.23316258978E-01  0.20040110611E-02 -0.18919591029E-02  0.10204514246E+01  0.10201812910E+01 0.  0.
     999903    2    3    3    0    0  0.53652361605E-01 -0.17192154022E-01 -0.11800461118E+00  0.13209849933E+00  0.18729100383E-01 0.  0.
         14    1    1    2    0    0 -0.23316258978E-01 -0.20040110611E-02  0.18919591029E-02  0.23478575389E-01  0.00000000000E+00 0.  1.
     999901    1    3    3    0    0 -0.30336102627E-01  0.19196165083E-01  0.11611265208E+00  0.88835292528E+00  0.88000000000E+00 0. -1.
        -11    1    4    4    0    0  0.22328379801E-01 -0.16433161199E-02 -0.30301209561E-01  0.37678660462E-01  0.51100000000E-03 0.  1.
         11    1    4    4    0    0  0.31323981804E-01 -0.15548837902E-01 -0.87703401618E-01  0.94419838871E-01  0.51100000000E-03 0. -1.
</event>
<event>
 8    1  0.1122465E+005  0.1043930E+01  0.7957747E-01            NaN
         13   -1    0    0    0    0  0.00000000000E+00  0.00000000000E+00  0.74505805969E-08  0.10566000000E+00  0.10566000000E+00 0. -1.
     999900   -1    0    0    0    0 -0.00000000000E+00 -0.00000000000E+00 -0.74505805969E-08  0.93827000000E+00  0.93827000000E+00 0. -1.
     999902    2    1    2    0    0 -0.87557866149E-02 -0.48866701024E-02 -0.21833947601E-01  0.10199036684E+01  0.10196206295E+01 0.  0.
     999903    2    3    3    0    0 -0.10549575856E+00 -0.86215693759E-02 -0.77895789290E-01  0.13282108949E+00  0.19235417692E-01 0.  0.
         14    1    1    2    0    0  0.87557866149E-02  0.48866701024E-02  0.21833947601E-01  0.24026331634E-01  0.00000000000E+00 0. -1.
     999901    1    3    3    0    0  0.96739971941E-01  0.37348992735E-02  0.56061841689E-01  0.88708257887E+00  0.88000000000E+00 0.  1.
        -11    1    4    4    0    0 -0.14689531422E-01  0.15736591130E-02 -0.19136849630E-01  0.24181374468E-01  0.51100000000E-03 0. -1.
         11    1    4    4    0    0 -0.90806227133E-01 -0.10195228489E-01 -0.58758939660E-01  0.10863971503E+00  0.51100000000E-03 0.  1.
</event>
<event>
 8    1  0.1122465E+005  0.1043930E+01  0.7957747E-01            NaN
         13   -1    0    0    0    0  0.00000000000E+00  0.00000000000E+00  0.74505805969E-08  0.10566000000E+00  0.10566000000E+00 0.  1.
     999900   -1    0    0    0    0 -0.00000000000E+00 -0.00000000000E+00 -0.74505805969E-08  0.93827000000E+00  0.93827000000E+00 0. -1.
     999902    2    1    2    0    0  0.18842830785E-01  0.69320618520E-02  0.73877880574E-02  0.10225364223E+01  0.10223125989E+01 0.  0.
     999903    2    3    3    0    0 -0.29419220648E-01 -0.73076721340E-01 -0.10272197006E+00  0.13076582972E+00  0.18498684914E-01 0.  0.
         14    1    1    2    0    0 -0.18842830785E-01 -0.69320618520E-02 -0.73877880574E-02  0.21393577678E-01  0.00000000000E+00 0.  1.
     999901    1    3    3    0    0  0.48262051433E-01  0.80008783192E-01  0.11010975812E+00  0.89177059260E+00  0.88000000000E+00 0.  1.
        -11    1    4    4    0    0 -0.11922188856E-02 -0.19418757896E-01 -0.33515298101E-01  0.38756236555E-01  0.51100000000E-03 0.  1.
         11    1    4    4    0    0 -0.28227001762E-01 -0.53657963444E-01 -0.69206671960E-01  0.92009593165E-01  0.51100000000E-03 0. -1.
</event>
<event>
 8    1  0.1122465E+005  0.1043930E+01  0.7957747E-01            NaN
         13   -1    0    0    0    0  0.00000000000E+00  0.00000000000E+00  0.74505805969E-08  0.10566000000E+00  0.10566000000E+00 0.  1.
     999900   -1    0    0    0    0 -0.00000000000E+00 -0.00000000000E+00 -0.74505805969E-08  0.93827000000E+00  0.93827000000E+00 0. -1.
     999902    2    1    2    0    0 -0.74969985140E-02 -0.22588226572E-01 -0.47251265949E-03  0.10201254577E+01  0.10198476814E+01 0.  0.
     999903    2    3    3    0    0  0.74109385385E-01  0.35476143994E-01  0.97389667700E-01  0.12905414777E+00  0.20480915173E-01 0.  0.
         14    1    1    2    0    0  0.74969985140E-02  0.22588226572E-01  0.47251265949E-03  0.23804542310E-01  0.00000000000E+00 0. -1.
     999901    1    3    3    0    0 -0.81606383899E-01 -0.58064370566E-01 -0.97862180360E-01  0.89107130992E+00  0.88000000000E+00 0. -1.
        -11    1    4    4    0    0  0.39855400519E-01  0.29052750347E-01  0.63859543097E-01  0.80689637617E-01  0.51100000000E-03 0.  1.
         11    1    4    4    0    0  0.34253984866E-01  0.64233936477E-02  0.33530124603E-01  0.48364510150E-01  0.51100000000E-03 0. -1.
</event>
<event>
 8    1  0.1122465E+005  0.1043930E+01  0.7957747E-01            NaN
         13   -1    0    0    0    0  0.00000000000E+00  0.00000000000E+00  0.74505805969E-08  0.10566000000E+00  0.10566000000E+00 0. -1.
     999900   -1    0    0    0    0 -0.00000000000E+00 -0.00000000000E+00 -0.74505805969E-08  0.93827000000E+00  0.93827000000E+00 0. -1.
     999902    2    1    2    0    0 -0.13994127249E-02  0.18731875634E-01  0.13319111117E-01  0.10209030540E+01  0.10206433292E+01 0.  0.
     999903    2    3    3    0    0 -0.12751694546E+00  0.26242172254E-01  0.50466822218E-02  0.13184148713E+00  0.20186276150E-01 0.  0.
         14    1    1    2    0    0  0.13994127249E-02 -0.18731875634E-01 -0.13319111117E-01  0.23026945991E-01  0.00000000000E+00 0.  1.
     999901    1    3    3    0    0  0.12611753273E+00 -0.75102966198E-02  0.82724288949E-02  0.88906156688E+00  0.88000000000E+00 0. -1.
        -11    1    4    4    0    0 -0.50095297769E-01  0.51687832260E-02 -0.64754783911E-02  0.50778421795E-01  0.51100000000E-03 0.  1.
         11    1    4    4    0    0 -0.77421647687E-01  0.21073389028E-01  0.11522160613E-01  0.81063065337E-01  0.51100000000E-03 0. -1.
</event>
<event>
 7    1  0.1122465E+005  0.1043930E+01  0.7957747E-01            NaN
         13   -1    0    0    0    0  0.00000000000E+00  0.00000000000E+00  0.74505805969E-08  0.10566000000E+00  0.10566000000E+00 0. -1.
     999900   -1    0    0    0    0 -0.00000000000E+00 -0.00000000000E+00 -0.74505805969E-08  0.93827000000E+00  0.93827000000E+00 0.  1.
     999903    2    1    2    0    0  0.10433810096E-01 -0.79922696718E-01 -0.54709840843E-01  0.99554860349E-01  0.20530506336E-01 0.  0.
         14    1    1    2    0    0 -0.18671116251E-01 -0.42152579159E-02  0.57202613008E-01  0.60320128616E-01  0.00000000000E+00 0. -1.
     999901    1    1    2    0    0  0.82373061545E-02  0.84137954634E-01 -0.24927721651E-02  0.88405501103E+00  0.88000000000E+00 0.  1.
        -11    1    3    3    0    0  0.65904698365E-02 -0.14707002471E-01 -0.19624098588E-01  0.25398751559E-01  0.51100000000E-03 0.  1.
         11    1    3    3    0    0  0.38433402596E-02 -0.65215694246E-01 -0.35085742255E-01  0.74156108790E-01  0.51100000000E-03 0. -1.
</event>
<event>
 8    1  0.1122465E+005  0.1043930E+01  0.7957747E-01            NaN
         13   -1    0    0    0    0  0.00000000000E+00  0.00000000000E+00  0.74505805969E-08  0.10566000000E+00  0.10566000000E+00 0.  1.
     999900   -1    0    0    0    0 -0.00000000000E+00 -0.00000000000E+00 -0.74505805969E-08  0.93827000000E+00  0.93827000000E+00 0.  1.
     999902    2    1    2    0    0 -0.10807457355E-01  0.15573855137E-01 -0.13943790180E-01  0.10203975674E+01  0.10201261786E+01 0.  0.
     999903    2    3    3    0    0 -0.10272540288E+00  0.75256916767E-01  0.30699191742E-01  0.13247641530E+00  0.19785052915E-01 0.  0.
         14    1    1    2    0    0  0.10807457355E-01 -0.15573855137E-01  0.13943790180E-01  0.23532432575E-01  0.00000000000E+00 0. -1.
     999901    1    3    3    0    0  0.91917945527E-01 -0.59683061630E-01 -0.44642981922E-01  0.88792115212E+00  0.88000000000E+00 0.  1.
        -11    1    4    4    0    0 -0.58596018531E-01  0.51592631697E-01  0.11841919058E-01  0.78966988046E-01  0.51100000000E-03 0.  1.
         11    1    4    4    0    0 -0.44129384350E-01  0.23664285070E-01  0.18857272684E-01  0.53509427255E-01  0.51100000000E-03 0. -1.
</event>
<event>
 8    1  0.1122465E+005  0.1043930E+01  0.7957747E-01            NaN
         13   -1    0    0    0    0  0.00000000000E+00  0.00000000000E+00  0.74505805969E-08  0.10566000000E+00  0.10566000000E+00 0. -1.
     999900   -1    0    0    0    0 -0.00000000000E+00 -0.00000000000E+00 -0.74505805969E-08  0.93827000000E+00  0.93827000000E+00 0.  1.
     999902    2    1    2    0    0 -0.13923756511E-01 -0.15124809592E-01 -0.12135097927E-01  0.10200576004E+01  0.10197782194E+01 0.  0.
     999903    2    3    3    0    0  0.62663371153E-01 -0.68690647827E-02 -0.11368055777E+00  0.13087526485E+00  0.15204722977E-01 0.  0.
         14    1    1    2    0    0  0.13923756511E-01  0.15124809592E-01  0.12135097927E-01  0.23872399592E-01  0.00000000000E+00 0. -1.
     999901    1    3    3    0    0 -0.76587127665E-01 -0.82557448090E-02  0.10154545984E+00  0.88918233555E+00  0.88000000000E+00 0. -1.
        -11    1    4    4    0    0  0.53859678035E-01 -0.57289397978E-02 -0.84502570920E-01  0.10037246277E+00  0.51100000000E-03 0.  1.
         11    1    4    4    0    0  0.88036931182E-02 -0.11401249849E-02 -0.29177986849E-01  0.30502802086E-01  0.51100000000E-03 0. -1.
</event>
<event>
 8    1  0.1122465E+005  0.1043930E+01  0.7957747E-01            NaN
         13   -1    0    0    0    0  0.00000000000E+00  0.00000000000E+00  0.74505805969E-08  0.10566000000E+00  0.10566000000E+00 0. -1.
     999900   -1    0    0    0    0 -0.00000000000E+00 -0.00000000000E+00 -0.74505805969E-08  0.93827000000E+00  0.93827000000E+00 0. -1.
     999902    2    1    2    0    0 -0.15477231210E-01  0.81947394774E-02 -0.15759394068E-01  0.10203703535E+01  0.10200983293E+01 0.  0.
     999903    2    3    3    0    0 -0.24057048115E-01 -0.42054382104E-01 -0.12178978111E+00  0.13254096087E+00  0.19673406033E-01 0.  0.
         14    1    1    2    0    0  0.15477231210E-01 -0.81947394774E-02  0.15759394068E-01  0.23559646484E-01  0.00000000000E+00 0. -1.
     999901    1    3    3    0    0  0.85798169043E-02  0.50249121582E-01  0.10603038705E+00  0.88782939265E+00  0.88000000000E+00 0.  1.
        -11    1    4    4    0    0 -0.60438884374E-02 -0.19701704775E-01 -0.30267082515E-01  0.36620256190E-01  0.51100000000E-03 0. -1.
         11    1    4    4    0    0 -0.18013159677E-01 -0.22352677330E-01 -0.91522698600E-01  0.95920704675E-01  0.51100000000E-03 0.  1.
</event>
<event>
 8    1  0.1122465E+005  0.1043930E+01  0.7957747E-01            NaN
         13   -1    0    0    0    0  0.00000000000E+00  0.00000000000E+00  0.74505805969E-08  0.10566000000E+00  0.10566000000E+00 0. -1.
     999900   -1    0    0    0    0 -0.00000000000E+00 -0.00000000000E+00 -0.74505805969E-08  0.93827000000E+00  0.93827000000E+00 0. -1.
     999902    2    1    2    0    0 -0.14568380882E-01 -0.17012111918E-01 -0.54379515796E-02  0.10208817682E+01  0.10206215575E+01 0.  0.
     999903    2    3    3    0    0 -0.68951736510E-01 -0.27917569122E-01  0.10702450751E+00  0.13199241449E+00  0.20833138059E-01 0.  0.
         14    1    1    2    0    0  0.14568380882E-01  0.17012111918E-01  0.54379515796E-02  0.23048231837E-01  0.00000000000E+00 0. -1.
     999901    1    3    3    0    0  0.54383355628E-01  0.10905457204E-01 -0.11246245909E+00  0.88888935367E+00  0.88000000000E+00 0. -1.
        -11    1    4    4    0    0 -0.56038568730E-01 -0.27781769733E-01  0.97885582531E-01  0.11616366172E+00  0.51100000000E-03 0. -1.
         11    1    4    4    0    0 -0.12913167780E-01 -0.13579938962E-03  0.91389249810E-02  0.15828752775E-01  0.51100000000E-03 0.  1.
</event>
<event>
 8    1  0.1122465E+005  0.1043930E+01  0.7957747E-01            NaN
         13   -1    0    0    0    0  0.00000000000E+00  0.00000000000E+00  0.74505805969E-08  0.10566000000E+00  0.10566000000E+00 0. -1.
     999900   -1    0    0    0    0 -0.00000000000E+00 -0.00000000000E+00 -0.74505805969E-08  0.93827000000E+00  0.93827000000E+00 0. -1.
     999902    2    1    2    0    0 -0.23714100307E-01  0.14489744792E-02  0.21312051489E-02  0.10200762767E+01  0.10197973378E+01 0.  0.
     999903    2    3    3    0    0 -0.11055411208E+00 -0.62967675237E-01 -0.32535446463E-01  0.13278124732E+00  0.19625609315E-01 0.  0.
         14    1    1    2    0    0  0.23714100307E-01 -0.14489744792E-02 -0.21312051489E-02  0.23853723311E-01  0.00000000000E+00 0.  1.
     999901    1    3    3    0    0  0.86840011775E-01  0.64416649716E-01  0.34666651612E-01  0.88729502937E+00  0.88000000000E+00 0.  1.
        -11    1    4    4    0    0 -0.43177480606E-01 -0.35709123826E-01 -0.13097312111E-01  0.57543349411E-01  0.51100000000E-03 0. -1.
         11    1    4    4    0    0 -0.67376631475E-01 -0.27258551411E-01 -0.19438134353E-01  0.75237897911E-01  0.51100000000E-03 0.  1.
</event>
<event>
 8    1  0.1122465E+005  0.1043930E+01  0.7957747E-01            NaN
         13   -1    0    0    0    0  0.00000000000E+00  0.00000000000E+00  0.74505805969E-08  0.10566000000E+00  0.10566000000E+00 0. -1.
     999900   -1    0    0    0    0 -0.00000000000E+00 -0.00000000000E+00 -0.74505805969E-08  0.93827000000E+00  0.93827000000E+00 0. -1.
     999902    2    1    2    0    0  0.13204590086E-01  0.23494229455E-02 -0.19243824509E-01  0.10204735346E+01  0.10202039154E+01 0.  0.
     999903    2    3    3    0    0 -0.11353862089E+00 -0.30388103587E-01 -0.52132757480E-01  0.13018298142E+00  0.20379621560E-01 0.  0.
         14    1    1    2    0    0 -0.13204590086E-01 -0.23494229455E-02  0.19243824509E-01  0.23456465404E-01  0.00000000000E+00 0. -1.
     999901    1    3    3    0    0  0.12674321097E+00  0.32737526532E-01  0.32888932970E-01  0.89029055318E+00  0.88000000000E+00 0.  1.
        -11    1    4    4    0    0 -0.36322060181E-01 -0.17798175410E-01 -0.11670371179E-01  0.42101375133E-01  0.51100000000E-03 0.  1.
         11    1    4    4    0    0 -0.77216560708E-01 -0.12589928177E-01 -0.40462386301E-01  0.88081606282E-01  0.51100000000E-03 0. -1.
</event>
<event>
 8    1  0.1122465E+005  0.1043930E+01  0.7957747E-01            NaN
         13   -1    0    0    0    0  0.00000000000E+00  0.00000000000E+00  0.74505805969E-08  0.10566000000E+00  0.10566000000E+00 0. -1.
     999900   -1    0    0    0    0 -0.00000000000E+00 -0.00000000000E+00 -0.74505805969E-08  0.93827000000E+00  0.93827000000E+00 0. -1.
     999902    2    1    2    0    0  0.21369779501E-01 -0.10138224881E-01  0.20940061703E-02  0.10201847701E+01  0.10199083926E+01 0.  0.
     999903    2    3    3    0    0 -0.96012908391E-02 -0.11224923748E+00  0.64912737452E-01  0.13151606972E+00  0.19767068824E-01 0.  0.
         14    1    1    2    0    0 -0.21369779501E-01  0.10138224881E-01 -0.20940061703E-02  0.23745229868E-01  0.00000000000E+00 0.  1.
     999901    1    3    3    0    0  0.30971070340E-01  0.10211101260E+00 -0.62818731281E-01  0.88866870041E+00  0.88000000000E+00 0. -1.
        -11    1    4    4    0    0 -0.13744302918E-01 -0.66815496862E-01  0.45085152919E-01  0.81768873163E-01  0.51100000000E-03 0. -1.
         11    1    4    4    0    0  0.41430120785E-02 -0.45433740621E-01  0.19827584532E-01  0.49747196557E-01  0.51100000000E-03 0.  1.
</event>
<event>
 8    1  0.1122465E+005  0.1043930E+01  0.7957747E-01            NaN
         13   -1    0    0    0    0  0.00000000000E+00  0.00000000000E+00  0.74505805969E-08  0.10566000000E+00  0.10566000000E+00 0.  1.
     999900   -1    0    0    0    0 -0.00000000000E+00 -0.00000000000E+00 -0.74505805969E-08  0.93827000000E+00  0.93827000000E+00 0.  1.
     999902    2    1    2    0    0 -0.63604541182E-02  0.20328549174E-01 -0.73666879572E-02  0.10213917352E+01  0.10211430377E+01 0.  0.
     999903    2    3    3    0    0 -0.79464141014E-01  0.69225488260E-01 -0.80322210922E-01  0.13400367578E+00  0.19965210341E-01 0.  0.
         14    1    1    2    0    0  0.63604541182E-02 -0.20328549174E-01  0.73666879572E-02  0.22538264786E-01  0.00000000000E+00 0. -1.
     999901    1    3    3    0    0  0.73103686896E-01 -0.48896939086E-01  0.72955522965E-01  0.88738805943E+00  0.88000000000E+00 0. -1.
        -11    1    4    4    0    0 -0.94995067609E-02  0.38643233189E-02 -0.14685985574E-01  0.17919623788E-01  0.51100000000E-03 0.  1.
         11    1    4    4    0    0 -0.69964634253E-01  0.65361164941E-01 -0.65636225348E-01  0.11608405199E+00  0.51100000000E-03 0. -1.
</event>
<event>
 8    1  0.1122465E+005  0.1043930E+01  0.7957747E-01            NaN
         13   -1    0    0    0    0  0.00000000000E+00  0.00000000000E+00  0.74505805969E-08  0.10566000000E+00  0.10566000000E+00 0. -1.
     999900   -1    0    0    0    0 -0.00000000000E+00 -0.00000000000E+00 -0.74505805969E-08  0.93827000000E+00  0.93827000000E+00 0.  1.
     999902    2    1    2    0    0  0.49085418341E-02  0.69729538231E-02  0.22608101273E-01  0.10197671750E+01  0.10194808724E+01 0.  0.
     999903    2    3    3    0    0  0.12438921593E+00  0.35548114396E-01 -0.54852113634E-03  0.13093175693E+00  0.20161314934E-01 0.  0.
         14    1    1    2    0    0 -0.49085418341E-02 -0.69729538231E-02 -0.22608101273E-01  0.24162824983E-01  0.00000000000E+00 0.  1.
     999901    1    3    3    0    0 -0.11948067410E+00 -0.28575160573E-01  0.23156622410E-01  0.88883541809E+00  0.88000000000E+00 0.  1.
        -11    1    4    4    0    0  0.30096611572E-01  0.99021047236E-03  0.41115232048E-02  0.30396583508E-01  0.51100000000E-03 0. -1.
         11    1    4    4    0    0  0.94292604361E-01  0.34557903924E-01 -0.46600443412E-02  0.10053517342E+00  0.51100000000E-03 0.  1.
</event>
<event>
 8    1  0.1122465E+005  0.1043930E+01  0.7957747E-01            NaN
         13   -1    0    0    0    0  0.00000000000E+00  0.00000000000E+00  0.74505805969E-08  0.10566000000E+00  0.10566000000E+00 0.  1.
     999900   -1    0    0    0    0 -0.00000000000E+00 -0.00000000000E+00 -0.74505805969E-08  0.93827000000E+00  0.93827000000E+00 0.  1.
     999902    2    1    2    0    0 -0.12994725172E-01 -0.12142824936E-01  0.36617561094E-03  0.10261410943E+01  0.10259868909E+01 0.  0.
     999903    2    3    3    0    0  0.29561642189E-01 -0.12966540286E-01  0.13012484471E+00  0.13560808816E+00  0.20372935609E-01 0.  0.
         14    1    1    2    0    0  0.12994725172E-01  0.12142824936E-01 -0.36617561094E-03  0.17788905652E-01  0.00000000000E+00 0. -1.
     999901    1    3    3    0    0 -0.42556367361E-01  0.82371535040E-03 -0.12975866910E+00  0.89053300619E+00  0.88000000000E+00 0.  1.
        -11    1    4    4    0    0  0.10888040107E-01  0.37157887825E-02  0.61197124317E-01  0.62271226496E-01  0.51100000000E-03 0. -1.
         11    1    4    4    0    0  0.18673602082E-01 -0.16682329069E-01  0.68927720398E-01  0.73336861660E-01  0.51100000000E-03 0.  1.
</event>
<event>
 8    1  0.1122465E+005  0.1043930E+01  0.7957747E-01            NaN
         13   -1    0    0    0    0  0.00000000000E+00  0.00000000000E+00  0.74505805969E-08  0.10566000000E+00  0.10566000000E+00 0. -1.
     999900   -1    0    0    0    0 -0.00000000000E+00 -0.00000000000E+00 -0.74505805969E-08  0.93827000000E+00  0.93827000000E+00 0.  1.
     999902    2    1    2    0    0 -0.97884135504E-02  0.21702593267E-01  0.12340121935E-02  0.10200901514E+01  0.10198115407E+01 0.  0.
     999903    2    3    3    0    0 -0.51025159880E-01 -0.10554638806E-01  0.11850782646E+00  0.13076785563E+00  0.18470511468E-01 0.  0.
         14    1    1    2    0    0  0.97884135504E-02 -0.21702593267E-01 -0.12340121935E-02  0.23839848582E-01  0.00000000000E+00 0.  1.
     999901    1    3    3    0    0  0.41236746330E-01  0.32257232073E-01 -0.11727381426E+00  0.88932229579E+00  0.88000000000E+00 0.  1.
        -11    1    4    4    0    0 -0.49085031947E-01 -0.11348724954E-01  0.98436859723E-01  0.11058123888E+00  0.51100000000E-03 0.  1.
         11    1    4    4    0    0 -0.19401279326E-02  0.79408614776E-03  0.20070966734E-01  0.20186616751E-01  0.51100000000E-03 0. -1.
</event>
<event>
 8    1  0.1122465E+005  0.1043930E+01  0.7957747E-01            NaN
         13   -1    0    0    0    0  0.00000000000E+00  0.00000000000E+00  0.74505805969E-08  0.10566000000E+00  0.10566000000E+00 0. -1.
     999900   -1    0    0    0    0 -0.00000000000E+00 -0.00000000000E+00 -0.74505805969E-08  0.93827000000E+00  0.93827000000E+00 0.  1.
     999902    2    1    2    0    0 -0.44845691943E-02  0.17198831241E-01  0.15605374584E-01  0.10202775398E+01  0.10200033428E+01 0.  0.
     999903    2    3    3    0    0 -0.75925775185E-01  0.45531318762E-01 -0.93179939810E-01  0.13025460731E+00  0.21117225578E-01 0.  0.
         14    1    1    2    0    0  0.44845691943E-02 -0.17198831241E-01 -0.15605374584E-01  0.23652460185E-01  0.00000000000E+00 0. -1.
     999901    1    3    3    0    0  0.71441205991E-01 -0.28332487522E-01  0.10878531439E+00  0.89002293251E+00  0.88000000000E+00 0. -1.
        -11    1    4    4    0    0 -0.58266361095E-01  0.32240424550E-01 -0.81512810082E-01  0.10525689117E+00  0.51100000000E-03 0.  1.
         11    1    4    4    0    0 -0.17659414090E-01  0.13290894212E-01 -0.11667129728E-01  0.24997716136E-01  0.51100000000E-03 0. -1.
</event>
<event>
 8    1  0.1122465E+005  0.1043930E+01  0.7957747E-01            NaN
         13   -1    0    0    0    0  0.00000000000E+00  0.00000000000E+00  0.74505805969E-08  0.10566000000E+00  0.10566000000E+00 0.  1.
     999900   -1    0    0    0    0 -0.00000000000E+00 -0.00000000000E+00 -0.74505805969E-08  0.93827000000E+00  0.93827000000E+00 0. -1.
     999902    2    1    2    0    0 -0.81479970485E-02  0.15023445019E-01  0.15295447985E-01  0.10209943403E+01  0.10207366940E+01 0.  0.
     999903    2    3    3    0    0  0.10184167189E+00 -0.41930450442E-02  0.80934669935E-01  0.13151386935E+00  0.18872447497E-01 0.  0.
         14    1    1    2    0    0  0.81479970485E-02 -0.15023445019E-01 -0.15295447985E-01  0.22935659685E-01  0.00000000000E+00 0. -1.
     999901    1    3    3    0    0 -0.10998966894E+00  0.19216490063E-01 -0.65639221950E-01  0.88948047096E+00  0.88000000000E+00 0. -1.
        -11    1    4    4    0    0  0.61696037441E-01 -0.62685223896E-02  0.38178784506E-01  0.72825655618E-01  0.51100000000E-03 0.  1.
         11    1    4    4    0    0  0.40145634450E-01  0.20754773453E-02  0.42755885430E-01  0.58688213736E-01  0.51100000000E-03 0. -1.
</event>
<event>
 8    1  0.1122465E+005  0.1043930E+01  0.7957747E-01            NaN
         13   -1    0    0    0    0  0.00000000000E+00  0.00000000000E+00  0.74505805969E-08  0.10566000000E+00  0.10566000000E+00 0.  1.
     999900   -1    0    0    0    0 -0.00000000000E+00 -0.00000000000E+00 -0.74505805969E-08  0.93827000000E+00  0.93827000000E+00 0. -1.
     999902    2    1    2    0    0 -0.12566246421E-01 -0.16884355462E-01  0.12228262451E-01  0.10195882168E+01  0.10192976059E+01 0.  0.
     999903    2    3    3    0    0  0.25406602255E-01  0.89108172810E-01 -0.84816909028E-01  0.12712302495E+00  0.19508806139E-01 0.  0.
         14    1    1    2    0    0  0.12566246421E-01  0.16884355462E-01 -0.12228262451E-01  0.24341783235E-01  0.00000000000E+00 0.  1.
     999901    1    3    3    0    0 -0.37972848677E-01 -0.10599252827E+00  0.97045171478E-01  0.89246519181E+00  0.88000000000E+00 0. -1.
        -11    1    4    4    0    0  0.22070345492E-01  0.43312189523E-01 -0.39958028358E-01  0.62928142057E-01  0.51100000000E-03 0. -1.
         11    1    4    4    0    0  0.33362567634E-02  0.45795983287E-01 -0.44858880669E-01  0.64194882898E-01  0.51100000000E-03 0.  1.
</event>
<event>
 8    1  0.1122465E+005  0.1043930E+01  0.7957747E-01            NaN
         13   -1    0    0    0    0  0.00000000000E+00  0.00000000000E+00  0.74505805969E-08  0.10566000000E+00  0.10566000000E+00 0. -1.
     999900   -1    0    0    0    0 -0.00000000000E+00 -0.00000000000E+00 -0.74505805969E-08  0.93827000000E+00  0.93827000000E+00 0. -1.
     999902    2    1    2    0    0 -0.15796741370E-02  0.21217783743E-01 -0.10048176398E-01  0.10204001133E+01  0.10201287839E+01 0.  0.
     999903    2    3    3    0    0  0.12377604922E+00  0.37648815293E-01 -0.91502135960E-02  0.13136420714E+00  0.20853893051E-01 0.  0.
         14    1    1    2    0    0  0.15796741370E-02 -0.21217783743E-01  0.10048176398E-01  0.23529886661E-01  0.00000000000E+00 0. -1.
     999901    1    3    3    0    0 -0.12535572335E+00 -0.16431031550E-01 -0.89796280200E-03  0.88903590620E+00  0.88000000000E+00 0. -1.
        -11    1    4    4    0    0  0.71110208750E-01  0.22929714372E-01 -0.15506783107E-01  0.76309599874E-01  0.51100000000E-03 0. -1.
         11    1    4    4    0    0  0.52665840468E-01  0.14719100922E-01  0.63565695106E-02  0.55054607265E-01  0.51100000000E-03 0.  1.
</event>
<event>
 8    1  0.1122465E+005  0.1043930E+01  0.7957747E-01            NaN
         13   -1    0    0    0    0  0.00000000000E+00  0.00000000000E+00  0.74505805969E-08  0.10566000000E+00  0.10566000000E+00 0.  1.
     999900   -1    0    0    0    0 -0.00000000000E+00 -0.00000000000E+00 -0.74505805969E-08  0.93827000000E+00  0.93827000000E+00 0.  1.
     999902    2    1    2    0    0  0.58187158580E-02 -0.14642865431E-01 -0.15884219716E-01  0.10215563682E+01  0.10213113306E+01 0.  0.
     999903    2    3    3    0    0  0.75946784151E-01 -0.94683289176E-01 -0.54003095781E-01  0.13432614777E+00  0.19858004661E-01 0.  0.
         14    1    1    2    0    0 -0.58187158580E-02  0.14642865431E-01  0.15884219716E-01  0.22373631763E-01  0.00000000000E+00 0.  1.
     999901    1    3    3    0    0 -0.70128068293E-01  0.80040423746E-01  0.38118876064E-01  0.88723022047E+00  0.88000000000E+00 0. -1.
        -11    1    4    4    0    0  0.31178428040E-01 -0.38360271665E-01 -0.32763804522E-01  0.59307106024E-01  0.51100000000E-03 0. -1.
         11    1    4    4    0    0  0.44768356110E-01 -0.56323017512E-01 -0.21239291259E-01  0.75019041747E-01  0.51100000000E-03 0.  1.
</event>
<event>
 8    1  0.1122465E+005  0.1043930E+01  0.7957747E-01            NaN
         13   -1    0    0    0    0  0.00000000000E+00  0.00000000000E+00  0.74505805969E-08  0.10566000000E+00  0.10566000000E+00 0.  1.
     999900   -1    0    0    0    0 -0.00000000000E+00 -0.00000000000E+00 -0.74505805969E-08  0.93827000000E+00  0.93827000000E+00 0.  1.
     999902    2    1    2    0    0 -0.15502112065E-01  0.16848519391E-01 -0.84310465289E-02  0.10195318314E+01  0.10192398563E+01 0.  0.
     999903    2    3    3    0    0  0.94089183140E-01 -0.79062435143E-01 -0.91411907294E-02  0.12756228739E+00  0.32938317527E-01 0.  0.
         14    1    1    2    0    0  0.15502112065E-01 -0.16848519391E-01  0.84310465289E-02  0.24398168574E-01  0.00000000000E+00 0. -1.
     999901    1    3    3    0    0 -0.10959129521E+00  0.95910954534E-01  0.71014420046E-03  0.89196954404E+00  0.88000000000E+00 0. -1.
        -11    1    4    4    0    0  0.56411425991E-01 -0.36795248948E-01 -0.19232974672E-01  0.70045040961E-01  0.51100000000E-03 0.  1.
         11    1    4    4    0    0  0.37677757149E-01 -0.42267186195E-01  0.10091783943E-01  0.57517246429E-01  0.51100000000E-03 0. -1.
</event>
<event>
 8    1  0.1122465E+005  0.1043930E+01  0.7957747E-01            NaN
         13   -1    0    0    0    0  0.00000000000E+00  0.00000000000E+00  0.74505805969E-08  0.10566000000E+00  0.10566000000E+00 0. -1.
     999900   -1    0    0    0    0 -0.00000000000E+00 -0.00000000000E+00 -0.74505805969E-08  0.93827000000E+00  0.93827000000E+00 0.  1.
     999902    2    1    2    0    0 -0.74620225608E-02 -0.20663745722E-01 -0.10963605109E-01  0.10193765317E+01  0.10190807822E+01 0.  0.
     999903    2    3    3    0    0 -0.37798028731E-01 -0.12535654876E+00  0.37185820795E-02  0.13253019615E+00  0.20185879887E-01 0.  0.
         14    1    1    2    0    0  0.74620225608E-02  0.20663745722E-01  0.10963605109E-01  0.24553468288E-01  0.00000000000E+00 0.  1.
     999901    1    3    3    0    0  0.30336006171E-01  0.10469280304E+00 -0.14682187188E-01  0.88684633556E+00  0.88000000000E+00 0. -1.
        -11    1    4    4    0    0 -0.20808791237E-01 -0.72791317097E-01 -0.77594135866E-02  0.76105527116E-01  0.51100000000E-03 0. -1.
         11    1    4    4    0    0 -0.16989237494E-01 -0.52565231660E-01  0.11477995666E-01  0.56424669035E-01  0.51100000000E-03 0.  1.
</event>
<event>
 8    1  0.1122465E+005  0.1043930E+01  0.7957747E-01            NaN
         13   -1    0    0    0    0  0.00000000000E+00  0.00000000000E+00  0.74505805969E-08  0.10566000000E+00  0.10566000000E+00 0.  1.
     999900   -1    0    0    0    0 -0.00000000000E+00 -0.00000000000E+00 -0.74505805969E-08  0.93827000000E+00  0.93827000000E+00 0.  1.
     999902    2    1    2    0    0 -0.10473729862E-01 -0.14518935479E-02  0.21148735014E-01  0.10202852119E+01  0.10200111948E+01 0.  0.
     999903    2    3    3    0    0 -0.80949047772E-01 -0.33356906273E-01 -0.93294205050E-01  0.12950920929E+00  0.20084697271E-01 0.  0.
         14    1    1    2    0    0  0.10473729862E-01  0.14518935479E-02 -0.21148735014E-01  0.23644788110E-01  0.00000000000E+00 0. -1.
     999901    1    3    3    0    0  0.70475317910E-01  0.31905012725E-01  0.11444294006E+00  0.89077600260E+00  0.88000000000E+00 0. -1.
        -11    1    4    4    0    0 -0.34350025135E-01 -0.20553483246E-01 -0.54007364476E-01  0.67226679517E-01  0.51100000000E-03 0. -1.
         11    1    4    4    0    0 -0.46599022637E-01 -0.12803423027E-01 -0.39286840575E-01  0.62282529776E-01  0.51100000000E-03 0.  1.
</event>
<event>
 8    1  0.1122465E+005  0.1043930E+01  0.7957747E-01            NaN
         13   -1    0    0    0    0  0.00000000000E+00  0.00000000000E+00  0.74505805969E-08  0.10566000000E+00  0.10566000000E+00 0.  1.
     999900   -1    0    0    0    0 -0.00000000000E+00 -0.00000000000E+00 -0.74505805969E-08  0.93827000000E+00  0.93827000000E+00 0.  1.
     999902    2    1    2    0    0  0.19947292036E-01 -0.10443697420E-01 -0.42875832075E-02  0.10210095147E+01  0.10207522131E+01 0.  0.
     999903    2    3    3    0    0  0.45951144563E-01  0.46046100447E-01  0.11184912296E+00  0.13120333801E+00  0.21733350996E-01 0.  0.
         14    1    1    2    0    0 -0.19947292036E-01  0.10443697420E-01  0.42875832075E-02  0.22920485273E-01  0.00000000000E+00 0.  1.
     999901    1    3    3    0    0 -0.26003852526E-01 -0.56489797868E-01 -0.11613670616E+00  0.88980617672E+00  0.88000000000E+00 0.  1.
        -11    1    4    4    0    0  0.91572709335E-02  0.92287856858E-02  0.42785634374E-01  0.44720216077E-01  0.51100000000E-03 0. -1.
         11    1    4    4    0    0  0.36793873629E-01  0.36817314762E-01  0.69063488581E-01  0.86483121931E-01  0.51100000000E-03 0.  1.
</event>
<event>
 8    1  0.1122465E+005  0.1043930E+01  0.7957747E-01            NaN
         13   -1    0    0    0    0  0.00000000000E+00  0.00000000000E+00  0.74505805969E-08  0.10566000000E+00  0.10566000000E+00 0.  1.
     999900   -1    0    0    0    0 -0.00000000000E+00 -0.00000000000E+00 -0.74505805969E-08  0.93827000000E+00  0.93827000000E+00 0.  1.
     999902    2    1    2    0    0  0.17694252846E-01 -0.13974292350E-01  0.75484846244E-02  0.10201529722E+01  0.10198758452E+01 0.  0.
     999903    2    3    3    0    0  0.61135728112E-01 -0.98601712611E-01 -0.60599317628E-01  0.13240690210E+00  0.19985881171E-01 0.  0.
         14    1    1    2    0    0 -0.17694252846E-01  0.13974292350E-01 -0.75484846244E-02  0.23777027791E-01  0.00000000000E+00 0. -1.
     999901    1    3    3    0    0 -0.43441475266E-01  0.84627420261E-01  0.68147802253E-01  0.88774607010E+00  0.88000000000E+00 0.  1.
        -11    1    4    4    0    0  0.48322384890E-01 -0.86364088480E-01 -0.57363830456E-01  0.11438828098E+00  0.51100000000E-03 0.  1.
         11    1    4    4    0    0  0.12813343222E-01 -0.12237624131E-01 -0.32354871721E-02  0.18018621122E-01  0.51100000000E-03 0. -1.
</event>
<event>
 8    1  0.1122465E+005  0.1043930E+01  0.7957747E-01            NaN
         13   -1    0    0    0    0  0.00000000000E+00  0.00000000000E+00  0.74505805969E-08  0.10566000000E+00  0.10566000000E+00 0. -1.
     999900   -1    0    0    0    0 -0.00000000000E+00 -0.00000000000E+00 -0.74505805969E-08  0.93827000000E+00  0.93827000000E+00 0. -1.
     999902    2    1    2    0    0  0.18685446173E-01  0.12863242231E-01 -0.75983337050E-02  0.10200062968E+01  0.10197256994E+01 0.  0.
     999903    2    3    3    0    0 -0.10452472926E+00  0.66314631748E-01 -0.32407451134E-01  0.12947090128E+00  0.19733777651E-01 0.  0.
         14    1    1    2    0    0 -0.18685446173E-01 -0.12863242231E-01  0.75983337050E-02  0.23923703193E-01  0.00000000000E+00 0. -1.
     999901    1    3    3    0    0  0.12321017543E+00 -0.53451389517E-01  0.24809117429E-01  0.89053539552E+00  0.88000000000E+00 0. -1.
        -11    1    4    4    0    0 -0.23870116596E-01  0.59579816039E-02 -0.66949568161E-02  0.25502226939E-01  0.51100000000E-03 0. -1.
         11    1    4    4    0    0 -0.80654612661E-01  0.60356650144E-01 -0.25712494318E-01  0.10396867435E+00  0.51100000000E-03 0.  1.
</event>
<event>
 8    1  0.1122465E+005  0.1043930E+01  0.7957747E-01            NaN
         13   -1    0    0    0    0  0.00000000000E+00  0.00000000000E+00  0.74505805969E-08  0.10566000000E+00  0.10566000000E+00 0. -1.
     999900   -1    0    0    0    0 -0.00000000000E+00 -0.00000000000E+00 -0.74505805969E-08  0.93827000000E+00  0.93827000000E+00 0. -1.
     999902    2    1    2    0    0  0.45817764035E-02  0.17793261177E-01 -0.13805952135E-01  0.10209474603E+01  0.10206887476E+01 0.  0.
     999903    2    3    3    0    0  0.43427918412E-01  0.10593521481E+00  0.63051638962E-01  0.13236143964E+00  0.20875528598E-01 0.  0.
         14    1    1    2    0    0 -0.45817764035E-02 -0.17793261177E-01  0.13805952135E-01  0.22982539735E-01  0.00000000000E+00 0. -1.
     999901    1    3    3    0    0 -0.38846142009E-01 -0.88141953630E-01 -0.76857591097E-01  0.88858602062E+00  0.88000000000E+00 0.  1.
        -11    1    4    4    0    0  0.45120963900E-01  0.94857437158E-01  0.58675571948E-01  0.12032006745E+00  0.51100000000E-03 0.  1.
         11    1    4    4    0    0 -0.16930454877E-02  0.11077777649E-01  0.43760670143E-02  0.12041372188E-01  0.51100000000E-03 0. -1.
</event>
<event>
 8    1  0.1122465E+005  0.1043930E+01  0.7957747E-01            NaN
         13   -1    0    0    0    0  0.00000000000E+00  0.00000000000E+00  0.74505805969E-08  0.10566000000E+00  0.10566000000E+00 0.  1.
     999900   -1    0    0    0    0 -0.00000000000E+00 -0.00000000000E+00 -0.74505805969E-08  0.93827000000E+00  0.93827000000E+00 0.  1.
     999902    2    1    2    0    0  0.60901922253E-02 -0.64320438368E-02  0.21485889613E-01  0.10206898390E+01  0.10204252263E+01 0.  0.
     999903    2    3    3    0    0 -0.37583592773E-01 -0.36117003664E-01  0.12102386125E+00  0.13350530122E+00  0.21445886843E-01 0.  0.
         14    1    1    2    0    0 -0.60901922253E-02  0.64320438368E-02 -0.21485889613E-01  0.23240160966E-01  0.00000000000E+00 0. -1.
     999901    1    3    3    0    0  0.43673784998E-01  0.29684959827E-01 -0.99537971638E-01  0.88718453781E+00  0.88000000000E+00 0.  1.
        -11    1    4    4    0    0 -0.20655753099E-01 -0.25758715852E-01  0.96259595337E-01  0.10176611614E+00  0.51100000000E-03 0.  1.
         11    1    4    4    0    0 -0.16927839674E-01 -0.10358287812E-01  0.24764265914E-01  0.31739185083E-01  0.51100000000E-03 0. -1.
</event>
<event>
 8    1  0.1122465E+005  0.1043930E+01  0.7957747E-01            NaN
         13   -1    0    0    0    0  0.00000000000E+00  0.00000000000E+00  0.74505805969E-08  0.10566000000E+00  0.10566000000E+00 0.  1.
     999900   -1    0    0    0    0 -0.00000000000E+00 -0.00000000000E+00 -0.74505805969E-08  0.93827000000E+00  0.93827000000E+00 0. -1.
     999902    2    1    2    0    0  0.83022966318E-02  0.11644721971E-02 -0.22930891964E-01  0.10195146374E+01  0.10192222456E+01 0.  0.
     999903    2    3    3    0    0 -0.21565008587E-01  0.12627655779E+00 -0.10710053899E-01  0.13007973884E+00  0.19880004003E-01 0.  0.
         14    1    1    2    0    0 -0.83022966318E-02 -0.11644721971E-02  0.22930891964E-01  0.24415362605E-01  0.00000000000E+00 0.  1.
     999901    1    3    3    0    0  0.29867305219E-01 -0.12511208560E+00 -0.12220838065E-01  0.88943489855E+00  0.88000000000E+00 0.  1.
        -11    1    4    4    0    0 -0.18889527948E-01  0.57905182549E-01 -0.61586971962E-03  0.60913585091E-01  0.51100000000E-03 0. -1.
         11    1    4    4    0    0 -0.26754806392E-02  0.68371375244E-01 -0.10094184179E-01  0.69166153750E-01  0.51100000000E-03 0.  1.
</event>
<event>
 8    1  0.1122465E+005  0.1043930E+01  0.7957747E-01            NaN
         13   -1    0    0    0    0  0.00000000000E+00  0.00000000000E+00  0.74505805969E-08  0.10566000000E+00  0.10566000000E+00 0.  1.
     999900   -1    0    0    0    0 -0.00000000000E+00 -0.00000000000E+00 -0.74505805969E-08  0.93827000000E+00  0.93827000000E+00 0. -1.
     999902    2    1    2    0    0 -0.57024867036E-02  0.75909752871E-02  0.23284109786E-01  0.10187846022E+01  0.10184742386E+01 0.  0.
     999903    2    3    3    0    0 -0.32467241518E-01  0.65557825935E-02  0.12652540229E+00  0.13234442478E+00  0.20230405057E-01 0.  0.
         14    1    1    2    0    0  0.57024867036E-02 -0.75909752871E-02 -0.23284109786E-01  0.25145397769E-01  0.00000000000E+00 0. -1.
     999901    1    3    3    0    0  0.26764754814E-01  0.10351926936E-02 -0.10324129250E+00  0.88644017745E+00  0.88000000000E+00 0. -1.
        -11    1    4    4    0    0 -0.31849272737E-01  0.17623184743E-02  0.89790854443E-01  0.95289771764E-01  0.51100000000E-03 0.  1.
         11    1    4    4    0    0 -0.61796878106E-03  0.47934641192E-02  0.36734547845E-01  0.37054653015E-01  0.51100000000E-03 0. -1.
</event>
<event>
 8    1  0.1122465E+005  0.1043930E+01  0.7957747E-01            NaN
         13   -1    0    0    0    0  0.00000000000E+00  0.00000000000E+00  0.74505805969E-08  0.10566000000E+00  0.10566000000E+00 0.  1.
     999900   -1    0    0    0    0 -0.00000000000E+00 -0.00000000000E+00 -0.74505805969E-08  0.93827000000E+00  0.93827000000E+00 0. -1.
     999902    2    1    2    0    0 -0.16009483420E-01 -0.87690069876E-02  0.16047883282E-01  0.10196249882E+01  0.10193352652E+01 0.  0.
     999903    2    3    3    0    0 -0.12439613823E+00  0.17435827200E-01  0.36322593213E-01  0.13235646953E+00  0.20506022859E-01 0.  0.
         14    1    1    2    0    0  0.16009483420E-01  0.87690069876E-02 -0.16047883282E-01  0.24305011845E-01  0.00000000000E+00 0. -1.
     999901    1    3    3    0    0  0.10838665481E+00 -0.26204834187E-01 -0.20274709931E-01  0.88726851862E+00  0.88000000000E+00 0. -1.
        -11    1    4    4    0    0 -0.10137088046E+00  0.17261590296E-01  0.21763701475E-01  0.10510917052E+00  0.51100000000E-03 0. -1.
         11    1    4    4    0    0 -0.23025257764E-01  0.17423690326E-03  0.14558891739E-01  0.27247299008E-01  0.51100000000E-03 0.  1.
</event>
<event>
 8    1  0.1122465E+005  0.1043930E+01  0.7957747E-01            NaN
         13   -1    0    0    0    0  0.00000000000E+00  0.00000000000E+00  0.74505805969E-08  0.10566000000E+00  0.10566000000E+00 0.  1.
     999900   -1    0    0    0    0 -0.00000000000E+00 -0.00000000000E+00 -0.74505805969E-08  0.93827000000E+00  0.93827000000E+00 0. -1.
     999902    2    1    2    0    0  0.28033582429E-01  0.63866383031E-02 -0.13985408297E-01  0.10119571594E+01  0.10114519415E+01 0.  0.
     999903    2    3    3    0    0  0.76313810198E-01 -0.35835856652E-01  0.88234478251E-01  0.12372147855E+00  0.20338998361E-01 0.  0.
         14    1    1    2    0    0 -0.28033582429E-01 -0.63866383031E-02  0.13985408297E-01  0.31972840628E-01  0.00000000000E+00 0.  1.
     999901    1    3    3    0    0 -0.48280227769E-01  0.42222494955E-01 -0.10221988655E+00  0.88823568082E+00  0.88000000000E+00 0. -1.
        -11    1    4    4    0    0  0.45193522202E-01 -0.13128775647E-01  0.38473029328E-01  0.60788603420E-01  0.51100000000E-03 0. -1.
         11    1    4    4    0    0  0.31120287995E-01 -0.22707081005E-01  0.49761448923E-01  0.62932875134E-01  0.51100000000E-03 0.  1.
</event>
<event>
 8    1  0.1122465E+005  0.1043930E+01  0.7957747E-01            NaN
         13   -1    0    0    0    0  0.00000000000E+00  0.00000000000E+00  0.74505805969E-08  0.10566000000E+00  0.10566000000E+00 0.  1.
     999900   -1    0    0    0    0 -0.00000000000E+00 -0.00000000000E+00 -0.74505805969E-08  0.93827000000E+00  0.93827000000E+00 0.  1.
     999902    2    1    2    0    0  0.79490978160E-02  0.11226902557E-01  0.11263764636E-01  0.10261506892E+01  0.10259966536E+01 0.  0.
     999903    2    3    3    0    0 -0.63775598744E-01  0.86856595849E-01  0.82533297155E-01  0.13713796219E+00  0.19587758841E-01 0.  0.
         14    1    1    2    0    0 -0.79490978160E-02 -0.11226902557E-01 -0.11263764636E-01  0.17779310754E-01  0.00000000000E+00 0.  1.
     999901    1    3    3    0    0  0.71724696560E-01 -0.75629693293E-01 -0.71269532520E-01  0.88901272706E+00  0.88000000000E+00 0.  1.
        -11    1    4    4    0    0 -0.43694133889E-02  0.98713988089E-02  0.16018514302E-01  0.19323307410E-01  0.51100000000E-03 0. -1.
         11    1    4    4    0    0 -0.59406185355E-01  0.76985197041E-01  0.66514782853E-01  0.11781465478E+00  0.51100000000E-03 0.  1.
</event>
<event>
 8    1  0.1122465E+005  0.1043930E+01  0.7957747E-01            NaN
         13   -1    0    0    0    0  0.00000000000E+00  0.00000000000E+00  0.74505805969E-08  0.10566000000E+00  0.10566000000E+00 0.  1.
     999900   -1    0    0    0    0 -0.00000000000E+00 -0.00000000000E+00 -0.74505805969E-08  0.93827000000E+00  0.93827000000E+00 0.  1.
     999902    2    1    2    0    0  0.17286708056E-02  0.17373228947E-01  0.12336674824E-01  0.10225521860E+01  0.10223286957E+01 0.  0.
     999903    2    3    3    0    0 -0.27299536129E-01 -0.98423355559E-01  0.81009147064E-01  0.13184045133E+00  0.19672343729E-01 0.  0.
         14    1    1    2    0    0 -0.17286708056E-02 -0.17373228947E-01 -0.12336674824E-01  0.21377814026E-01  0.00000000000E+00 0. -1.
     999901    1    3    3    0    0  0.29028206935E-01  0.11579658451E+00 -0.68672472240E-01  0.89071173464E+00  0.88000000000E+00 0.  1.
        -11    1    4    4    0    0 -0.17954586550E-01 -0.45905287078E-01  0.49629560589E-01  0.69950103396E-01  0.51100000000E-03 0. -1.
         11    1    4    4    0    0 -0.93449495786E-02 -0.52518068481E-01  0.31379586475E-01  0.61890347938E-01  0.51100000000E-03 0.  1.
</event>
<event>
 8    1  0.1122465E+005  0.1043930E+01  0.7957747E-01            NaN
         13   -1    0    0    0    0  0.00000000000E+00  0.00000000000E+00  0.74505805969E-08  0.10566000000E+00  0.10566000000E+00 0.  1.
     999900   -1    0    0    0    0 -0.00000000000E+00 -0.00000000000E+00 -0.74505805969E-08  0.93827000000E+00  0.93827000000E+00 0. -1.
     999902    2    1    2    0    0 -0.14924459200E-01  0.44339234950E-02 -0.17010587085E-01  0.10208700947E+01  0.10206096173E+01 0.  0.
     999903    2    3    3    0    0  0.41143561323E-01 -0.39463712401E-02 -0.12213360132E+00  0.13280213536E+00  0.31802894544E-01 0.  0.
         14    1    1    2    0    0  0.14924459200E-01 -0.44339234950E-02  0.17010587085E-01  0.23059905311E-01  0.00000000000E+00 0.  1.
     999901    1    3    3    0    0 -0.56068020523E-01  0.83802947351E-02  0.10512301423E+00  0.88806795933E+00  0.88000000000E+00 0.  1.
        -11    1    4    4    0    0  0.70146003954E-02  0.27321297366E-02 -0.68269104441E-01  0.68684793759E-01  0.51100000000E-03 0.  1.
         11    1    4    4    0    0  0.34128960927E-01 -0.66785009767E-02 -0.53864496875E-01  0.64117341600E-01  0.51100000000E-03 0. -1.
</event>
<event>
 8    1  0.1122465E+005  0.1043930E+01  0.7957747E-01            NaN
         13   -1    0    0    0    0  0.00000000000E+00  0.00000000000E+00  0.74505805969E-08  0.10566000000E+00  0.10566000000E+00 0.  1.
     999900   -1    0    0    0    0 -0.00000000000E+00 -0.00000000000E+00 -0.74505805969E-08  0.93827000000E+00  0.93827000000E+00 0. -1.
     999902    2    1    2    0    0 -0.10689471669E-01 -0.88410174605E-02  0.20634395203E-01  0.10190662380E+01  0.10187628727E+01 0.  0.
     999903    2    3    3    0    0  0.10849705822E+00  0.21869100542E-01 -0.59090762672E-01  0.12693135974E+00  0.19234933100E-01 0.  0.
         14    1    1    2    0    0  0.10689471669E-01  0.88410174605E-02 -0.20634395203E-01  0.24863761978E-01  0.00000000000E+00 0. -1.
     999901    1    3    3    0    0 -0.11918652989E+00 -0.30710118003E-01  0.79725157874E-01  0.89213487828E+00  0.88000000000E+00 0.  1.
        -11    1    4    4    0    0  0.49661267566E-01  0.18069472198E-01 -0.34086133491E-01  0.62887780523E-01  0.51100000000E-03 0.  1.
         11    1    4    4    0    0  0.58835790652E-01  0.37996283447E-02 -0.25004629181E-01  0.64043579215E-01  0.51100000000E-03 0. -1.
</event>
<event>
 8    1  0.1122465E+005  0.1043930E+01  0.7957747E-01            NaN
         13   -1    0    0    0    0  0.00000000000E+00  0.00000000000E+00  0.74505805969E-08  0.10566000000E+00  0.10566000000E+00 0. -1.
     999900   -1    0    0    0    0 -0.00000000000E+00 -0.00000000000E+00 -0.74505805969E-08  0.93827000000E+00  0.93827000000E+00 0. -1.
     999902    2    1    2    0    0 -0.98147134703E-02  0.21654334378E-01 -0.25137672817E-02  0.10200227245E+01  0.10197425168E+01 0.  0.
     999903    2    3    3    0    0 -0.10785429199E+00  0.25358070061E-01  0.68333834486E-01  0.13174075386E+00  0.20261620687E-01 0.  0.
         14    1    1    2    0    0  0.98147134703E-02 -0.21654334378E-01  0.25137672817E-02  0.23907275542E-01  0.00000000000E+00 0.  1.
     999901    1    3    3    0    0  0.98039578524E-01 -0.37037356831E-02 -0.70847601768E-01  0.88828197060E+00  0.88000000000E+00 0.  1.
        -11    1    4    4    0    0 -0.84033805183E-02  0.74261065687E-02  0.38689869736E-02  0.11874091296E-01  0.51100000000E-03 0. -1.
         11    1    4    4    0    0 -0.99450911476E-01  0.17931963493E-01  0.64464847513E-01  0.11986666256E+00  0.51100000000E-03 0.  1.
</event>
<event>
 8    1  0.1122465E+005  0.1043930E+01  0.7957747E-01            NaN
         13   -1    0    0    0    0  0.00000000000E+00  0.00000000000E+00  0.74505805969E-08  0.10566000000E+00  0.10566000000E+00 0.  1.
     999900   -1    0    0    0    0 -0.00000000000E+00 -0.00000000000E+00 -0.74505805969E-08  0.93827000000E+00  0.93827000000E+00 0. -1.
     999902    2    1    2    0    0 -0.15426893086E-01  0.43464240890E-02  0.18910500530E-01  0.10191411424E+01  0.10188396246E+01 0.  0.
     999903    2    3    3    0    0 -0.64761302772E-02  0.67867318843E-01 -0.10647060341E+00  0.12794226363E+00  0.19629574695E-01 0.  0.
         14    1    1    2    0    0  0.15426893086E-01 -0.43464240890E-02 -0.18910500530E-01  0.24788857637E-01  0.00000000000E+00 0. -1.
     999901    1    3    3    0    0 -0.89507628089E-02 -0.63520894754E-01  0.12538110394E+00  0.89119887873E+00  0.88000000000E+00 0.  1.
        -11    1    4    4    0    0  0.11781128197E-02  0.50076940328E-01 -0.64097161710E-01  0.81349831977E-01  0.51100000000E-03 0.  1.
         11    1    4    4    0    0 -0.76542430969E-02  0.17790378515E-01 -0.42373441700E-01  0.46592431656E-01  0.51100000000E-03 0. -1.
</event>
<event>
 8    1  0.1122465E+005  0.1043930E+01  0.7957747E-01            NaN
         13   -1    0    0    0    0  0.00000000000E+00  0.00000000000E+00  0.74505805969E-08  0.10566000000E+00  0.10566000000E+00 0.  1.
     999900   -1    0    0    0    0 -0.00000000000E+00 -0.00000000000E+00 -0.74505805969E-08  0.93827000000E+00  0.93827000000E+00 0. -1.
     999902    2    1    2    0    0 -0.20107408333E-01  0.47434103947E-02 -0.10918744660E-01  0.10205627837E+01  0.10202952360E+01 0.  0.
     999903    2    3    3    0    0 -0.25501620537E-01 -0.10166020126E+00 -0.77056950808E-01  0.13167297704E+00  0.20368358907E-01 0.  0.
         14    1    1    2    0    0  0.20107408333E-01 -0.47434103947E-02  0.10918744660E-01  0.23367216287E-01  0.00000000000E+00 0.  1.
     999901    1    3    3    0    0  0.53942122037E-02  0.10640361165E+00  0.66138206148E-01  0.88888980667E+00  0.88000000000E+00 0.  1.
        -11    1    4    4    0    0 -0.11084034606E-02 -0.30290209145E-01 -0.30678935098E-01  0.43129844748E-01  0.51100000000E-03 0. -1.
         11    1    4    4    0    0 -0.24393217077E-01 -0.71369992113E-01 -0.46378015710E-01  0.88543132290E-01  0.51100000000E-03 0.  1.
</event>
<event>
 8    1  0.1122465E+005  0.1043930E+01  0.7957747E-01            NaN
         13   -1    0    0    0    0  0.00000000000E+00  0.00000000000E+00  0.74505805969E-08  0.10566000000E+00  0.10566000000E+00 0. -1.
     999900   -1    0    0    0    0 -0.00000000000E+00 -0.00000000000E+00 -0.74505805969E-08  0.93827000000E+00  0.93827000000E+00 0.  1.
     999902    2    1    2    0    0  0.22593718015E-01 -0.57240338818E-02 -0.15738997342E-02  0.10205693960E+01  0.10203020015E+01 0.  0.
     999903    2    3    3    0    0  0.10840283089E-01  0.10754471671E+00  0.70207329592E-01  0.13033319255E+00  0.19346682485E-01 0.  0.
         14    1    1    2    0    0 -0.22593718015E-01  0.57240338818E-02  0.15738997342E-02  0.23360603973E-01  0.00000000000E+00 0.  1.
     999901    1    3    3    0    0  0.11753434926E-01 -0.11326875059E+00 -0.71781229326E-01  0.89023620347E+00  0.88000000000E+00 0.  1.
        -11    1    4    4    0    0  0.24654274007E-02  0.77293024450E-01  0.41365728771E-01  0.87702192667E-01  0.51100000000E-03 0.  1.
         11    1    4    4    0    0  0.83748556887E-02  0.30251692258E-01  0.28841600821E-01  0.42630999885E-01  0.51100000000E-03 0. -1.
</event>
<event>
 8    1  0.1122465E+005  0.1043930E+01  0.7957747E-01            NaN
         13   -1    0    0    0    0  0.00000000000E+00  0.00000000000E+00  0.74505805969E-08  0.10566000000E+00  0.10566000000E+00 0.  1.
     999900   -1    0    0    0    0 -0.00000000000E+00 -0.00000000000E+00 -0.74505805969E-08  0.93827000000E+00  0.93827000000E+00 0.  1.
     999902    2    1    2    0    0 -0.15957290385E-01  0.57874949051E-02  0.15136746523E-01  0.10211868404E+01  0.10209335491E+01 0.  0.
     999903    2    3    3    0    0  0.61399903570E-01  0.16931986424E-01 -0.11064736010E+00  0.12881361319E+00  0.17130917146E-01 0.  0.
         14    1    1    2    0    0  0.15957290385E-01 -0.57874949051E-02 -0.15136746523E-01  0.22743159609E-01  0.00000000000E+00 0. -1.
     999901    1    3    3    0    0 -0.77357193954E-01 -0.11144491518E-01  0.12578410663E+00  0.89237322720E+00  0.88000000000E+00 0. -1.
        -11    1    4    4    0    0  0.38214403601E-01  0.23931665262E-02 -0.58483263833E-01  0.69904371524E-01  0.51100000000E-03 0.  1.
         11    1    4    4    0    0  0.23185499968E-01  0.14538819897E-01 -0.52164096270E-01  0.58909241664E-01  0.51100000000E-03 0. -1.
</event>
<event>
 8    1  0.1122465E+005  0.1043930E+01  0.7957747E-01            NaN
         13   -1    0    0    0    0  0.00000000000E+00  0.00000000000E+00  0.74505805969E-08  0.10566000000E+00  0.10566000000E+00 0. -1.
     999900   -1    0    0    0    0 -0.00000000000E+00 -0.00000000000E+00 -0.74505805969E-08  0.93827000000E+00  0.93827000000E+00 0.  1.
     999902    2    1    2    0    0 -0.17256100607E-01 -0.53627864002E-02  0.12795314410E-01  0.10217883524E+01  0.10215484250E+01 0.  0.
     999903    2    3    3    0    0 -0.66265566945E-01  0.66144039036E-01  0.93356670839E-01  0.13386646058E+00  0.20942827332E-01 0.  0.
         14    1    1    2    0    0  0.17256100607E-01  0.53627864002E-02 -0.12795314410E-01  0.22141647567E-01  0.00000000000E+00 0.  1.
     999901    1    3    3    0    0  0.49009466337E-01 -0.71506825437E-01 -0.80561356429E-01  0.88792189185E+00  0.88000000000E+00 0.  1.
        -11    1    4    4    0    0 -0.65530307343E-01  0.57308727109E-01  0.85096659171E-01  0.12173830090E+00  0.51100000000E-03 0.  1.
         11    1    4    4    0    0 -0.73525960203E-03  0.88353119279E-02  0.82600116679E-02  0.12128159683E-01  0.51100000000E-03 0. -1.
</event>
<event>
 8    1  0.1122465E+005  0.1043930E+01  0.7957747E-01            NaN
         13   -1    0    0    0    0  0.00000000000E+00  0.00000000000E+00  0.74505805969E-08  0.10566000000E+00  0.10566000000E+00 0. -1.
     999900   -1    0    0    0    0 -0.00000000000E+00 -0.00000000000E+00 -0.74505805969E-08  0.93827000000E+00  0.93827000000E+00 0. -1.
     999902    2    1    2    0    0  0.21275606641E-01  0.70607661883E-02  0.52442136095E-02  0.10209081053E+01  0.10206484958E+01 0.  0.
     999903    2    3    3    0    0 -0.48326538345E-01 -0.22758159570E-01  0.11815170666E+00  0.13046904010E+00  0.14455327886E-01 0.  0.
         14    1    1    2    0    0 -0.21275606641E-01 -0.70607661883E-02 -0.52442136095E-02  0.23021894654E-01  0.00000000000E+00 0. -1.
     999901    1    3    3    0    0  0.69602144986E-01  0.29818925758E-01 -0.11290749305E+00  0.89043906524E+00  0.88000000000E+00 0. -1.
        -11    1    4    4    0    0 -0.26446962166E-01 -0.65543198671E-02  0.47672069001E-01  0.54911639937E-01  0.51100000000E-03 0.  1.
         11    1    4    4    0    0 -0.21879576179E-01 -0.16203839703E-01  0.70479637657E-01  0.75557400168E-01  0.51100000000E-03 0. -1.
</event>
<event>
 8    1  0.1122465E+005  0.1043930E+01  0.7957747E-01            NaN
         13   -1    0    0    0    0  0.00000000000E+00  0.00000000000E+00  0.74505805969E-08  0.10566000000E+00  0.10566000000E+00 0.  1.
     999900   -1    0    0    0    0 -0.00000000000E+00 -0.00000000000E+00 -0.74505805969E-08  0.93827000000E+00  0.93827000000E+00 0.  1.
     999902    2    1    2    0    0  0.10589701150E-01 -0.27157219321E-02  0.15690371426E-01  0.10248065936E+01  0.10246281519E+01 0.  0.
     999903    2    3    3    0    0 -0.72232514324E-01 -0.19431930870E-01  0.11129430942E+00  0.13560523061E+00  0.20179672894E-01 0.  0.
         14    1    1    2    0    0 -0.10589701150E-01  0.27157219321E-02 -0.15690371426E-01  0.19123406380E-01  0.00000000000E+00 0.  1.
     999901    1    3    3    0    0  0.82822215474E-01  0.16716208938E-01 -0.95603937989E-01  0.88920136301E+00  0.88000000000E+00 0.  1.
        -11    1    4    4    0    0 -0.60772834479E-01 -0.18016412195E-01  0.78893422410E-01  0.10120455395E+00  0.51100000000E-03 0.  1.
         11    1    4    4    0    0 -0.11459679845E-01 -0.14155186749E-02  0.32400887006E-01  0.34400676665E-01  0.51100000000E-03 0. -1.
</event>
<event>
 8    1  0.1122465E+005  0.1043930E+01  0.7957747E-01            NaN
         13   -1    0    0    0    0  0.00000000000E+00  0.00000000000E+00  0.74505805969E-08  0.10566000000E+00  0.10566000000E+00 0.  1.
     999900   -1    0    0    0    0 -0.00000000000E+00 -0.00000000000E+00 -0.74505805969E-08  0.93827000000E+00  0.93827000000E+00 0.  1.
     999902    2    1    2    0    0 -0.16141506869E-01 -0.13574275218E-01 -0.73116560832E-02  0.10216080488E+01  0.10213641544E+01 0.  0.
     999903    2    3    3    0    0 -0.13074834708E+00 -0.21125009592E-01 -0.81998072834E-02  0.13414394797E+00  0.19646008281E-01 0.  0.
         14    1    1    2    0    0  0.16141506869E-01  0.13574275218E-01  0.73116560832E-02  0.22321951222E-01  0.00000000000E+00 0. -1.
     999901    1    3    3    0    0  0.11460684022E+00  0.75507343740E-02  0.88815120027E-03  0.88746410081E+00  0.88000000000E+00 0. -1.
        -11    1    4    4    0    0 -0.55660621089E-01 -0.13467240761E-01 -0.12219412087E-01  0.58558060644E-01  0.51100000000E-03 0.  1.
         11    1    4    4    0    0 -0.75087725996E-01 -0.76577688304E-02  0.40196048038E-02  0.75585887323E-01  0.51100000000E-03 0. -1.
</event>
<event>
 8    1  0.1122465E+005  0.1043930E+01  0.7957747E-01            NaN
         13   -1    0    0    0    0  0.00000000000E+00  0.00000000000E+00  0.74505805969E-08  0.10566000000E+00  0.10566000000E+00 0. -1.
     999900   -1    0    0    0    0 -0.00000000000E+00 -0.00000000000E+00 -0.74505805969E-08  0.93827000000E+00  0.93827000000E+00 0. -1.
     999902    2    1    2    0    0 -0.17380369251E-02  0.22303140387E-01 -0.71193804817E-02  0.10204537051E+01  0.10201836246E+01 0.  0.
     999903    2    3    3    0    0  0.72120350374E-01 -0.14225174410E-01  0.10478278217E+00  0.12954884309E+00  0.19994268725E-01 0.  0.
         14    1    1    2    0    0  0.17380369251E-02 -0.22303140387E-01  0.71193804817E-02  0.23476294894E-01  0.00000000000E+00 0. -1.
     999901    1    3    3    0    0 -0.73858387299E-01  0.36528314797E-01 -0.11190216265E+00  0.89090486202E+00  0.88000000000E+00 0.  1.
        -11    1    4    4    0    0  0.15248074340E-01  0.46403590699E-02  0.27054302516E-01  0.31404348568E-01  0.51100000000E-03 0. -1.
         11    1    4    4    0    0  0.56872276034E-01 -0.18865533479E-01  0.77728479654E-01  0.98144494523E-01  0.51100000000E-03 0.  1.
</event>
<event>
 8    1  0.1122465E+005  0.1043930E+01  0.7957747E-01            NaN
         13   -1    0    0    0    0  0.00000000000E+00  0.00000000000E+00  0.74505805969E-08  0.10566000000E+00  0.10566000000E+00 0. -1.
     999900   -1    0    0    0    0 -0.00000000000E+00 -0.00000000000E+00 -0.74505805969E-08  0.93827000000E+00  0.93827000000E+00 0.  1.
     999902    2    1    2    0    0  0.21232344031E-01 -0.85561284314E-02  0.42932125229E-02  0.10206394130E+01  0.10203736375E+01 0.  0.
     999903    2    3    3    0    0  0.97984026795E-01 -0.12860341920E-01  0.87335626786E-01  0.13339345525E+00  0.20001107381E-01 0.  0.
         14    1    1    2    0    0 -0.21232344031E-01  0.85561284314E-02 -0.42932125229E-02  0.23290586951E-01  0.00000000000E+00 0. -1.
     999901    1    3    3    0    0 -0.76751682764E-01  0.43042134888E-02 -0.83042414263E-01  0.88724595780E+00  0.88000000000E+00 0. -1.
        -11    1    4    4    0    0  0.50366694301E-01  0.18120340071E-02  0.36667224883E-01  0.62328435434E-01  0.51100000000E-03 0. -1.
         11    1    4    4    0    0  0.47617332494E-01 -0.14672375927E-01  0.50668401903E-01  0.71065019817E-01  0.51100000000E-03 0.  1.
</event>
<event>
 8    1  0.1122465E+005  0.1043930E+01  0.7957747E-01            NaN
         13   -1    0    0    0    0  0.00000000000E+00  0.00000000000E+00  0.74505805969E-08  0.10566000000E+00  0.10566000000E+00 0. -1.
     999900   -1    0    0    0    0 -0.00000000000E+00 -0.00000000000E+00 -0.74505805969E-08  0.93827000000E+00  0.93827000000E+00 0.  1.
     999902    2    1    2    0    0 -0.11716595607E-01  0.20327939032E-01  0.17145316622E-02  0.10204046236E+01  0.10201333993E+01 0.  0.
     999903    2    3    3    0    0 -0.38533085589E-01  0.98299427306E-01  0.78907997640E-01  0.13318564929E+00  0.19088451757E-01 0.  0.
         14    1    1    2    0    0  0.11716595607E-01 -0.20327939032E-01 -0.17145316622E-02  0.23525376442E-01  0.00000000000E+00 0.  1.
     999901    1    3    3    0    0  0.26816489982E-01 -0.77971488274E-01 -0.77193465977E-01  0.88721897427E+00  0.88000000000E+00 0.  1.
        -11    1    4    4    0    0 -0.15293353940E-01  0.30328026534E-01  0.36062867706E-01  0.49542581850E-01  0.51100000000E-03 0. -1.
         11    1    4    4    0    0 -0.23239731649E-01  0.67971400772E-01  0.42845129933E-01  0.83643067436E-01  0.51100000000E-03 0.  1.
</event>
<event>
 8    1  0.1122465E+005  0.1043930E+01  0.7957747E-01            NaN
         13   -1    0    0    0    0  0.00000000000E+00  0.00000000000E+00  0.74505805969E-08  0.10566000000E+00  0.10566000000E+00 0. -1.
     999900   -1    0    0    0    0 -0.00000000000E+00 -0.00000000000E+00 -0.74505805969E-08  0.93827000000E+00  0.93827000000E+00 0.  1.
     999902    2    1    2    0    0  0.50497799903E-02 -0.22199573470E-01  0.75202986807E-02  0.10199534233E+01  0.10196715694E+01 0.  0.
     999903    2    3    3    0    0 -0.37336558576E-01  0.55133133945E-01 -0.10772132489E+00  0.12806913640E+00  0.19082421164E-01 0.  0.
         14    1    1    2    0    0 -0.50497799903E-02  0.22199573470E-01 -0.75202986807E-02  0.23976576746E-01  0.00000000000E+00 0.  1.
     999901    1    3    3    0    0  0.42386338567E-01 -0.77332707415E-01  0.11524162357E+00  0.89188428685E+00  0.88000000000E+00 0. -1.
        -11    1    4    4    0    0 -0.19507021696E-01  0.22360109914E-01 -0.31937388306E-01  0.43597663969E-01  0.51100000000E-03 0. -1.
         11    1    4    4    0    0 -0.17829536880E-01  0.32773024032E-01 -0.75783936584E-01  0.84471472431E-01  0.51100000000E-03 0.  1.
</event>
<event>
 8    1  0.1122465E+005  0.1043930E+01  0.7957747E-01            NaN
         13   -1    0    0    0    0  0.00000000000E+00  0.00000000000E+00  0.74505805969E-08  0.10566000000E+00  0.10566000000E+00 0. -1.
     999900   -1    0    0    0    0 -0.00000000000E+00 -0.00000000000E+00 -0.74505805969E-08  0.93827000000E+00  0.93827000000E+00 0.  1.
     999902    2    1    2    0    0 -0.19290480480E-02 -0.23043857465E-02  0.23718699778E-01  0.10200216722E+01  0.10197414396E+01 0.  0.
     999903    2    3    3    0    0  0.36519554464E-01 -0.12000336970E+00 -0.22355866328E-01  0.13015976632E+00  0.26594988484E-01 0.  0.
         14    1    1    2    0    0  0.19290480480E-02  0.23043857465E-02 -0.23718699778E-01  0.23908327821E-01  0.00000000000E+00 0.  1.
     999901    1    3    3    0    0 -0.38448602512E-01  0.11769898395E+00  0.46074566106E-01  0.88986190586E+00  0.88000000000E+00 0. -1.
        -11    1    4    4    0    0  0.55097153143E-02 -0.63020732617E-01 -0.86497401267E-02  0.63851772314E-01  0.51100000000E-03 0. -1.
         11    1    4    4    0    0  0.31009839149E-01 -0.56982637079E-01 -0.13706126201E-01  0.66307994005E-01  0.51100000000E-03 0.  1.
</event>
<event>
 8    1  0.1122465E+005  0.1043930E+01  0.7957747E-01            NaN
         13   -1    0    0    0    0  0.00000000000E+00  0.00000000000E+00  0.74505805969E-08  0.10566000000E+00  0.10566000000E+00 0. -1.
     999900   -1    0    0    0    0 -0.00000000000E+00 -0.00000000000E+00 -0.74505805969E-08  0.93827000000E+00  0.93827000000E+00 0.  1.
     999902    2    1    2    0    0  0.69142766875E-03 -0.20562922305E-01 -0.11322195175E-01  0.10204458788E+01  0.10201756160E+01 0.  0.
     999903    2    3    3    0    0  0.21767238579E-01 -0.97423909247E-01 -0.86293613437E-01  0.13366940487E+00  0.21346927426E-01 0.  0.
         14    1    1    2    0    0 -0.69142766875E-03  0.20562922305E-01  0.11322195175E-01  0.23484121221E-01  0.00000000000E+00 0.  1.
     999901    1    3    3    0    0 -0.21075810911E-01  0.76860986942E-01  0.74971418262E-01  0.88677647391E+00  0.88000000000E+00 0. -1.
        -11    1    4    4    0    0  0.18241357249E-01 -0.89699554671E-01 -0.85273070185E-01  0.12510201774E+00  0.51100000000E-03 0.  1.
         11    1    4    4    0    0  0.35258813303E-02 -0.77243545760E-02 -0.10205432521E-02  0.85673871339E-02  0.51100000000E-03 0. -1.
</event>
<event>
 8    1  0.1122465E+005  0.1043930E+01  0.7957747E-01            NaN
         13   -1    0    0    0    0  0.00000000000E+00  0.00000000000E+00  0.74505805969E-08  0.10566000000E+00  0.10566000000E+00 0. -1.
     999900   -1    0    0    0    0 -0.00000000000E+00 -0.00000000000E+00 -0.74505805969E-08  0.93827000000E+00  0.93827000000E+00 0.  1.
     999902    2    1    2    0    0  0.46951390668E-02 -0.29727150553E-02  0.23078206145E-01  0.10201921618E+01  0.10199159583E+01 0.  0.
     999903    2    3    3    0    0  0.95153494521E-01  0.87513408469E-01  0.34265459565E-02  0.13072229697E+00  0.19073372152E-01 0.  0.
         14    1    1    2    0    0 -0.46951390668E-02  0.29727150553E-02 -0.23078206145E-01  0.23737838244E-01  0.00000000000E+00 0.  1.
     999901    1    3    3    0    0 -0.90458355455E-01 -0.90486123524E-01  0.19651660188E-01  0.88946986479E+00  0.88000000000E+00 0. -1.
        -11    1    4    4    0    0  0.19085726427E-01  0.24868892849E-01 -0.52815456347E-02  0.31794380479E-01  0.51100000000E-03 0.  1.
         11    1    4    4    0    0  0.76067768095E-01  0.62644515620E-01  0.87080915912E-02  0.98927916486E-01  0.51100000000E-03 0. -1.
</event>
<event>
 8    1  0.1122465E+005  0.1043930E+01  0.7957747E-01            NaN
         13   -1    0    0    0    0  0.00000000000E+00  0.00000000000E+00  0.74505805969E-08  0.10566000000E+00  0.10566000000E+00 0. -1.
     999900   -1    0    0    0    0 -0.00000000000E+00 -0.00000000000E+00 -0.74505805969E-08  0.93827000000E+00  0.93827000000E+00 0. -1.
     999902    2    1    2    0    0 -0.73475061952E-02  0.14108104667E-01 -0.17296519762E-01  0.10204311902E+01  0.10201605854E+01 0.  0.
     999903    2    3    3    0    0  0.85242840456E-01 -0.84538905029E-01  0.40332756843E-01  0.12822866931E+00  0.20067188308E-01 0.  0.
         14    1    1    2    0    0  0.73475061952E-02 -0.14108104667E-01  0.17296519762E-01  0.23498809767E-01  0.00000000000E+00 0. -1.
     999901    1    3    3    0    0 -0.92590346652E-01  0.98647009696E-01 -0.57629276605E-01  0.89220252092E+00  0.88000000000E+00 0. -1.
        -11    1    4    4    0    0  0.62815804725E-01 -0.71371805433E-01  0.26186789988E-01  0.98619313650E-01  0.51100000000E-03 0. -1.
         11    1    4    4    0    0  0.22427035732E-01 -0.13167099596E-01  0.14145966855E-01  0.29609355663E-01  0.51100000000E-03 0.  1.
</event>
<event>
 8    1  0.1122465E+005  0.1043930E+01  0.7957747E-01            NaN
         13   -1    0    0    0    0  0.00000000000E+00  0.00000000000E+00  0.74505805969E-08  0.10566000000E+00  0.10566000000E+00 0. -1.
     999900   -1    0    0    0    0 -0.00000000000E+00 -0.00000000000E+00 -0.74505805969E-08  0.93827000000E+00  0.93827000000E+00 0. -1.
     999902    2    1    2    0    0 -0.91173124042E-02 -0.20058507690E-01  0.87050478875E-02  0.10202393484E+01  0.10199642548E+01 0.  0.
     999903    2    3    3    0    0 -0.82259958664E-01 -0.64018455581E-01  0.81386305705E-01  0.13312893305E+00  0.15314000267E-01 0.  0.
         14    1    1    2    0    0  0.91173124042E-02  0.20058507690E-01 -0.87050478875E-02  0.23690651636E-01  0.00000000000E+00 0.  1.
     999901    1    3    3    0    0  0.73142646260E-01  0.43959947891E-01 -0.72681257818E-01  0.88711041531E+00  0.88000000000E+00 0. -1.
        -11    1    4    4    0    0 -0.67030074794E-01 -0.46416416236E-01  0.57475423457E-01  0.99755701820E-01  0.51100000000E-03 0. -1.
         11    1    4    4    0    0 -0.15229883870E-01 -0.17602039345E-01  0.23910882248E-01  0.33373231229E-01  0.51100000000E-03 0.  1.
</event>
<event>
 8    1  0.1122465E+005  0.1043930E+01  0.7957747E-01            NaN
         13   -1    0    0    0    0  0.00000000000E+00  0.00000000000E+00  0.74505805969E-08  0.10566000000E+00  0.10566000000E+00 0.  1.
     999900   -1    0    0    0    0 -0.00000000000E+00 -0.00000000000E+00 -0.74505805969E-08  0.93827000000E+00  0.93827000000E+00 0. -1.
     999902    2    1    2    0    0  0.12675347618E-01 -0.19005042031E-01  0.41726313520E-02  0.10207078788E+01  0.10204436814E+01 0.  0.
     999903    2    3    3    0    0 -0.11123198541E+00  0.49935219590E-01 -0.33076099055E-01  0.12857938204E+00  0.23927984083E-01 0.  0.
         14    1    1    2    0    0 -0.12675347618E-01  0.19005042031E-01 -0.41726313520E-02  0.23222121183E-01  0.00000000000E+00 0.  1.
     999901    1    3    3    0    0  0.12390733303E+00 -0.68940261620E-01  0.37248730407E-01  0.89212849678E+00  0.88000000000E+00 0.  1.
        -11    1    4    4    0    0 -0.28972504358E-01  0.20656978367E-01 -0.11344220425E-02  0.35604280620E-01  0.51100000000E-03 0.  1.
         11    1    4    4    0    0 -0.82259481053E-01  0.29278241222E-01 -0.31941677013E-01  0.92975101417E-01  0.51100000000E-03 0. -1.
</event>
<event>
 8    1  0.1122465E+005  0.1043930E+01  0.7957747E-01            NaN
         13   -1    0    0    0    0  0.00000000000E+00  0.00000000000E+00  0.74505805969E-08  0.10566000000E+00  0.10566000000E+00 0. -1.
     999900   -1    0    0    0    0 -0.00000000000E+00 -0.00000000000E+00 -0.74505805969E-08  0.93827000000E+00  0.93827000000E+00 0. -1.
     999902    2    1    2    0    0 -0.13740634634E-01  0.48721465979E-02 -0.19447340206E-01  0.10196248176E+01  0.10193350905E+01 0.  0.
     999903    2    3    3    0    0 -0.41330021042E-01 -0.12150124895E+00  0.69288903118E-03  0.12994114446E+00  0.20334620533E-01 0.  0.
         14    1    1    2    0    0  0.13740634634E-01 -0.48721465979E-02  0.19447340206E-01  0.24305182446E-01  0.00000000000E+00 0. -1.
     999901    1    3    3    0    0  0.27589386408E-01  0.12637339555E+00 -0.20140229238E-01  0.88968367310E+00  0.88000000000E+00 0. -1.
        -11    1    4    4    0    0 -0.21998447243E-01 -0.36182348128E-01  0.27121524687E-02  0.42434783953E-01  0.51100000000E-03 0.  1.
         11    1    4    4    0    0 -0.19331573799E-01 -0.85318900820E-01 -0.20192634375E-02  0.87506360503E-01  0.51100000000E-03 0. -1.
</event>
<event>
 8    1  0.1122465E+005  0.1043930E+01  0.7957747E-01            NaN
         13   -1    0    0    0    0  0.00000000000E+00  0.00000000000E+00  0.74505805969E-08  0.10566000000E+00  0.10566000000E+00 0.  1.
     999900   -1    0    0    0    0 -0.00000000000E+00 -0.00000000000E+00 -0.74505805969E-08  0.93827000000E+00  0.93827000000E+00 0.  1.
     999902    2    1    2    0    0  0.19551272260E-01  0.61288235709E-02 -0.11616308722E-01  0.10203767974E+01  0.10201049237E+01 0.  0.
     999903    2    3    3    0    0  0.10017552772E+00  0.28409905690E-01  0.78390119584E-01  0.13183986831E+00  0.19861544018E-01 0.  0.
         14    1    1    2    0    0 -0.19551272260E-01 -0.61288235709E-02  0.11616308722E-01  0.23553202620E-01  0.00000000000E+00 0.  1.
     999901    1    3    3    0    0 -0.80624255464E-01 -0.22281082119E-01 -0.90006428306E-01  0.88853692907E+00  0.88000000000E+00 0.  1.
        -11    1    4    4    0    0  0.53758278905E-01  0.25455250375E-01  0.43245613524E-01  0.73541597294E-01  0.51100000000E-03 0. -1.
         11    1    4    4    0    0  0.46417248818E-01  0.29546553154E-02  0.35144506059E-01  0.58298271013E-01  0.51100000000E-03 0.  1.
</event>
<event>
 8    1  0.1122465E+005  0.1043930E+01  0.7957747E-01            NaN
         13   -1    0    0    0    0  0.00000000000E+00  0.00000000000E+00  0.74505805969E-08  0.10566000000E+00  0.10566000000E+00 0. -1.
     999900   -1    0    0    0    0 -0.00000000000E+00 -0.00000000000E+00 -0.74505805969E-08  0.93827000000E+00  0.93827000000E+00 0.  1.
     999902    2    1    2    0    0 -0.19958489930E-01  0.64407816677E-02  0.10829291005E-01  0.10203270652E+01  0.10200540287E+01 0.  0.
     999903    2    3    3    0    0 -0.13132934052E+00 -0.13739889956E-02  0.12942819200E-01  0.13327069492E+00  0.18554730632E-01 0.  0.
         14    1    1    2    0    0  0.19958489930E-01 -0.64407816677E-02 -0.10829291005E-01  0.23602934827E-01  0.00000000000E+00 0.  1.
     999901    1    3    3    0    0  0.11137085059E+00  0.78147706632E-02 -0.21135281953E-02  0.88705637025E+00  0.88000000000E+00 0.  1.
        -11    1    4    4    0    0 -0.50371081953E-01 -0.64168454063E-02 -0.18578177231E-02  0.50814706629E-01  0.51100000000E-03 0.  1.
         11    1    4    4    0    0 -0.80958258567E-01  0.50428564107E-02  0.14800636923E-01  0.82455988293E-01  0.51100000000E-03 0. -1.
</event>
<event>
 8    1  0.1122465E+005  0.1043930E+01  0.7957747E-01            NaN
         13   -1    0    0    0    0  0.00000000000E+00  0.00000000000E+00  0.74505805969E-08  0.10566000000E+00  0.10566000000E+00 0. -1.
     999900   -1    0    0    0    0 -0.00000000000E+00 -0.00000000000E+00 -0.74505805969E-08  0.93827000000E+00  0.93827000000E+00 0.  1.
     999902    2    1    2    0    0  0.46635038449E-02 -0.45800568676E-02  0.22482831511E-01  0.10205162668E+01  0.10202476405E+01 0.  0.
     999903    2    3    3    0    0 -0.88034885232E-01 -0.61513391987E-01  0.74427840359E-01  0.13229744246E+00  0.20714039926E-01 0.  0.
         14    1    1    2    0    0 -0.46635038449E-02  0.45800568676E-02 -0.22482831511E-01  0.23413733188E-01  0.00000000000E+00 0.  1.
     999901    1    3    3    0    0  0.92698389076E-01  0.56933335120E-01 -0.51945008848E-01  0.88821882435E+00  0.88000000000E+00 0.  1.
        -11    1    4    4    0    0 -0.57178070468E-01 -0.35149788185E-01  0.34941217953E-01  0.75670266188E-01  0.51100000000E-03 0.  1.
         11    1    4    4    0    0 -0.30856814763E-01 -0.26363603802E-01  0.39486622406E-01  0.56627176274E-01  0.51100000000E-03 0. -1.
</event>
<event>
 8    1  0.1122465E+005  0.1043930E+01  0.7957747E-01            NaN
         13   -1    0    0    0    0  0.00000000000E+00  0.00000000000E+00  0.74505805969E-08  0.10566000000E+00  0.10566000000E+00 0.  1.
     999900   -1    0    0    0    0 -0.00000000000E+00 -0.00000000000E+00 -0.74505805969E-08  0.93827000000E+00  0.93827000000E+00 0. -1.
     999902    2    1    2    0    0  0.24113054227E-01 -0.23606797072E-02  0.21774108217E-02  0.10196040198E+01  0.10193137907E+01 0.  0.
     999903    2    3    3    0    0 -0.28559226165E-01 -0.95532851210E-01 -0.79745828563E-01  0.12934178891E+00  0.20682024237E-01 0.  0.
         14    1    1    2    0    0 -0.24113054227E-01  0.23606797072E-02 -0.21774108217E-02  0.24325980160E-01  0.00000000000E+00 0.  1.
     999901    1    3    3    0    0  0.52672280392E-01  0.93172171502E-01  0.81923239385E-01  0.89026223093E+00  0.88000000000E+00 0.  1.
        -11    1    4    4    0    0 -0.14214736721E-01 -0.34033994645E-01 -0.18092369825E-01  0.41084869459E-01  0.51100000000E-03 0.  1.
         11    1    4    4    0    0 -0.14344489444E-01 -0.61498856564E-01 -0.61653458738E-01  0.88256919454E-01  0.51100000000E-03 0. -1.
</event>
<event>
 8    1  0.1150736E+005  0.1043930E+01  0.7957747E-01            NaN
         13   -1    0    0    0    0  0.00000000000E+00  0.00000000000E+00  0.74505805969E-08  0.10566000000E+00  0.10566000000E+00 0.  1.
     999900   -1    0    0    0    0 -0.00000000000E+00 -0.00000000000E+00 -0.74505805969E-08  0.93827000000E+00  0.93827000000E+00 0.  1.
     999902    2    1    2    0    0 -0.92875482355E-04  0.25300194835E-02 -0.23536733688E-01  0.10202574958E+01  0.10199828284E+01 0.  0.
     999903    2    3    3    0    0 -0.95007107587E-01 -0.88181745774E-01 -0.16618096746E-02  0.13024859237E+00  0.12631841612E-01 0.  0.
         14    1    1    2    0    0  0.92875482355E-04 -0.25300194835E-02  0.23536733688E-01  0.23672504244E-01  0.00000000000E+00 0.  1.
     999901    1    3    3    0    0  0.94914232104E-01  0.90711765257E-01 -0.21874924014E-01  0.89000890339E+00  0.88000000000E+00 0.  1.
        -11    1    4    4    0    0 -0.67487036999E-01 -0.54775751404E-01 -0.24869961609E-02  0.86955904777E-01  0.51100000000E-03 0.  1.
         11    1    4    4    0    0 -0.27520070588E-01 -0.33405994370E-01  0.82518648625E-03  0.43292687590E-01  0.51100000000E-03 0. -1.
</event>
<event>
 8    1  0.1122465E+005  0.1043930E+01  0.7957747E-01            NaN
         13   -1    0    0    0    0  0.00000000000E+00  0.00000000000E+00  0.74505805969E-08  0.10566000000E+00  0.10566000000E+00 0. -1.
     999900   -1    0    0    0    0 -0.00000000000E+00 -0.00000000000E+00 -0.74505805969E-08  0.93827000000E+00  0.93827000000E+00 0.  1.
     999902    2    1    2    0    0 -0.33328963656E-02 -0.23429432570E-01 -0.92734535530E-03  0.10202465358E+01  0.10199716110E+01 0.  0.
     999903    2    3    3    0    0  0.43827784863E-01  0.75161196611E-01 -0.92739597382E-01  0.12874570479E+00  0.20118234918E-01 0.  0.
         14    1    1    2    0    0  0.33328963656E-02  0.23429432570E-01  0.92734535530E-03  0.23683464234E-01  0.00000000000E+00 0. -1.
     999901    1    3    3    0    0 -0.47160681229E-01 -0.98590629181E-01  0.91812252026E-01  0.89150083098E+00  0.88000000000E+00 0. -1.
        -11    1    4    4    0    0  0.25185361786E-01  0.45911621176E-01 -0.41261453131E-01  0.66670443548E-01  0.51100000000E-03 0. -1.
         11    1    4    4    0    0  0.18642423077E-01  0.29249575435E-01 -0.51478144250E-01  0.62075261238E-01  0.51100000000E-03 0.  1.
</event>
<event>
 8    1  0.1122465E+005  0.1043930E+01  0.7957747E-01            NaN
         13   -1    0    0    0    0  0.00000000000E+00  0.00000000000E+00  0.74505805969E-08  0.10566000000E+00  0.10566000000E+00 0. -1.
     999900   -1    0    0    0    0 -0.00000000000E+00 -0.00000000000E+00 -0.74505805969E-08  0.93827000000E+00  0.93827000000E+00 0.  1.
     999902    2    1    2    0    0 -0.20234040987E-01 -0.10996460258E-01 -0.27037673425E-02  0.10207427425E+01  0.10204793469E+01 0.  0.
     999903    2    3    3    0    0 -0.22610232744E-01 -0.68353964538E-01  0.10869329183E+00  0.13186432877E+00  0.19760628052E-01 0.  0.
         14    1    1    2    0    0  0.20234040987E-01  0.10996460258E-01  0.27037673425E-02  0.23187257507E-01  0.00000000000E+00 0. -1.
     999901    1    3    3    0    0  0.23761917574E-02  0.57357504280E-01 -0.11139705917E+00  0.88887841372E+00  0.88000000000E+00 0.  1.
        -11    1    4    4    0    0 -0.18614844355E-01 -0.26604227457E-01  0.42220071085E-01  0.53264367756E-01  0.51100000000E-03 0.  1.
         11    1    4    4    0    0 -0.39953883893E-02 -0.41749737081E-01  0.66473220745E-01  0.78599961018E-01  0.51100000000E-03 0. -1.
</event>
<event>
 8    1  0.1122465E+005  0.1043930E+01  0.7957747E-01            NaN
         13   -1    0    0    0    0  0.00000000000E+00  0.00000000000E+00  0.74505805969E-08  0.10566000000E+00  0.10566000000E+00 0. -1.
     999900   -1    0    0    0    0 -0.00000000000E+00 -0.00000000000E+00 -0.74505805969E-08  0.93827000000E+00  0.93827000000E+00 0.  1.
     999902    2    1    2    0    0 -0.90234050457E-02 -0.44563605002E-02 -0.19565771333E-01  0.10219277184E+01  0.10216908345E+01 0.  0.
     999903    2    3    3    0    0 -0.32706966991E-02  0.10431588677E+00 -0.80324257621E-01  0.13313297884E+00  0.19491074935E-01 0.  0.
         14    1    1    2    0    0  0.90234050457E-02  0.44563605002E-02  0.19565771333E-01  0.22002281595E-01  0.00000000000E+00 0. -1.
     999901    1    3    3    0    0 -0.57527083465E-02 -0.10877224727E+00  0.60758486289E-01  0.88879473957E+00  0.88000000000E+00 0. -1.
        -11    1    4    4    0    0 -0.11327378824E-01  0.64520273507E-01 -0.51685056613E-01  0.83443282549E-01  0.51100000000E-03 0. -1.
         11    1    4    4    0    0  0.80566821247E-02  0.39795613262E-01 -0.28639201008E-01  0.49689696288E-01  0.51100000000E-03 0.  1.
</event>
<event>
 8    1  0.1122465E+005  0.1043930E+01  0.7957747E-01            NaN
         13   -1    0    0    0    0  0.00000000000E+00  0.00000000000E+00  0.74505805969E-08  0.10566000000E+00  0.10566000000E+00 0. -1.
     999900   -1    0    0    0    0 -0.00000000000E+00 -0.00000000000E+00 -0.74505805969E-08  0.93827000000E+00  0.93827000000E+00 0.  1.
     999902    2    1    2    0    0  0.73008536903E-02 -0.95736828749E-02 -0.20311555560E-01  0.10203181988E+01  0.10200449547E+01 0.  0.
     999903    2    3    3    0    0  0.86223623948E-01 -0.63709236667E-03 -0.99800911816E-01  0.13317265035E+00  0.18434033411E-01 0.  0.
         14    1    1    2    0    0 -0.73008536903E-02  0.95736828749E-02  0.20311555560E-01  0.23611801237E-01  0.00000000000E+00 0. -1.
     999901    1    3    3    0    0 -0.78922770257E-01 -0.89365905082E-02  0.79489356256E-01  0.88714554842E+00  0.88000000000E+00 0. -1.
        -11    1    4    4    0    0  0.80077549506E-02  0.13329409800E-02 -0.29195752282E-02  0.86421011055E-02  0.51100000000E-03 0.  1.
         11    1    4    4    0    0  0.78215868997E-01 -0.19700333466E-02 -0.96881336588E-01  0.12453054924E+00  0.51100000000E-03 0. -1.
</event>
<event>
 8    1  0.1122465E+005  0.1043930E+01  0.7957747E-01            NaN
         13   -1    0    0    0    0  0.00000000000E+00  0.00000000000E+00  0.74505805969E-08  0.10566000000E+00  0.10566000000E+00 0.  1.
     999900   -1    0    0    0    0 -0.00000000000E+00 -0.00000000000E+00 -0.74505805969E-08  0.93827000000E+00  0.93827000000E+00 0. -1.
     999902    2    1    2    0    0  0.22702753556E-01 -0.66635029139E-02  0.19936018899E-02  0.10201857009E+01  0.10199093453E+01 0.  0.
     999903    2    3    3    0    0 -0.14722062635E-01  0.13821808981E-01  0.12718044003E+00  0.13030255730E+00  0.19902526982E-01 0.  0.
         14    1    1    2    0    0 -0.22702753556E-01  0.66635029139E-02 -0.19936018899E-02  0.23744299076E-01  0.00000000000E+00 0.  1.
     999901    1    3    3    0    0  0.37424816191E-01 -0.20485311895E-01 -0.12518683814E+00  0.88988314363E+00  0.88000000000E+00 0. -1.
        -11    1    4    4    0    0  0.25877185695E-02  0.34907728701E-02  0.60043799252E-01  0.60202996040E-01  0.51100000000E-03 0.  1.
         11    1    4    4    0    0 -0.17309781204E-01  0.10331036111E-01  0.67136640777E-01  0.70099561256E-01  0.51100000000E-03 0. -1.
</event>
<event>
 8    1  0.1122465E+005  0.1043930E+01  0.7957747E-01            NaN
         13   -1    0    0    0    0  0.00000000000E+00  0.00000000000E+00  0.74505805969E-08  0.10566000000E+00  0.10566000000E+00 0. -1.
     999900   -1    0    0    0    0 -0.00000000000E+00 -0.00000000000E+00 -0.74505805969E-08  0.93827000000E+00  0.93827000000E+00 0. -1.
     999902    2    1    2    0    0 -0.32357950714E-02  0.23467259059E-01  0.67038887287E-03  0.10202312228E+01  0.10199559383E+01 0.  0.
     999903    2    3    3    0    0 -0.27903080711E-01 -0.82791766186E-01 -0.92445058394E-01  0.12862035372E+00  0.19080044735E-01 0.  0.
         14    1    1    2    0    0  0.32357950714E-02 -0.23467259059E-01 -0.67038887287E-03  0.23698777157E-01  0.00000000000E+00 0.  1.
     999901    1    3    3    0    0  0.24667285640E-01  0.10625902524E+00  0.93115447267E-01  0.89161086913E+00  0.88000000000E+00 0.  1.
        -11    1    4    4    0    0  0.23452839260E-02 -0.39478400857E-02 -0.25367002342E-02  0.52708412150E-02  0.51100000000E-03 0. -1.
         11    1    4    4    0    0 -0.30248364637E-01 -0.78843926100E-01 -0.89908358160E-01  0.12334951250E+00  0.51100000000E-03 0.  1.
</event>
<event>
 8    1  0.1122465E+005  0.1043930E+01  0.7957747E-01            NaN
         13   -1    0    0    0    0  0.00000000000E+00  0.00000000000E+00  0.74505805969E-08  0.10566000000E+00  0.10566000000E+00 0. -1.
     999900   -1    0    0    0    0 -0.00000000000E+00 -0.00000000000E+00 -0.74505805969E-08  0.93827000000E+00  0.93827000000E+00 0. -1.
     999902    2    1    2    0    0  0.10861045169E-01  0.37973896599E-02  0.20540613845E-01  0.10203864385E+01  0.10201147899E+01 0.  0.
     999903    2    3    3    0    0 -0.11106292136E+00  0.64519511214E-01  0.50207625895E-02  0.12977232710E+00  0.17830002705E-01 0.  0.
         14    1    1    2    0    0 -0.10861045169E-01 -0.37973896599E-02 -0.20540613845E-01  0.23543561488E-01  0.00000000000E+00 0.  1.
     999901    1    3    3    0    0  0.12192396653E+00 -0.60722121554E-01  0.15519851256E-01  0.89061411141E+00  0.88000000000E+00 0.  1.
        -11    1    4    4    0    0 -0.39551191731E-01  0.13561701194E-01  0.32829166658E-02  0.41943475886E-01  0.51100000000E-03 0.  1.
         11    1    4    4    0    0 -0.71511729628E-01  0.50957810019E-01  0.17378459237E-02  0.87828851215E-01  0.51100000000E-03 0. -1.
</event>
<event>
 7    1  0.1122465E+005  0.1043930E+01  0.7957747E-01            NaN
         13   -1    0    0    0    0  0.00000000000E+00  0.00000000000E+00  0.74505805969E-08  0.10566000000E+00  0.10566000000E+00 0. -1.
     999900   -1    0    0    0    0 -0.00000000000E+00 -0.00000000000E+00 -0.74505805969E-08  0.93827000000E+00  0.93827000000E+00 0. -1.
     999903    2    1    2    0    0  0.72667156784E-01  0.42953816572E-01  0.42388077948E-01  0.97759107645E-01  0.25190235056E-01 0.  0.
         14    1    1    2    0    0 -0.29304803834E-01 -0.38393242560E-01 -0.43634406979E-01  0.65090506792E-01  0.00000000000E+00 0. -1.
     999901    1    1    2    0    0 -0.43362352950E-01 -0.45605740123E-02  0.12463290310E-02  0.88108038556E+00  0.88000000000E+00 0.  1.
        -11    1    3    3    0    0  0.12925334370E-01  0.19272384843E-01  0.62877722545E-02  0.24047583809E-01  0.51100000000E-03 0.  1.
         11    1    3    3    0    0  0.59741822413E-01  0.23681431730E-01  0.36100305694E-01  0.73711523836E-01  0.51100000000E-03 0. -1.
</event>
<event>
 8    1  0.1122465E+005  0.1043930E+01  0.7957747E-01            NaN
         13   -1    0    0    0    0  0.00000000000E+00  0.00000000000E+00  0.74505805969E-08  0.10566000000E+00  0.10566000000E+00 0. -1.
     999900   -1    0    0    0    0 -0.00000000000E+00 -0.00000000000E+00 -0.74505805969E-08  0.93827000000E+00  0.93827000000E+00 0.  1.
     999902    2    1    2    0    0  0.17516946855E-01 -0.42102733304E-02  0.15100717766E-01  0.10204225223E+01  0.10201517155E+01 0.  0.
     999903    2    3    3    0    0 -0.22242806007E-01 -0.62838273349E-01 -0.10880518142E+00  0.12892336240E+00  0.18419415060E-01 0.  0.
         14    1    1    2    0    0 -0.17516946855E-01  0.42102733304E-02 -0.15100717766E-01  0.23507477655E-01  0.00000000000E+00 0.  1.
     999901    1    3    3    0    0  0.39759752862E-01  0.58628000019E-01  0.12390589919E+00  0.89149915995E+00  0.88000000000E+00 0. -1.
        -11    1    4    4    0    0 -0.32322730429E-03 -0.17346113573E-01 -0.39738561091E-01  0.43363654027E-01  0.51100000000E-03 0.  1.
         11    1    4    4    0    0 -0.21919578703E-01 -0.45492159776E-01 -0.69066620331E-01  0.85559708371E-01  0.51100000000E-03 0. -1.
</event>
<event>
 8    1  0.1122465E+005  0.1043930E+01  0.7957747E-01            NaN
         13   -1    0    0    0    0  0.00000000000E+00  0.00000000000E+00  0.74505805969E-08  0.10566000000E+00  0.10566000000E+00 0.  1.
     999900   -1    0    0    0    0 -0.00000000000E+00 -0.00000000000E+00 -0.74505805969E-08  0.93827000000E+00  0.93827000000E+00 0. -1.
     999902    2    1    2    0    0 -0.21010158085E-01 -0.92243817239E-02 -0.31951801882E-02  0.10207626709E+01  0.10204997331E+01 0.  0.
     999903    2    3    3    0    0  0.10282582400E+00  0.73625884088E-01 -0.89656505413E-02  0.12821977819E+00  0.19131328778E-01 0.  0.
         14    1    1    2    0    0  0.21010158085E-01  0.92243817239E-02  0.31951801882E-02  0.23167329094E-01  0.00000000000E+00 0. -1.
     999901    1    3    3    0    0 -0.12383598209E+00 -0.82850265812E-01  0.57704703531E-02  0.89254289271E+00  0.88000000000E+00 0.  1.
        -11    1    4    4    0    0  0.87217278481E-01  0.56832663700E-01 -0.15318978030E-02  0.10411250242E+00  0.51100000000E-03 0.  1.
         11    1    4    4    0    0  0.15608545520E-01  0.16793220388E-01 -0.74337527383E-02  0.24107275770E-01  0.51100000000E-03 0. -1.
</event>
<event>
 8    1  0.1122465E+005  0.1043930E+01  0.7957747E-01            NaN
         13   -1    0    0    0    0  0.00000000000E+00  0.00000000000E+00  0.74505805969E-08  0.10566000000E+00  0.10566000000E+00 0.  1.
     999900   -1    0    0    0    0 -0.00000000000E+00 -0.00000000000E+00 -0.74505805969E-08  0.93827000000E+00  0.93827000000E+00 0.  1.
     999902    2    1    2    0    0 -0.11680632390E-01 -0.20506229103E-01 -0.43025331154E-02  0.10199413694E+01  0.10196592287E+01 0.  0.
     999903    2    3    3    0    0  0.43336585298E-01 -0.43192092672E-01  0.11293787124E+00  0.13017350361E+00  0.21132008559E-01 0.  0.
         14    1    1    2    0    0  0.11680632390E-01  0.20506229103E-01  0.43025331154E-02  0.23988630562E-01  0.00000000000E+00 0.  1.
     999901    1    3    3    0    0 -0.55017217688E-01  0.22685863569E-01 -0.11724040436E+00  0.88976786583E+00  0.88000000000E+00 0.  1.
        -11    1    4    4    0    0  0.23318150922E-01 -0.33026087515E-01  0.56891225619E-01  0.69794923113E-01  0.51100000000E-03 0. -1.
         11    1    4    4    0    0  0.20018434376E-01 -0.10166005157E-01  0.56046645625E-01  0.60378580495E-01  0.51100000000E-03 0.  1.
</event>
<event>
 8    1  0.1122465E+005  0.1043930E+01  0.7957747E-01            NaN
         13   -1    0    0    0    0  0.00000000000E+00  0.00000000000E+00  0.74505805969E-08  0.10566000000E+00  0.10566000000E+00 0. -1.
     999900   -1    0    0    0    0 -0.00000000000E+00 -0.00000000000E+00 -0.74505805969E-08  0.93827000000E+00  0.93827000000E+00 0. -1.
     999902    2    1    2    0    0 -0.75631469990E-02 -0.18032768955E-01  0.69847873269E-02  0.10231653858E+01  0.10229546605E+01 0.  0.
     999903    2    3    3    0    0 -0.10964630354E+00 -0.74721106903E-01 -0.15986067485E-01  0.13515513886E+00  0.20144515601E-01 0.  0.
         14    1    1    2    0    0  0.75631469990E-02  0.18032768955E-01 -0.69847873269E-02  0.20764614196E-01  0.00000000000E+00 0.  1.
     999901    1    3    3    0    0  0.10208315654E+00  0.56688337948E-01  0.22970854812E-01  0.88801024695E+00  0.88000000000E+00 0.  1.
        -11    1    4    4    0    0 -0.26227259359E-01 -0.82861567666E-02 -0.48326306143E-02  0.27931075295E-01  0.51100000000E-03 0.  1.
         11    1    4    4    0    0 -0.83419044183E-01 -0.66434950136E-01 -0.11153436871E-01  0.10722406356E+00  0.51100000000E-03 0. -1.
</event>
<event>
 8    1  0.1122465E+005  0.1043930E+01  0.7957747E-01            NaN
         13   -1    0    0    0    0  0.00000000000E+00  0.00000000000E+00  0.74505805969E-08  0.10566000000E+00  0.10566000000E+00 0. -1.
     999900   -1    0    0    0    0 -0.00000000000E+00 -0.00000000000E+00 -0.74505805969E-08  0.93827000000E+00  0.93827000000E+00 0. -1.
     999902    2    1    2    0    0 -0.14819752375E-01 -0.16270083155E-01 -0.69723917189E-02  0.10208441837E+01  0.10205831140E+01 0.  0.
     999903    2    3    3    0    0  0.38830532726E-01 -0.12183860716E+00 -0.28955517280E-01  0.13264019581E+00  0.20063476736E-01 0.  0.
         14    1    1    2    0    0  0.14819752375E-01  0.16270083155E-01  0.69723917189E-02  0.23085816265E-01  0.00000000000E+00 0.  1.
     999901    1    3    3    0    0 -0.53650285101E-01  0.10556852400E+00  0.21983125561E-01  0.88820398792E+00  0.88000000000E+00 0.  1.
        -11    1    4    4    0    0  0.16984635654E-01 -0.46236646606E-01 -0.14709130312E-02  0.49282147313E-01  0.51100000000E-03 0. -1.
         11    1    4    4    0    0  0.21845897072E-01 -0.75601960551E-01 -0.27484604249E-01  0.83358048500E-01  0.51100000000E-03 0.  1.
</event>
<event>
 8    1  0.1122465E+005  0.1043930E+01  0.7957747E-01            NaN
         13   -1    0    0    0    0  0.00000000000E+00  0.00000000000E+00  0.74505805969E-08  0.10566000000E+00  0.10566000000E+00 0. -1.
     999900   -1    0    0    0    0 -0.00000000000E+00 -0.00000000000E+00 -0.74505805969E-08  0.93827000000E+00  0.93827000000E+00 0. -1.
     999902    2    1    2    0    0 -0.17589560128E-01  0.10540092339E-02  0.15785838359E-01  0.10202720996E+01  0.10199977749E+01 0.  0.
     999903    2    3    3    0    0  0.50234806604E-01  0.10734189410E+00  0.51367740596E-01  0.13057365010E+00  0.19105373644E-01 0.  0.
         14    1    1    2    0    0  0.17589560128E-01 -0.10540092339E-02 -0.15785838359E-01  0.23657900449E-01  0.00000000000E+00 0.  1.
     999901    1    3    3    0    0 -0.67824366732E-01 -0.10628788487E+00 -0.35581902238E-01  0.88969844945E+00  0.88000000000E+00 0.  1.
        -11    1    4    4    0    0  0.38660211197E-01  0.60560608664E-01  0.30875773607E-01  0.78203412767E-01  0.51100000000E-03 0.  1.
         11    1    4    4    0    0  0.11574595407E-01  0.46781285437E-01  0.20491966990E-01  0.52370237331E-01  0.51100000000E-03 0. -1.
</event>
<event>
 8    1  0.1122465E+005  0.1043930E+01  0.7957747E-01            NaN
         13   -1    0    0    0    0  0.00000000000E+00  0.00000000000E+00  0.74505805969E-08  0.10566000000E+00  0.10566000000E+00 0. -1.
     999900   -1    0    0    0    0 -0.00000000000E+00 -0.00000000000E+00 -0.74505805969E-08  0.93827000000E+00  0.93827000000E+00 0.  1.
     999902    2    1    2    0    0  0.11600631715E-01  0.18193247787E-01 -0.11287531175E-01  0.10195788752E+01  0.10192880385E+01 0.  0.
     999903    2    3    3    0    0  0.31880180525E-01 -0.11047295597E-01  0.12269932141E+00  0.12872605558E+00  0.19413532953E-01 0.  0.
         14    1    1    2    0    0 -0.11600631715E-01 -0.18193247787E-01  0.11287531175E-01  0.24351124846E-01  0.00000000000E+00 0. -1.
     999901    1    3    3    0    0 -0.20279548809E-01  0.29240543384E-01 -0.13398685258E+00  0.89085281957E+00  0.88000000000E+00 0.  1.
        -11    1    4    4    0    0  0.20780130337E-01 -0.15671347057E-01  0.70374728108E-01  0.75035114531E-01  0.51100000000E-03 0.  1.
         11    1    4    4    0    0  0.11100050187E-01  0.46240514594E-02  0.52324593298E-01  0.53690941050E-01  0.51100000000E-03 0. -1.
</event>
<event>
 8    1  0.1122465E+005  0.1043930E+01  0.7957747E-01            NaN
         13   -1    0    0    0    0  0.00000000000E+00  0.00000000000E+00  0.74505805969E-08  0.10566000000E+00  0.10566000000E+00 0.  1.
     999900   -1    0    0    0    0 -0.00000000000E+00 -0.00000000000E+00 -0.74505805969E-08  0.93827000000E+00  0.93827000000E+00 0.  1.
     999902    2    1    2    0    0  0.10937306289E-01  0.99587068422E-02 -0.17780055178E-01  0.10208014273E+01  0.10205393786E+01 0.  0.
     999903    2    3    3    0    0 -0.67682075762E-01 -0.85000643382E-02  0.10690631048E+00  0.12835063136E+00  0.19794213222E-01 0.  0.
         14    1    1    2    0    0 -0.10937306289E-01 -0.99587068422E-02  0.17780055178E-01  0.23128572653E-01  0.00000000000E+00 0. -1.
     999901    1    3    3    0    0  0.78619382051E-01  0.18458771180E-01 -0.12468636566E+00  0.89245079598E+00  0.88000000000E+00 0.  1.
        -11    1    4    4    0    0 -0.18786341239E-01  0.19852238764E-02  0.16748655956E-01  0.25251659912E-01  0.51100000000E-03 0.  1.
         11    1    4    4    0    0 -0.48895734523E-01 -0.10485288215E-01  0.90157654528E-01  0.10309897145E+00  0.51100000000E-03 0. -1.
</event>
<event>
 8    1  0.1122465E+005  0.1043930E+01  0.7957747E-01            NaN
         13   -1    0    0    0    0  0.00000000000E+00  0.00000000000E+00  0.74505805969E-08  0.10566000000E+00  0.10566000000E+00 0. -1.
     999900   -1    0    0    0    0 -0.00000000000E+00 -0.00000000000E+00 -0.74505805969E-08  0.93827000000E+00  0.93827000000E+00 0. -1.
     999902    2    1    2    0    0  0.10542353290E-01 -0.85082324731E-02  0.25767298032E-01  0.10148184064E+01  0.10144007655E+01 0.  0.
     999903    2    3    3    0    0  0.92930526370E-01  0.45587251740E-01  0.72666529742E-01  0.12807511188E+00  0.20212112372E-01 0.  0.
         14    1    1    2    0    0 -0.10542353290E-01  0.85082324731E-02 -0.25767298032E-01  0.29111593577E-01  0.00000000000E+00 0.  1.
     999901    1    3    3    0    0 -0.82388173080E-01 -0.54095484213E-01 -0.46899231710E-01  0.88674329454E+00  0.88000000000E+00 0. -1.
        -11    1    4    4    0    0  0.12648258564E-01  0.10176000340E-01  0.41951955168E-02  0.16774689686E-01  0.51100000000E-03 0.  1.
         11    1    4    4    0    0  0.80282267806E-01  0.35411251400E-01  0.68471334226E-01  0.11130042220E+00  0.51100000000E-03 0. -1.
</event>
<event>
 8    1  0.1122465E+005  0.1043930E+01  0.7957747E-01            NaN
         13   -1    0    0    0    0  0.00000000000E+00  0.00000000000E+00  0.74505805969E-08  0.10566000000E+00  0.10566000000E+00 0. -1.
     999900   -1    0    0    0    0 -0.00000000000E+00 -0.00000000000E+00 -0.74505805969E-08  0.93827000000E+00  0.93827000000E+00 0. -1.
     999902    2    1    2    0    0  0.23812756004E-01 -0.67523725827E-02  0.24053365493E-02  0.10190617969E+01  0.10187583218E+01 0.  0.
     999903    2    3    3    0    0  0.52707342878E-01 -0.11160947266E+00 -0.40100630863E-01  0.13134750393E+00  0.20232839926E-01 0.  0.
         14    1    1    2    0    0 -0.23812756004E-01  0.67523725827E-02 -0.24053365493E-02  0.24868203150E-01  0.00000000000E+00 0.  1.
     999901    1    3    3    0    0 -0.28894586875E-01  0.10485710008E+00  0.42505967412E-01  0.88771429292E+00  0.88000000000E+00 0. -1.
        -11    1    4    4    0    0  0.18338415000E-01 -0.20579414031E-01 -0.11999305886E-01  0.30067494231E-01  0.51100000000E-03 0.  1.
         11    1    4    4    0    0  0.34368927878E-01 -0.91030058634E-01 -0.28101324976E-01  0.10128000970E+00  0.51100000000E-03 0. -1.
</event>
<event>
 8    1  0.1122465E+005  0.1043930E+01  0.7957747E-01            NaN
         13   -1    0    0    0    0  0.00000000000E+00  0.00000000000E+00  0.74505805969E-08  0.10566000000E+00  0.10566000000E+00 0. -1.
     999900   -1    0    0    0    0 -0.00000000000E+00 -0.00000000000E+00 -0.74505805969E-08  0.93827000000E+00  0.93827000000E+00 0. -1.
     999902    2    1    2    0    0 -0.19898841665E-01  0.52531046781E-02  0.12005189799E-01  0.10201038885E+01  0.10198256026E+01 0.  0.
     999903    2    3    3    0    0  0.82896723572E-02  0.96645676516E-01 -0.83810612399E-01  0.12975122662E+00  0.20051349154E-01 0.  0.
         14    1    1    2    0    0  0.19898841665E-01 -0.52531046781E-02 -0.12005189799E-01  0.23826111527E-01  0.00000000000E+00 0.  1.
     999901    1    3    3    0    0 -0.28188514022E-01 -0.91392571838E-01  0.95815802198E-01  0.89035266185E+00  0.88000000000E+00 0. -1.
        -11    1    4    4    0    0 -0.27502530450E-03  0.69254039251E-01 -0.50112476435E-01  0.85485197589E-01  0.51100000000E-03 0.  1.
         11    1    4    4    0    0  0.85646976617E-02  0.27391637266E-01 -0.33698135964E-01  0.44266029035E-01  0.51100000000E-03 0. -1.
</event>
<event>
 8    1  0.1122465E+005  0.1043930E+01  0.7957747E-01            NaN
         13   -1    0    0    0    0  0.00000000000E+00  0.00000000000E+00  0.74505805969E-08  0.10566000000E+00  0.10566000000E+00 0. -1.
     999900   -1    0    0    0    0 -0.00000000000E+00 -0.00000000000E+00 -0.74505805969E-08  0.93827000000E+00  0.93827000000E+00 0. -1.
     999902    2    1    2    0    0  0.84192599144E-02  0.20153128666E-01 -0.70598768051E-02  0.10209762554E+01  0.10207181979E+01 0.  0.
     999903    2    3    3    0    0 -0.31737391767E-01  0.86115812825E-02  0.12438985191E+00  0.13023229935E+00  0.20154284118E-01 0.  0.
         14    1    1    2    0    0 -0.84192599144E-02 -0.20153128666E-01  0.70598768051E-02  0.22953744641E-01  0.00000000000E+00 0. -1.
     999901    1    3    3    0    0  0.40156651681E-01  0.11541547384E-01 -0.13144972871E+00  0.89074395601E+00  0.88000000000E+00 0. -1.
        -11    1    4    4    0    0 -0.80553442014E-02  0.11549521654E-01  0.57835246442E-01  0.59526942410E-01  0.51100000000E-03 0.  1.
         11    1    4    4    0    0 -0.23682047566E-01 -0.29379403711E-02  0.66554605463E-01  0.70705356939E-01  0.51100000000E-03 0. -1.
</event>
<event>
 7    1  0.1122465E+005  0.1043930E+01  0.7957747E-01            NaN
         13   -1    0    0    0    0  0.00000000000E+00  0.00000000000E+00  0.74505805969E-08  0.10566000000E+00  0.10566000000E+00 0.  1.
     999900   -1    0    0    0    0 -0.00000000000E+00 -0.00000000000E+00 -0.74505805969E-08  0.93827000000E+00  0.93827000000E+00 0.  1.
     999903    2    1    2    0    0 -0.11018088457E+00  0.19794787668E-01  0.11131141880E-01  0.11418640723E+00  0.19569678891E-01 0.  0.
         14    1    1    2    0    0  0.15943647979E-01  0.39552213073E-01 -0.15459752637E-02  0.42672795893E-01  0.00000000000E+00 0.  1.
     999901    1    1    2    0    0  0.94237236593E-01 -0.59347000741E-01 -0.95851666166E-02  0.88707079688E+00  0.88000000000E+00 0.  1.
        -11    1    3    3    0    0 -0.76170316734E-01  0.55959266022E-02  0.12016191644E-01  0.77316760980E-01  0.51100000000E-03 0. -1.
         11    1    3    3    0    0 -0.34010567839E-01  0.14198861066E-01 -0.88504976382E-03  0.36869646247E-01  0.51100000000E-03 0.  1.
</event>
<event>
 8    1  0.1122465E+005  0.1043930E+01  0.7957747E-01            NaN
         13   -1    0    0    0    0  0.00000000000E+00  0.00000000000E+00  0.74505805969E-08  0.10566000000E+00  0.10566000000E+00 0. -1.
     999900   -1    0    0    0    0 -0.00000000000E+00 -0.00000000000E+00 -0.74505805969E-08  0.93827000000E+00  0.93827000000E+00 0. -1.
     999902    2    1    2    0    0 -0.12707008771E-01  0.18083694403E-01 -0.10037566076E-01  0.10196557171E+01  0.10193667351E+01 0.  0.
     999903    2    3    3    0    0 -0.98122494112E-01 -0.77944616060E-01 -0.11203827840E-01  0.13031967171E+00  0.33975050457E-01 0.  0.
         14    1    1    2    0    0  0.12707008771E-01 -0.18083694403E-01  0.10037566076E-01  0.24274282851E-01  0.00000000000E+00 0.  1.
     999901    1    3    3    0    0  0.85415485341E-01  0.96028310464E-01  0.11662617636E-02  0.88933604544E+00  0.88000000000E+00 0. -1.
        -11    1    4    4    0    0 -0.26472011902E-01 -0.12036332792E-01  0.98636858221E-02  0.30711465940E-01  0.51100000000E-03 0. -1.
         11    1    4    4    0    0 -0.71650482209E-01 -0.65908283269E-01 -0.21067513662E-01  0.99608205772E-01  0.51100000000E-03 0.  1.
</event>
<event>
 8    1  0.1122465E+005  0.1043930E+01  0.7957747E-01            NaN
         13   -1    0    0    0    0  0.00000000000E+00  0.00000000000E+00  0.74505805969E-08  0.10566000000E+00  0.10566000000E+00 0.  1.
     999900   -1    0    0    0    0 -0.00000000000E+00 -0.00000000000E+00 -0.74505805969E-08  0.93827000000E+00  0.93827000000E+00 0. -1.
     999902    2    1    2    0    0 -0.68859673738E-02 -0.21956228835E-01 -0.28115593046E-02  0.10207481667E+01  0.10204848957E+01 0.  0.
     999903    2    3    3    0    0  0.70491675572E-01  0.10371081563E+00 -0.24506622152E-01  0.12819554555E+00  0.10416994093E-01 0.  0.
         14    1    1    2    0    0  0.68859673738E-02  0.21956228835E-01  0.28115593046E-02  0.23181833341E-01  0.00000000000E+00 0.  1.
     999901    1    3    3    0    0 -0.77377642946E-01 -0.12566704447E+00  0.21695062848E-01  0.89255262111E+00  0.88000000000E+00 0.  1.
        -11    1    4    4    0    0  0.17114442551E-01  0.17883816774E-01 -0.48121065409E-02  0.25222064479E-01  0.51100000000E-03 0. -1.
         11    1    4    4    0    0  0.53377233021E-01  0.85826998858E-01 -0.19694515612E-01  0.10297348107E+00  0.51100000000E-03 0.  1.
</event>
<event>
 8    1  0.1122465E+005  0.1043930E+01  0.7957747E-01            NaN
         13   -1    0    0    0    0  0.00000000000E+00  0.00000000000E+00  0.74505805969E-08  0.10566000000E+00  0.10566000000E+00 0.  1.
     999900   -1    0    0    0    0 -0.00000000000E+00 -0.00000000000E+00 -0.74505805969E-08  0.93827000000E+00  0.93827000000E+00 0. -1.
     999902    2    1    2    0    0  0.41775560434E-02  0.40610391172E-02  0.22712979382E-01  0.10204816857E+01  0.10202122560E+01 0.  0.
     999903    2    3    3    0    0  0.96157874385E-01 -0.85411195606E-01 -0.10349508673E-01  0.13056102185E+00  0.19941388019E-01 0.  0.
         14    1    1    2    0    0 -0.41775560434E-02 -0.40610391172E-02 -0.22712979382E-01  0.23448314345E-01  0.00000000000E+00 0. -1.
     999901    1    3    3    0    0 -0.91980318341E-01  0.89472234723E-01  0.33062488055E-01  0.88992066380E+00  0.88000000000E+00 0.  1.
        -11    1    4    4    0    0  0.22158932190E-01 -0.95366185179E-02 -0.30927775721E-02  0.24326770494E-01  0.51100000000E-03 0. -1.
         11    1    4    4    0    0  0.73998942194E-01 -0.75874577088E-01 -0.72567311009E-02  0.10623425136E+00  0.51100000000E-03 0.  1.
</event>
<event>
 8    1  0.1122465E+005  0.1043930E+01  0.7957747E-01            NaN
         13   -1    0    0    0    0  0.00000000000E+00  0.00000000000E+00  0.74505805969E-08  0.10566000000E+00  0.10566000000E+00 0.  1.
     999900   -1    0    0    0    0 -0.00000000000E+00 -0.00000000000E+00 -0.74505805969E-08  0.93827000000E+00  0.93827000000E+00 0. -1.
     999902    2    1    2    0    0  0.14702155964E-01 -0.22354815032E-01 -0.56423773218E-02  0.10165853924E+01  0.10162175615E+01 0.  0.
     999903    2    3    3    0    0  0.98233424512E-01  0.32447669243E-01 -0.73361985076E-01  0.12834740039E+00  0.19708307935E-01 0.  0.
         14    1    1    2    0    0 -0.14702155964E-01  0.22354815032E-01  0.56423773218E-02  0.27344607639E-01  0.00000000000E+00 0.  1.
     999901    1    3    3    0    0 -0.83531268549E-01 -0.54802484274E-01  0.67719607754E-01  0.88823799197E+00  0.88000000000E+00 0.  1.
        -11    1    4    4    0    0  0.77904427183E-01  0.20900494426E-01 -0.48058249342E-01  0.93892421913E-01  0.51100000000E-03 0. -1.
         11    1    4    4    0    0  0.20328997330E-01  0.11547174817E-01 -0.25303735734E-01  0.34454978476E-01  0.51100000000E-03 0.  1.
</event>
<event>
 8    1  0.1122465E+005  0.1043930E+01  0.7957747E-01            NaN
         13   -1    0    0    0    0  0.00000000000E+00  0.00000000000E+00  0.74505805969E-08  0.10566000000E+00  0.10566000000E+00 0. -1.
     999900   -1    0    0    0    0 -0.00000000000E+00 -0.00000000000E+00 -0.74505805969E-08  0.93827000000E+00  0.93827000000E+00 0.  1.
     999902    2    1    2    0    0 -0.52817822214E-03  0.22463685190E-01 -0.98487539088E-03  0.10214385326E+01  0.10211908783E+01 0.  0.
     999903    2    3    3    0    0 -0.12195081239E+00 -0.35088854927E-02 -0.44714146550E-01  0.13164626493E+00  0.21144059382E-01 0.  0.
         14    1    1    2    0    0  0.52817822214E-03 -0.22463685190E-01  0.98487539088E-03  0.22491467362E-01  0.00000000000E+00 0. -1.
     999901    1    3    3    0    0  0.12142263417E+00  0.25972570683E-01  0.43729271159E-01  0.88979226771E+00  0.88000000000E+00 0. -1.
        -11    1    4    4    0    0 -0.46082404737E-01  0.88916519228E-02 -0.16227624785E-01  0.49661317214E-01  0.51100000000E-03 0. -1.
         11    1    4    4    0    0 -0.75868407658E-01 -0.12400537415E-01 -0.28486521764E-01  0.81984947716E-01  0.51100000000E-03 0.  1.
</event>
<event>
 8    1  0.1122465E+005  0.1043930E+01  0.7957747E-01            NaN
         13   -1    0    0    0    0  0.00000000000E+00  0.00000000000E+00  0.74505805969E-08  0.10566000000E+00  0.10566000000E+00 0.  1.
     999900   -1    0    0    0    0 -0.00000000000E+00 -0.00000000000E+00 -0.74505805969E-08  0.93827000000E+00  0.93827000000E+00 0. -1.
     999902    2    1    2    0    0  0.22999717993E-01  0.36648281880E-03 -0.97932267593E-02  0.10189294275E+01  0.10186226728E+01 0.  0.
     999903    2    3    3    0    0  0.26877528359E-01  0.52505436772E-01 -0.11566704816E+00  0.13104273761E+00  0.17723166483E-01 0.  0.
         14    1    1    2    0    0 -0.22999717993E-01 -0.36648281880E-03  0.97932267593E-02  0.25000572549E-01  0.00000000000E+00 0.  1.
     999901    1    3    3    0    0 -0.38778103657E-02 -0.52138953953E-01  0.10587382140E+00  0.88788668984E+00  0.88000000000E+00 0.  1.
        -11    1    4    4    0    0  0.19967880383E-01  0.29061804403E-01 -0.83496241787E-01  0.90637675586E-01  0.51100000000E-03 0. -1.
         11    1    4    4    0    0  0.69096479756E-02  0.23443632369E-01 -0.32170806372E-01  0.40405062027E-01  0.51100000000E-03 0.  1.
</event>
<event>
 8    1  0.1122465E+005  0.1043930E+01  0.7957747E-01            NaN
         13   -1    0    0    0    0  0.00000000000E+00  0.00000000000E+00  0.74505805969E-08  0.10566000000E+00  0.10566000000E+00 0. -1.
     999900   -1    0    0    0    0 -0.00000000000E+00 -0.00000000000E+00 -0.74505805969E-08  0.93827000000E+00  0.93827000000E+00 0. -1.
     999902    2    1    2    0    0  0.13445642385E-01  0.18248790044E-01 -0.81884462105E-02  0.10198290812E+01  0.10195442612E+01 0.  0.
     999903    2    3    3    0    0  0.47955137123E-01 -0.86186624209E-01  0.80424600934E-01  0.12856597013E+00  0.18255488773E-01 0.  0.
         14    1    1    2    0    0 -0.13445642385E-01 -0.18248790044E-01  0.81884462105E-02  0.24100918832E-01  0.00000000000E+00 0. -1.
     999901    1    3    3    0    0 -0.34509494738E-01  0.10443541425E+00 -0.88613047145E-01  0.89126311104E+00  0.88000000000E+00 0. -1.
        -11    1    4    4    0    0  0.42665733458E-01 -0.64539642990E-01  0.56063449034E-01  0.95546333092E-01  0.51100000000E-03 0.  1.
         11    1    4    4    0    0  0.52894036650E-02 -0.21646981219E-01  0.24361151900E-01  0.33019637035E-01  0.51100000000E-03 0. -1.
</event>
<event>
 8    1  0.1122465E+005  0.1043930E+01  0.7957747E-01            NaN
         13   -1    0    0    0    0  0.00000000000E+00  0.00000000000E+00  0.74505805969E-08  0.10566000000E+00  0.10566000000E+00 0.  1.
     999900   -1    0    0    0    0 -0.00000000000E+00 -0.00000000000E+00 -0.74505805969E-08  0.93827000000E+00  0.93827000000E+00 0.  1.
     999902    2    1    2    0    0 -0.83032487297E-02  0.13310239831E-01  0.17454036013E-01  0.10204619409E+01  0.10201920521E+01 0.  0.
     999903    2    3    3    0    0  0.54440087134E-01  0.11026155692E+00  0.44752153222E-01  0.13249714923E+00  0.20770298837E-01 0.  0.
         14    1    1    2    0    0  0.83032487297E-02 -0.13310239831E-01 -0.17454036013E-01  0.23468059079E-01  0.00000000000E+00 0. -1.
     999901    1    3    3    0    0 -0.62743335864E-01 -0.96951317091E-01 -0.27298117209E-01  0.88796479169E+00  0.88000000000E+00 0.  1.
        -11    1    4    4    0    0  0.16271916138E-01  0.33043421023E-01  0.35333195605E-02  0.37005248220E-01  0.51100000000E-03 0.  1.
         11    1    4    4    0    0  0.38168170996E-01  0.77218135899E-01  0.41218833661E-01  0.95491901009E-01  0.51100000000E-03 0. -1.
</event>
<event>
 8    1  0.1122465E+005  0.1043930E+01  0.7957747E-01            NaN
         13   -1    0    0    0    0  0.00000000000E+00  0.00000000000E+00  0.74505805969E-08  0.10566000000E+00  0.10566000000E+00 0. -1.
     999900   -1    0    0    0    0 -0.00000000000E+00 -0.00000000000E+00 -0.74505805969E-08  0.93827000000E+00  0.93827000000E+00 0.  1.
     999902    2    1    2    0    0 -0.11910342770E-02  0.23443430215E-01  0.27133132617E-02  0.10203000391E+01  0.10200263696E+01 0.  0.
     999903    2    3    3    0    0  0.12097788264E+00  0.28720124524E-01 -0.37020039848E-01  0.13095655815E+00  0.17850577923E-01 0.  0.
         14    1    1    2    0    0  0.11910342770E-02 -0.23443430215E-01 -0.27133132617E-02  0.23629960892E-01  0.00000000000E+00 0. -1.
     999901    1    3    3    0    0 -0.12216891692E+00 -0.52766943084E-02  0.39733353110E-01  0.88934348095E+00  0.88000000000E+00 0. -1.
        -11    1    4    4    0    0  0.59526341692E-01  0.72473991060E-02 -0.11642783539E-01  0.61087852136E-01  0.51100000000E-03 0. -1.
         11    1    4    4    0    0  0.61451540950E-01  0.21472725418E-01 -0.25377256308E-01  0.69868706019E-01  0.51100000000E-03 0.  1.
</event>
<event>
 8    1  0.1122465E+005  0.1043930E+01  0.7957747E-01            NaN
         13   -1    0    0    0    0  0.00000000000E+00  0.00000000000E+00  0.74505805969E-08  0.10566000000E+00  0.10566000000E+00 0. -1.
     999900   -1    0    0    0    0 -0.00000000000E+00 -0.00000000000E+00 -0.74505805969E-08  0.93827000000E+00  0.93827000000E+00 0. -1.
     999902    2    1    2    0    0 -0.17091837777E-01 -0.68534449902E-02  0.11003888916E-01  0.10224780491E+01  0.10222529896E+01 0.  0.
     999903    2    3    3    0    0  0.56310237091E-01 -0.30886367321E-01 -0.11189744036E+00  0.13058669769E+00  0.20175181935E-01 0.  0.
         14    1    1    2    0    0  0.17091837777E-01  0.68534449902E-02 -0.11003888916E-01  0.21451950916E-01  0.00000000000E+00 0.  1.
     999901    1    3    3    0    0 -0.73402074869E-01  0.24032922331E-01  0.12290132928E+00  0.89189135139E+00  0.88000000000E+00 0.  1.
        -11    1    4    4    0    0  0.71959893959E-02  0.78698048679E-03 -0.23672924799E-01  0.24760252244E-01  0.51100000000E-03 0. -1.
         11    1    4    4    0    0  0.49114247695E-01 -0.31673347808E-01 -0.88224515566E-01  0.10582644545E+00  0.51100000000E-03 0.  1.
</event>
<event>
 8    1  0.1122465E+005  0.1043930E+01  0.7957747E-01            NaN
         13   -1    0    0    0    0  0.00000000000E+00  0.00000000000E+00  0.74505805969E-08  0.10566000000E+00  0.10566000000E+00 0.  1.
     999900   -1    0    0    0    0 -0.00000000000E+00 -0.00000000000E+00 -0.74505805969E-08  0.93827000000E+00  0.93827000000E+00 0. -1.
     999902    2    1    2    0    0 -0.14738707859E-01  0.97317082036E-02  0.16491844252E-01  0.10197656341E+01  0.10194792945E+01 0.  0.
     999903    2    3    3    0    0 -0.44844302307E-01 -0.87428784498E-01  0.83747514325E-01  0.13135703815E+00  0.24212011615E-01 0.  0.
         14    1    1    2    0    0  0.14738707859E-01 -0.97317082036E-02 -0.16491844252E-01  0.24164365928E-01  0.00000000000E+00 0.  1.
     999901    1    3    3    0    0  0.30105594449E-01  0.97160492701E-01 -0.67255670073E-01  0.88840859593E+00  0.88000000000E+00 0.  1.
        -11    1    4    4    0    0 -0.36719726156E-01 -0.53873737774E-01  0.65009871588E-01  0.92072050241E-01  0.51100000000E-03 0. -1.
         11    1    4    4    0    0 -0.81245761511E-02 -0.33555046724E-01  0.18737642737E-01  0.39284987904E-01  0.51100000000E-03 0.  1.
</event>
<event>
 8    1  0.1122465E+005  0.1043930E+01  0.7957747E-01            NaN
         13   -1    0    0    0    0  0.00000000000E+00  0.00000000000E+00  0.74505805969E-08  0.10566000000E+00  0.10566000000E+00 0. -1.
     999900   -1    0    0    0    0 -0.00000000000E+00 -0.00000000000E+00 -0.74505805969E-08  0.93827000000E+00  0.93827000000E+00 0. -1.
     999902    2    1    2    0    0  0.13765332568E-01  0.19065971663E-01 -0.12030323497E-02  0.10203833879E+01  0.10201116680E+01 0.  0.
     999903    2    3    3    0    0  0.17430191173E-01  0.12243127975E+00  0.45089626551E-01  0.13311745909E+00  0.19848266076E-01 0.  0.
         14    1    1    2    0    0 -0.13765332568E-01 -0.19065971663E-01  0.12030323497E-02  0.23546612134E-01  0.00000000000E+00 0.  1.
     999901    1    3    3    0    0 -0.36648586050E-02 -0.10336530808E+00 -0.46292658901E-01  0.88726592878E+00  0.88000000000E+00 0.  1.
        -11    1    4    4    0    0  0.13794640268E-01  0.41109819892E-01  0.21262772664E-01  0.48297784774E-01  0.51100000000E-03 0.  1.
         11    1    4    4    0    0  0.36355509049E-02  0.81321459855E-01  0.23826853887E-01  0.84819674313E-01  0.51100000000E-03 0. -1.
</event>
<event>
 8    1  0.1122465E+005  0.1043930E+01  0.7957747E-01            NaN
         13   -1    0    0    0    0  0.00000000000E+00  0.00000000000E+00  0.74505805969E-08  0.10566000000E+00  0.10566000000E+00 0.  1.
     999900   -1    0    0    0    0 -0.00000000000E+00 -0.00000000000E+00 -0.74505805969E-08  0.93827000000E+00  0.93827000000E+00 0.  1.
     999902    2    1    2    0    0 -0.17157386017E-01 -0.94550911213E-02 -0.12302512933E-01  0.10207971993E+01  0.10205350536E+01 0.  0.
     999903    2    3    3    0    0  0.70234187783E-01  0.35289617216E-01  0.99479624362E-01  0.12830931575E+00  0.19720208611E-01 0.  0.
         14    1    1    2    0    0  0.17157386017E-01  0.94550911213E-02  0.12302512933E-01  0.23132800685E-01  0.00000000000E+00 0.  1.
     999901    1    3    3    0    0 -0.87391573800E-01 -0.44744708337E-01 -0.11178213730E+00  0.89248788357E+00  0.88000000000E+00 0. -1.
        -11    1    4    4    0    0  0.48331666500E-01  0.27026126834E-01  0.82595666479E-01  0.99441775730E-01  0.51100000000E-03 0.  1.
         11    1    4    4    0    0  0.21902521284E-01  0.82634903819E-02  0.16883957883E-01  0.28867540018E-01  0.51100000000E-03 0. -1.
</event>
<event>
 8    1  0.1122465E+005  0.1043930E+01  0.7957747E-01            NaN
         13   -1    0    0    0    0  0.00000000000E+00  0.00000000000E+00  0.74505805969E-08  0.10566000000E+00  0.10566000000E+00 0.  1.
     999900   -1    0    0    0    0 -0.00000000000E+00 -0.00000000000E+00 -0.74505805969E-08  0.93827000000E+00  0.93827000000E+00 0.  1.
     999902    2    1    2    0    0 -0.10132259242E-01  0.10639880647E-01  0.18559051922E-01  0.10202591710E+01  0.10199845429E+01 0.  0.
     999903    2    3    3    0    0  0.11429222073E+00 -0.33874657852E-01  0.47469331113E-01  0.12992283028E+00  0.20405888078E-01 0.  0.
         14    1    1    2    0    0  0.10132259242E-01 -0.10639880647E-01 -0.18559051922E-01  0.23670829005E-01  0.00000000000E+00 0. -1.
     999901    1    3    3    0    0 -0.12442447997E+00  0.44514538499E-01 -0.28910279191E-01  0.89033634071E+00  0.88000000000E+00 0.  1.
        -11    1    4    4    0    0  0.10329534902E+00 -0.33816609570E-01  0.48180090325E-01  0.11889101916E+00  0.51100000000E-03 0.  1.
         11    1    4    4    0    0  0.10996871705E-01 -0.58048281933E-04 -0.71075921236E-03  0.11031811118E-01  0.51100000000E-03 0. -1.
</event>
<event>
 8    1  0.1122465E+005  0.1043930E+01  0.7957747E-01            NaN
         13   -1    0    0    0    0  0.00000000000E+00  0.00000000000E+00  0.74505805969E-08  0.10566000000E+00  0.10566000000E+00 0.  1.
     999900   -1    0    0    0    0 -0.00000000000E+00 -0.00000000000E+00 -0.74505805969E-08  0.93827000000E+00  0.93827000000E+00 0. -1.
     999902    2    1    2    0    0 -0.28931774502E-02 -0.11351409559E-01  0.20926772465E-01  0.10199476152E+01  0.10196656231E+01 0.  0.
     999903    2    3    3    0    0  0.61724940780E-01  0.43895314325E-01 -0.10015758241E+00  0.12759727890E+00  0.22644145723E-01 0.  0.
         14    1    1    2    0    0  0.28931774502E-02  0.11351409559E-01 -0.20926772465E-01  0.23982384797E-01  0.00000000000E+00 0. -1.
     999901    1    3    3    0    0 -0.64618118230E-01 -0.55246723883E-01  0.12108435487E+00  0.89235033630E+00  0.88000000000E+00 0.  1.
        -11    1    4    4    0    0  0.26500569604E-01  0.25337984161E-01 -0.64267479482E-01  0.73992321700E-01  0.51100000000E-03 0.  1.
         11    1    4    4    0    0  0.35224371176E-01  0.18557330164E-01 -0.35890102925E-01  0.53604957201E-01  0.51100000000E-03 0. -1.
</event>
<event>
 8    1  0.1122465E+005  0.1043930E+01  0.7957747E-01            NaN
         13   -1    0    0    0    0  0.00000000000E+00  0.00000000000E+00  0.74505805969E-08  0.10566000000E+00  0.10566000000E+00 0. -1.
     999900   -1    0    0    0    0 -0.00000000000E+00 -0.00000000000E+00 -0.74505805969E-08  0.93827000000E+00  0.93827000000E+00 0. -1.
     999902    2    1    2    0    0 -0.12855111033E-01 -0.48154271755E-02  0.17666199429E-01  0.10215573198E+01  0.10213123032E+01 0.  0.
     999903    2    3    3    0    0  0.25919414495E-01  0.39448482502E-01 -0.11701242494E+00  0.12936838832E+00  0.28570500312E-01 0.  0.
         14    1    1    2    0    0  0.12855111033E-01  0.48154271755E-02 -0.17666199429E-01  0.22372680233E-01  0.00000000000E+00 0.  1.
     999901    1    3    3    0    0 -0.38774525528E-01 -0.44263909678E-01  0.13467862437E+00  0.89218893144E+00  0.88000000000E+00 0.  1.
        -11    1    4    4    0    0  0.23477640693E-01  0.98613742394E-02 -0.52624850067E-01  0.58464367609E-01  0.51100000000E-03 0. -1.
         11    1    4    4    0    0  0.24417738023E-02  0.29587108263E-01 -0.64387574871E-01  0.70904020714E-01  0.51100000000E-03 0.  1.
</event>
<event>
 8    1  0.1122465E+005  0.1043930E+01  0.7957747E-01            NaN
         13   -1    0    0    0    0  0.00000000000E+00  0.00000000000E+00  0.74505805969E-08  0.10566000000E+00  0.10566000000E+00 0. -1.
     999900   -1    0    0    0    0 -0.00000000000E+00 -0.00000000000E+00 -0.74505805969E-08  0.93827000000E+00  0.93827000000E+00 0.  1.
     999902    2    1    2    0    0  0.61754060120E-02  0.11558558512E-01 -0.20419101698E-01  0.10196673615E+01  0.10193786600E+01 0.  0.
     999903    2    3    3    0    0 -0.32177929481E-01  0.12217356995E+00  0.26253347034E-01  0.13068762235E+00  0.20693382142E-01 0.  0.
         14    1    1    2    0    0 -0.61754060120E-02 -0.11558558512E-01  0.20419101698E-01  0.24262638530E-01  0.00000000000E+00 0. -1.
     999901    1    3    3    0    0  0.38353335493E-01 -0.11061501144E+00 -0.46672448731E-01  0.88897973912E+00  0.88000000000E+00 0.  1.
        -11    1    4    4    0    0 -0.17479224587E-01  0.87948180168E-01  0.26260267487E-01  0.93435905606E-01  0.51100000000E-03 0. -1.
         11    1    4    4    0    0 -0.14698704894E-01  0.34225389782E-01 -0.69204534195E-05  0.37251716741E-01  0.51100000000E-03 0.  1.
</event>
<event>
 8    1  0.1122465E+005  0.1043930E+01  0.7957747E-01            NaN
         13   -1    0    0    0    0  0.00000000000E+00  0.00000000000E+00  0.74505805969E-08  0.10566000000E+00  0.10566000000E+00 0.  1.
     999900   -1    0    0    0    0 -0.00000000000E+00 -0.00000000000E+00 -0.74505805969E-08  0.93827000000E+00  0.93827000000E+00 0.  1.
     999902    2    1    2    0    0 -0.15023092055E-02 -0.72121218397E-02  0.21597957214E-01  0.10211101974E+01  0.10208551767E+01 0.  0.
     999903    2    3    3    0    0 -0.96895699971E-01  0.42298084829E-01 -0.72461644591E-01  0.12959554904E+00  0.19141884481E-01 0.  0.
         14    1    1    2    0    0  0.15023092055E-02  0.72121218397E-02 -0.21597957214E-01  0.22819802589E-01  0.00000000000E+00 0. -1.
     999901    1    3    3    0    0  0.95393390766E-01 -0.49510206669E-01  0.94059601805E-01  0.89151464837E+00  0.88000000000E+00 0. -1.
        -11    1    4    4    0    0 -0.29599197180E-01  0.22804568065E-01 -0.26087518822E-01  0.45573902155E-01  0.51100000000E-03 0.  1.
         11    1    4    4    0    0 -0.67296502791E-01  0.19493516764E-01 -0.46374125769E-01  0.84021646887E-01  0.51100000000E-03 0. -1.
</event>
<event>
 8    1  0.1122465E+005  0.1043930E+01  0.7957747E-01            NaN
         13   -1    0    0    0    0  0.00000000000E+00  0.00000000000E+00  0.74505805969E-08  0.10566000000E+00  0.10566000000E+00 0. -1.
     999900   -1    0    0    0    0 -0.00000000000E+00 -0.00000000000E+00 -0.74505805969E-08  0.93827000000E+00  0.93827000000E+00 0.  1.
     999902    2    1    2    0    0  0.20908028097E-01  0.11179319977E-03 -0.12984141924E-01  0.10193180907E+01  0.10190209144E+01 0.  0.
     999903    2    3    3    0    0 -0.32236502079E-02  0.57083209734E-03  0.12643353778E+00  0.12801576377E+00  0.19795922007E-01 0.  0.
         14    1    1    2    0    0 -0.20908028097E-01 -0.11179319977E-03  0.12984141924E-01  0.24611909274E-01  0.00000000000E+00 0.  1.
     999901    1    3    3    0    0  0.24131678304E-01 -0.45903889757E-03 -0.13941767971E+00  0.89130232695E+00  0.88000000000E+00 0.  1.
        -11    1    4    4    0    0 -0.94790463824E-02  0.41518956154E-02  0.10230798115E+00  0.10283129234E+00  0.51100000000E-03 0. -1.
         11    1    4    4    0    0  0.62553961745E-02 -0.35810635180E-02  0.24125556636E-01  0.25184471430E-01  0.51100000000E-03 0.  1.
</event>
<event>
 8    1  0.1122465E+005  0.1043930E+01  0.7957747E-01            NaN
         13   -1    0    0    0    0  0.00000000000E+00  0.00000000000E+00  0.74505805969E-08  0.10566000000E+00  0.10566000000E+00 0.  1.
     999900   -1    0    0    0    0 -0.00000000000E+00 -0.00000000000E+00 -0.74505805969E-08  0.93827000000E+00  0.93827000000E+00 0.  1.
     999902    2    1    2    0    0  0.10299082888E-02  0.17072978983E-01 -0.15395369084E-01  0.10209177269E+01  0.10206583368E+01 0.  0.
     999903    2    3    3    0    0 -0.57448511896E-01 -0.32973352817E-01  0.10865385506E+00  0.12889050147E+00  0.20482373754E-01 0.  0.
         14    1    1    2    0    0 -0.10299082888E-02 -0.17072978983E-01  0.15395369084E-01  0.23012273066E-01  0.00000000000E+00 0.  1.
     999901    1    3    3    0    0  0.58478420185E-01  0.50046331800E-01 -0.12404922415E+00  0.89202722546E+00  0.88000000000E+00 0.  1.
        -11    1    4    4    0    0 -0.33957324936E-01 -0.30601153211E-01  0.71089004577E-01  0.84518862909E-01  0.51100000000E-03 0. -1.
         11    1    4    4    0    0 -0.23491186960E-01 -0.23721996065E-02  0.37564850486E-01  0.44371638564E-01  0.51100000000E-03 0.  1.
</event>
<event>
 8    1  0.1122465E+005  0.1043930E+01  0.7957747E-01            NaN
         13   -1    0    0    0    0  0.00000000000E+00  0.00000000000E+00  0.74505805969E-08  0.10566000000E+00  0.10566000000E+00 0.  1.
     999900   -1    0    0    0    0 -0.00000000000E+00 -0.00000000000E+00 -0.74505805969E-08  0.93827000000E+00  0.93827000000E+00 0. -1.
     999902    2    1    2    0    0 -0.11248771501E-01  0.49563139194E-02  0.21533925200E-01  0.10191346407E+01  0.10188329628E+01 0.  0.
     999903    2    3    3    0    0  0.28299044116E-01  0.64697350999E-01 -0.10402030715E+00  0.12734044556E+00  0.20218349379E-01 0.  0.
         14    1    1    2    0    0  0.11248771501E-01 -0.49563139194E-02 -0.21533925200E-01  0.24795359293E-01  0.00000000000E+00 0. -1.
     999901    1    3    3    0    0 -0.39547815617E-01 -0.59741037079E-01  0.12555423235E+00  0.89179419514E+00  0.88000000000E+00 0.  1.
        -11    1    4    4    0    0  0.32762310473E-03  0.82584243323E-02 -0.24694184281E-01  0.26045590176E-01  0.51100000000E-03 0.  1.
         11    1    4    4    0    0  0.27971421011E-01  0.56438926666E-01 -0.79326122873E-01  0.10129485539E+00  0.51100000000E-03 0. -1.
</event>
<event>
 8    1  0.1122465E+005  0.1043930E+01  0.7957747E-01            NaN
         13   -1    0    0    0    0  0.00000000000E+00  0.00000000000E+00  0.74505805969E-08  0.10566000000E+00  0.10566000000E+00 0.  1.
     999900   -1    0    0    0    0 -0.00000000000E+00 -0.00000000000E+00 -0.74505805969E-08  0.93827000000E+00  0.93827000000E+00 0.  1.
     999902    2    1    2    0    0 -0.19371363263E-01 -0.10746127379E-01 -0.33085832811E-02  0.10215318820E+01  0.10212863018E+01 0.  0.
     999903    2    3    3    0    0  0.28796070893E-01  0.54408527579E-01  0.11302016353E+00  0.13018592886E+00  0.19629496576E-01 0.  0.
         14    1    1    2    0    0  0.19371363263E-01  0.10746127379E-01  0.33085832811E-02  0.22398118038E-01  0.00000000000E+00 0. -1.
     999901    1    3    3    0    0 -0.48167434156E-01 -0.65154654958E-01 -0.11632874681E+00  0.89134595310E+00  0.88000000000E+00 0.  1.
        -11    1    4    4    0    0  0.15001003313E-01  0.10222507560E-01  0.36094453185E-01  0.40405450535E-01  0.51100000000E-03 0. -1.
         11    1    4    4    0    0  0.13795067580E-01  0.44186020019E-01  0.76925710349E-01  0.89780478326E-01  0.51100000000E-03 0.  1.
</event>
<event>
 8    1  0.1122465E+005  0.1043930E+01  0.7957747E-01            NaN
         13   -1    0    0    0    0  0.00000000000E+00  0.00000000000E+00  0.74505805969E-08  0.10566000000E+00  0.10566000000E+00 0.  1.
     999900   -1    0    0    0    0 -0.00000000000E+00 -0.00000000000E+00 -0.74505805969E-08  0.93827000000E+00  0.93827000000E+00 0. -1.
     999902    2    1    2    0    0 -0.22448180086E-01 -0.26130694509E-02 -0.55422977310E-02  0.10206605783E+01  0.10203952911E+01 0.  0.
     999903    2    3    3    0    0 -0.58985448712E-01 -0.71785896172E-01  0.91378408726E-01  0.13188981187E+00  0.20307901059E-01 0.  0.
         14    1    1    2    0    0  0.22448180086E-01  0.26130694509E-02  0.55422977310E-02  0.23269421679E-01  0.00000000000E+00 0.  1.
     999901    1    3    3    0    0  0.36537268626E-01  0.69172826721E-01 -0.96920706457E-01  0.88877076645E+00  0.88000000000E+00 0. -1.
        -11    1    4    4    0    0 -0.34870182954E-01 -0.30390858018E-01  0.54135729129E-01  0.71207248224E-01  0.51100000000E-03 0.  1.
         11    1    4    4    0    0 -0.24115265757E-01 -0.41395038154E-01  0.37242679597E-01  0.60682563648E-01  0.51100000000E-03 0. -1.
</event>
<event>
 8    1  0.1122465E+005  0.1043930E+01  0.7957747E-01            NaN
         13   -1    0    0    0    0  0.00000000000E+00  0.00000000000E+00  0.74505805969E-08  0.10566000000E+00  0.10566000000E+00 0. -1.
     999900   -1    0    0    0    0 -0.00000000000E+00 -0.00000000000E+00 -0.74505805969E-08  0.93827000000E+00  0.93827000000E+00 0. -1.
     999902    2    1    2    0    0  0.19471975066E-01  0.93183877035E-02  0.10430919207E-01  0.10199551332E+01  0.10196733200E+01 0.  0.
     999903    2    3    3    0    0 -0.10766467780E-01  0.60220142632E-01  0.11496846285E+00  0.13179216949E+00  0.20224887711E-01 0.  0.
         14    1    1    2    0    0 -0.19471975066E-01 -0.93183877035E-02 -0.10430919207E-01  0.23974866796E-01  0.00000000000E+00 0.  1.
     999901    1    3    3    0    0  0.30238442846E-01 -0.50901754929E-01 -0.10453754364E+00  0.88816296371E+00  0.88000000000E+00 0. -1.
        -11    1    4    4    0    0  0.24421916146E-02  0.36308148267E-01  0.75182573973E-01  0.83527998184E-01  0.51100000000E-03 0. -1.
         11    1    4    4    0    0 -0.13208659395E-01  0.23911994365E-01  0.39785888873E-01  0.48264171307E-01  0.51100000000E-03 0.  1.
</event>
<event>
 8    1  0.1122465E+005  0.1043930E+01  0.7957747E-01            NaN
         13   -1    0    0    0    0  0.00000000000E+00  0.00000000000E+00  0.74505805969E-08  0.10566000000E+00  0.10566000000E+00 0. -1.
     999900   -1    0    0    0    0 -0.00000000000E+00 -0.00000000000E+00 -0.74505805969E-08  0.93827000000E+00  0.93827000000E+00 0. -1.
     999902    2    1    2    0    0 -0.46921076813E-03 -0.13329042770E-01  0.19131234957E-01  0.10206086002E+01  0.10203421127E+01 0.  0.
     999903    2    3    3    0    0 -0.12432775101E+00 -0.27361945718E-01  0.28478184256E-01  0.13177496790E+00  0.18643214391E-01 0.  0.
         14    1    1    2    0    0  0.46921076813E-03  0.13329042770E-01 -0.19131234957E-01  0.23321399848E-01  0.00000000000E+00 0.  1.
     999901    1    3    3    0    0  0.12385854024E+00  0.14032902948E-01 -0.93469492988E-02  0.88883363225E+00  0.88000000000E+00 0.  1.
        -11    1    4    4    0    0 -0.37492701795E-01 -0.13835411270E-01  0.21192435190E-02  0.40023413235E-01  0.51100000000E-03 0. -1.
         11    1    4    4    0    0 -0.86835049214E-01 -0.13526534448E-01  0.26358940737E-01  0.91751554668E-01  0.51100000000E-03 0.  1.
</event>
<event>
 8    1  0.1122465E+005  0.1043930E+01  0.7957747E-01            NaN
         13   -1    0    0    0    0  0.00000000000E+00  0.00000000000E+00  0.74505805969E-08  0.10566000000E+00  0.10566000000E+00 0. -1.
     999900   -1    0    0    0    0 -0.00000000000E+00 -0.00000000000E+00 -0.74505805969E-08  0.93827000000E+00  0.93827000000E+00 0. -1.
     999902    2    1    2    0    0 -0.19287758274E-01  0.13026662699E-01 -0.10257093885E-01  0.10184953871E+01  0.10181777516E+01 0.  0.
     999903    2    3    3    0    0  0.65201599831E-01 -0.51479334849E-01  0.92530473914E-01  0.12615870203E+00  0.21278133361E-01 0.  0.
         14    1    1    2    0    0  0.19287758274E-01 -0.13026662699E-01  0.10257093885E-01  0.25434612937E-01  0.00000000000E+00 0.  1.
     999901    1    3    3    0    0 -0.84489358104E-01  0.64505997548E-01 -0.10278756780E+00  0.89233668503E+00  0.88000000000E+00 0. -1.
        -11    1    4    4    0    0  0.44617668265E-01 -0.45454970337E-01  0.75413244036E-01  0.98713267329E-01  0.51100000000E-03 0.  1.
         11    1    4    4    0    0  0.20583931566E-01 -0.60243645117E-02  0.17117229878E-01  0.27445434706E-01  0.51100000000E-03 0. -1.
</event>
<event>
 8    1  0.1122465E+005  0.1043930E+01  0.7957747E-01            NaN
         13   -1    0    0    0    0  0.00000000000E+00  0.00000000000E+00  0.74505805969E-08  0.10566000000E+00  0.10566000000E+00 0.  1.
     999900   -1    0    0    0    0 -0.00000000000E+00 -0.00000000000E+00 -0.74505805969E-08  0.93827000000E+00  0.93827000000E+00 0.  1.
     999902    2    1    2    0    0 -0.18129833786E-01 -0.12549198550E-01 -0.90772017499E-02  0.10200853182E+01  0.10198065932E+01 0.  0.
     999903    2    3    3    0    0  0.26538186645E-01 -0.20982261755E-01  0.12313639992E+00  0.12904840256E+00  0.18611463134E-01 0.  0.
         14    1    1    2    0    0  0.18129833786E-01  0.12549198550E-01  0.90772017499E-02  0.23844681775E-01  0.00000000000E+00 0.  1.
     999901    1    3    3    0    0 -0.44668020431E-01  0.84330632050E-02 -0.13221360167E+00  0.89103691566E+00  0.88000000000E+00 0.  1.
        -11    1    4    4    0    0  0.17529627677E-01 -0.94631716777E-02  0.97629926078E-01  0.99642877576E-01  0.51100000000E-03 0. -1.
         11    1    4    4    0    0  0.90085589680E-02 -0.11519090077E-01  0.25506473843E-01  0.29405524987E-01  0.51100000000E-03 0.  1.
</event>
<event>
 8    1  0.1122465E+005  0.1043930E+01  0.7957747E-01            NaN
         13   -1    0    0    0    0  0.00000000000E+00  0.00000000000E+00  0.74505805969E-08  0.10566000000E+00  0.10566000000E+00 0.  1.
     999900   -1    0    0    0    0 -0.00000000000E+00 -0.00000000000E+00 -0.74505805969E-08  0.93827000000E+00  0.93827000000E+00 0.  1.
     999902    2    1    2    0    0 -0.14373301211E-01  0.19922921641E-01 -0.13154108369E-02  0.10193282744E+01  0.10190313470E+01 0.  0.
     999903    2    3    3    0    0  0.98030643041E-01 -0.20022085515E-02 -0.79292119658E-01  0.12848837574E+00  0.24657790772E-01 0.  0.
         14    1    1    2    0    0  0.14373301211E-01 -0.19922921641E-01  0.13154108369E-02  0.24601725551E-01  0.00000000000E+00 0. -1.
     999901    1    3    3    0    0 -0.11240394425E+00  0.21925130192E-01  0.77976708821E-01  0.89083989871E+00  0.88000000000E+00 0. -1.
        -11    1    4    4    0    0  0.34508885516E-01 -0.37541429306E-02 -0.43149495440E-01  0.55381376350E-01  0.51100000000E-03 0.  1.
         11    1    4    4    0    0  0.63521757525E-01  0.17519343791E-02 -0.36142624219E-01  0.73106999388E-01  0.51100000000E-03 0. -1.
</event>
<event>
 8    1  0.1122465E+005  0.1043930E+01  0.7957747E-01            NaN
         13   -1    0    0    0    0  0.00000000000E+00  0.00000000000E+00  0.74505805969E-08  0.10566000000E+00  0.10566000000E+00 0.  1.
     999900   -1    0    0    0    0 -0.00000000000E+00 -0.00000000000E+00 -0.74505805969E-08  0.93827000000E+00  0.93827000000E+00 0. -1.
     999902    2    1    2    0    0  0.91557409946E-02  0.11403811096E-01  0.18473913832E-01  0.10203681666E+01  0.10200960913E+01 0.  0.
     999903    2    3    3    0    0 -0.67892238111E-01  0.56911831232E-01 -0.91940345696E-01  0.12896551926E+00  0.18186958572E-01 0.  0.
         14    1    1    2    0    0 -0.91557409946E-02 -0.11403811096E-01 -0.18473913832E-01  0.23561833395E-01  0.00000000000E+00 0. -1.
     999901    1    3    3    0    0  0.77047979106E-01 -0.45508020136E-01  0.11041425953E+00  0.89140264734E+00  0.88000000000E+00 0.  1.
        -11    1    4    4    0    0 -0.13114726124E-01  0.19441270722E-01 -0.17711837705E-01  0.29392675354E-01  0.51100000000E-03 0.  1.
         11    1    4    4    0    0 -0.54777511987E-01  0.37470560510E-01 -0.74228507991E-01  0.99572843909E-01  0.51100000000E-03 0. -1.
</event>
<event>
 8    1  0.1122465E+005  0.1043930E+01  0.7957747E-01            NaN
         13   -1    0    0    0    0  0.00000000000E+00  0.00000000000E+00  0.74505805969E-08  0.10566000000E+00  0.10566000000E+00 0.  1.
     999900   -1    0    0    0    0 -0.00000000000E+00 -0.00000000000E+00 -0.74505805969E-08  0.93827000000E+00  0.93827000000E+00 0. -1.
     999902    2    1    2    0    0  0.23164182187E-01 -0.27448220847E-02  0.71350643333E-02  0.10195369164E+01  0.10192450644E+01 0.  0.
     999903    2    3    3    0    0  0.12363981175E+00  0.29926228287E-01 -0.30349940971E-01  0.13242481790E+00  0.20804597866E-01 0.  0.
         14    1    1    2    0    0 -0.23164182187E-01  0.27448220847E-02 -0.71350643333E-02  0.24393083604E-01  0.00000000000E+00 0. -1.
     999901    1    3    3    0    0 -0.10047562956E+00 -0.32671050371E-01  0.37485005304E-01  0.88711209849E+00  0.88000000000E+00 0. -1.
        -11    1    4    4    0    0  0.39756227172E-01  0.78480316549E-02 -0.18911622956E-06  0.40526661851E-01  0.51100000000E-03 0. -1.
         11    1    4    4    0    0  0.83883584573E-01  0.22078196632E-01 -0.30349751855E-01  0.91898156054E-01  0.51100000000E-03 0.  1.
</event>
<event>
 8    1  0.1122465E+005  0.1043930E+01  0.7957747E-01            NaN
         13   -1    0    0    0    0  0.00000000000E+00  0.00000000000E+00  0.74505805969E-08  0.10566000000E+00  0.10566000000E+00 0.  1.
     999900   -1    0    0    0    0 -0.00000000000E+00 -0.00000000000E+00 -0.74505805969E-08  0.93827000000E+00  0.93827000000E+00 0. -1.
     999902    2    1    2    0    0  0.17580509357E-04  0.86654309416E-02 -0.23093763508E-01  0.10192639927E+01  0.10189654925E+01 0.  0.
     999903    2    3    3    0    0 -0.93900481892E-01 -0.17927298346E-01  0.82200386228E-01  0.12762806159E+00  0.19832551137E-01 0.  0.
         14    1    1    2    0    0 -0.17580509357E-04 -0.86654309416E-02  0.23093763508E-01  0.24666007286E-01  0.00000000000E+00 0.  1.
     999901    1    3    3    0    0  0.93918062401E-01  0.26592729288E-01 -0.10529414974E+00  0.89163593112E+00  0.88000000000E+00 0. -1.
        -11    1    4    4    0    0 -0.24639839780E-01 -0.10084884501E-01  0.13899495291E-01  0.30038037388E-01  0.51100000000E-03 0.  1.
         11    1    4    4    0    0 -0.69260642112E-01 -0.78424138449E-02  0.68300890937E-01  0.97590024206E-01  0.51100000000E-03 0. -1.
</event>
<event>
 8    1  0.1122465E+005  0.1043930E+01  0.7957747E-01            NaN
         13   -1    0    0    0    0  0.00000000000E+00  0.00000000000E+00  0.74505805969E-08  0.10566000000E+00  0.10566000000E+00 0.  1.
     999900   -1    0    0    0    0 -0.00000000000E+00 -0.00000000000E+00 -0.74505805969E-08  0.93827000000E+00  0.93827000000E+00 0. -1.
     999902    2    1    2    0    0 -0.11739912785E-01 -0.17388383118E-01  0.10071702887E-01  0.10206572559E+01  0.10203918921E+01 0.  0.
     999903    2    3    3    0    0 -0.60218929415E-01  0.60478869124E-01  0.97981438097E-01  0.13153316692E+00  0.20410750077E-01 0.  0.
         14    1    1    2    0    0  0.11739912785E-01  0.17388383118E-01 -0.10071702887E-01  0.23272744116E-01  0.00000000000E+00 0. -1.
     999901    1    3    3    0    0  0.48479016631E-01 -0.77867252242E-01 -0.87909735211E-01  0.88912408896E+00  0.88000000000E+00 0. -1.
        -11    1    4    4    0    0 -0.43991180813E-01  0.30094275525E-01  0.59329670518E-01  0.79756882672E-01  0.51100000000E-03 0.  1.
         11    1    4    4    0    0 -0.16227748602E-01  0.30384593599E-01  0.38651767580E-01  0.51776284251E-01  0.51100000000E-03 0. -1.
</event>
<event>
 8    1  0.1122465E+005  0.1043930E+01  0.7957747E-01            NaN
         13   -1    0    0    0    0  0.00000000000E+00  0.00000000000E+00  0.74505805969E-08  0.10566000000E+00  0.10566000000E+00 0.  1.
     999900   -1    0    0    0    0 -0.00000000000E+00 -0.00000000000E+00 -0.74505805969E-08  0.93827000000E+00  0.93827000000E+00 0. -1.
     999902    2    1    2    0    0  0.19230259754E-01 -0.86441611856E-02  0.13121633041E-01  0.10190965213E+01  0.10187939036E+01 0.  0.
     999903    2    3    3    0    0  0.11715214278E-01 -0.12811737512E+00 -0.94229965847E-02  0.13070551214E+00  0.21067272858E-01 0.  0.
         14    1    1    2    0    0 -0.19230259754E-01  0.86441611856E-02 -0.13121633041E-01  0.24833478743E-01  0.00000000000E+00 0. -1.
     999901    1    3    3    0    0  0.75150454765E-02  0.11947321393E+00  0.22544629626E-01  0.88839100912E+00  0.88000000000E+00 0.  1.
        -11    1    4    4    0    0  0.15252237034E-01 -0.53032532147E-01 -0.31523533744E-02  0.55274575107E-01  0.51100000000E-03 0.  1.
         11    1    4    4    0    0 -0.35370227560E-02 -0.75084842973E-01 -0.62706432103E-02  0.75430937032E-01  0.51100000000E-03 0. -1.
</event>
<event>
 8    1  0.1122465E+005  0.1043930E+01  0.7957747E-01            NaN
         13   -1    0    0    0    0  0.00000000000E+00  0.00000000000E+00  0.74505805969E-08  0.10566000000E+00  0.10566000000E+00 0. -1.
     999900   -1    0    0    0    0 -0.00000000000E+00 -0.00000000000E+00 -0.74505805969E-08  0.93827000000E+00  0.93827000000E+00 0.  1.
     999902    2    1    2    0    0 -0.19204930781E-01  0.10166891890E-01 -0.58175681059E-04  0.10221998725E+01  0.10219688747E+01 0.  0.
     999903    2    3    3    0    0  0.14070100788E-01 -0.12224115318E+00 -0.39765168236E-01  0.13078764272E+00  0.19577324054E-01 0.  0.
         14    1    1    2    0    0  0.19204930781E-01 -0.10166891890E-01  0.58175681059E-04  0.21730127506E-01  0.00000000000E+00 0. -1.
     999901    1    3    3    0    0 -0.33275031569E-01  0.13240804507E+00  0.39706992555E-01  0.89141222977E+00  0.88000000000E+00 0. -1.
        -11    1    4    4    0    0 -0.40271237052E-02 -0.44105894841E-01 -0.11669382237E-01  0.45803747531E-01  0.51100000000E-03 0.  1.
         11    1    4    4    0    0  0.18097224493E-01 -0.78135258341E-01 -0.28095786000E-01  0.84983895193E-01  0.51100000000E-03 0. -1.
</event>
<event>
 8    1  0.1122465E+005  0.1043930E+01  0.7957747E-01            NaN
         13   -1    0    0    0    0  0.00000000000E+00  0.00000000000E+00  0.74505805969E-08  0.10566000000E+00  0.10566000000E+00 0. -1.
     999900   -1    0    0    0    0 -0.00000000000E+00 -0.00000000000E+00 -0.74505805969E-08  0.93827000000E+00  0.93827000000E+00 0. -1.
     999902    2    1    2    0    0  0.17028386718E-01 -0.49072480939E-02  0.14181897470E-01  0.10212325716E+01  0.10209803094E+01 0.  0.
     999903    2    3    3    0    0  0.15056560097E-01  0.12801165212E+00  0.13428896667E-01  0.13124836440E+00  0.20787371475E-01 0.  0.
         14    1    1    2    0    0 -0.17028386718E-01  0.49072480939E-02 -0.14181897470E-01  0.22697428355E-01  0.00000000000E+00 0.  1.
     999901    1    3    3    0    0  0.19718266215E-02 -0.13291890021E+00  0.75300080302E-03  0.88998420724E+00  0.88000000000E+00 0.  1.
        -11    1    4    4    0    0  0.15092469418E-01  0.44582012700E-01  0.67268360793E-02  0.47548395706E-01  0.51100000000E-03 0.  1.
         11    1    4    4    0    0 -0.35909321125E-04  0.83429639416E-01  0.67020605874E-02  0.83699968696E-01  0.51100000000E-03 0. -1.
</event>
<event>
 8    1  0.1122465E+005  0.1043930E+01  0.7957747E-01            NaN
         13   -1    0    0    0    0  0.00000000000E+00  0.00000000000E+00  0.74505805969E-08  0.10566000000E+00  0.10566000000E+00 0. -1.
     999900   -1    0    0    0    0 -0.00000000000E+00 -0.00000000000E+00 -0.74505805969E-08  0.93827000000E+00  0.93827000000E+00 0. -1.
     999902    2    1    2    0    0  0.66472391230E-02 -0.13081171271E-01 -0.20224929315E-01  0.10189429915E+01  0.10186365737E+01 0.  0.
     999903    2    3    3    0    0  0.21776369586E-01 -0.10130365825E+00  0.74634035277E-01  0.12933053597E+00  0.20481866754E-01 0.  0.
         14    1    1    2    0    0 -0.66472391230E-02  0.13081171271E-01  0.20224929315E-01  0.24987008536E-01  0.00000000000E+00 0. -1.
     999901    1    3    3    0    0 -0.15129130463E-01  0.88222486983E-01 -0.94858964592E-01  0.88961245549E+00  0.88000000000E+00 0. -1.
        -11    1    4    4    0    0  0.14836089965E-01 -0.49077497434E-01  0.48248527772E-01  0.70405197769E-01  0.51100000000E-03 0.  1.
         11    1    4    4    0    0  0.69402796211E-02 -0.52226160821E-01  0.26385507505E-01  0.58925338205E-01  0.51100000000E-03 0. -1.
</event>
<event>
 8    1  0.1122465E+005  0.1043930E+01  0.7957747E-01            NaN
         13   -1    0    0    0    0  0.00000000000E+00  0.00000000000E+00  0.74505805969E-08  0.10566000000E+00  0.10566000000E+00 0. -1.
     999900   -1    0    0    0    0 -0.00000000000E+00 -0.00000000000E+00 -0.74505805969E-08  0.93827000000E+00  0.93827000000E+00 0.  1.
     999902    2    1    2    0    0  0.70449547164E-02 -0.21736659017E-01 -0.35690195729E-02  0.10208031404E+01  0.10205411309E+01 0.  0.
     999903    2    3    3    0    0 -0.94380924838E-01 -0.90256821487E-01 -0.76951445149E-02  0.13232171317E+00  0.19893911845E-01 0.  0.
         14    1    1    2    0    0 -0.70449547164E-02  0.21736659017E-01  0.35690195729E-02  0.23126859555E-01  0.00000000000E+00 0. -1.
     999901    1    3    3    0    0  0.10142587955E+00  0.68520162470E-01  0.41261249421E-02  0.88848142728E+00  0.88000000000E+00 0.  1.
        -11    1    4    4    0    0 -0.44544943134E-01 -0.47800014031E-01  0.53668296822E-02  0.65560333145E-01  0.51100000000E-03 0. -1.
         11    1    4    4    0    0 -0.49835981704E-01 -0.42456807456E-01 -0.13061974197E-01  0.66761380024E-01  0.51100000000E-03 0.  1.
</event>
<event>
 8    1  0.1122465E+005  0.1043930E+01  0.7957747E-01            NaN
         13   -1    0    0    0    0  0.00000000000E+00  0.00000000000E+00  0.74505805969E-08  0.10566000000E+00  0.10566000000E+00 0. -1.
     999900   -1    0    0    0    0 -0.00000000000E+00 -0.00000000000E+00 -0.74505805969E-08  0.93827000000E+00  0.93827000000E+00 0. -1.
     999902    2    1    2    0    0 -0.16012329616E-01 -0.12803733129E-01 -0.12938597270E-01  0.10196867003E+01  0.10193984644E+01 0.  0.
     999903    2    3    3    0    0  0.22870056157E-01  0.10301073072E+00 -0.71943560331E-01  0.12928992602E+00  0.20143460112E-01 0.  0.
         14    1    1    2    0    0  0.16012329616E-01  0.12803733129E-01  0.12938597270E-01  0.24243299715E-01  0.00000000000E+00 0. -1.
     999901    1    3    3    0    0 -0.38882385773E-01 -0.11581446385E+00  0.59004963061E-01  0.89039677427E+00  0.88000000000E+00 0.  1.
        -11    1    4    4    0    0  0.17943033704E-01  0.35964880562E-01 -0.26784775840E-01  0.48302281831E-01  0.51100000000E-03 0. -1.
         11    1    4    4    0    0  0.49270224536E-02  0.67045850155E-01 -0.45158784491E-01  0.80987644187E-01  0.51100000000E-03 0.  1.
</event>
<event>
 8    1  0.1162075E+005  0.1043930E+01  0.7957747E-01            NaN
         13   -1    0    0    0    0  0.00000000000E+00  0.00000000000E+00  0.74505805969E-08  0.10566000000E+00  0.10566000000E+00 0. -1.
     999900   -1    0    0    0    0 -0.00000000000E+00 -0.00000000000E+00 -0.74505805969E-08  0.93827000000E+00  0.93827000000E+00 0.  1.
     999902    2    1    2    0    0 -0.43293220333E-02 -0.22110392089E-01 -0.69081159313E-02  0.10203644630E+01  0.10200923011E+01 0.  0.
     999903    2    3    3    0    0  0.49873974342E-02  0.85884178691E-01 -0.94478984698E-01  0.12939965696E+00  0.20421223971E-01 0.  0.
         14    1    1    2    0    0  0.43293220333E-02  0.22110392089E-01  0.69081159313E-02  0.23565536984E-01  0.00000000000E+00 0. -1.
     999901    1    3    3    0    0 -0.93167194675E-02 -0.10799457078E+00  0.87570868766E-01  0.89096480606E+00  0.88000000000E+00 0. -1.
        -11    1    4    4    0    0 -0.77165800550E-02  0.37994479632E-01 -0.44498650571E-01  0.59021327619E-01  0.51100000000E-03 0.  1.
         11    1    4    4    0    0  0.12703977489E-01  0.47889699059E-01 -0.49980334127E-01  0.70378329338E-01  0.51100000000E-03 0. -1.
</event>
<event>
 8    1  0.1122465E+005  0.1043930E+01  0.7957747E-01            NaN
         13   -1    0    0    0    0  0.00000000000E+00  0.00000000000E+00  0.74505805969E-08  0.10566000000E+00  0.10566000000E+00 0. -1.
     999900   -1    0    0    0    0 -0.00000000000E+00 -0.00000000000E+00 -0.74505805969E-08  0.93827000000E+00  0.93827000000E+00 0.  1.
     999902    2    1    2    0    0  0.21222209606E-01 -0.92363415898E-03  0.10250673791E-01  0.10203437414E+01  0.10200710951E+01 0.  0.
     999903    2    3    3    0    0 -0.78034566316E-01 -0.98014202711E-01 -0.22427761612E-01  0.12885825853E+00  0.20131289739E-01 0.  0.
         14    1    1    2    0    0 -0.21222209606E-01  0.92363415898E-03 -0.10250673791E-01  0.23586258580E-01  0.00000000000E+00 0.  1.
     999901    1    3    3    0    0  0.99256775923E-01  0.97090568552E-01  0.32678435403E-01  0.89148548289E+00  0.88000000000E+00 0.  1.
        -11    1    4    4    0    0 -0.11881184667E-01 -0.58868774040E-02 -0.46118129489E-02  0.14048053756E-01  0.51100000000E-03 0. -1.
         11    1    4    4    0    0 -0.66153381649E-01 -0.92127325307E-01 -0.17815948663E-01  0.11481020477E+00  0.51100000000E-03 0.  1.
</event>
<event>
 8    1  0.1122465E+005  0.1043930E+01  0.7957747E-01            NaN
         13   -1    0    0    0    0  0.00000000000E+00  0.00000000000E+00  0.74505805969E-08  0.10566000000E+00  0.10566000000E+00 0. -1.
     999900   -1    0    0    0    0 -0.00000000000E+00 -0.00000000000E+00 -0.74505805969E-08  0.93827000000E+00  0.93827000000E+00 0.  1.
     999902    2    1    2    0    0  0.13662464876E-01  0.46949697129E-02  0.18821735509E-01  0.10202031499E+01  0.10199272051E+01 0.  0.
     999903    2    3    3    0    0 -0.69753877704E-01 -0.41838763330E-01 -0.96395195648E-01  0.12756738112E+00  0.19113278362E-01 0.  0.
         14    1    1    2    0    0 -0.13662464876E-01 -0.46949697129E-02 -0.18821735509E-01  0.23726850079E-01  0.00000000000E+00 0.  1.
     999901    1    3    3    0    0  0.83416342580E-01  0.46533733043E-01  0.11521693116E+00  0.89263576880E+00  0.88000000000E+00 0. -1.
        -11    1    4    4    0    0 -0.47976773003E-01 -0.19305083895E-01 -0.53152206608E-01  0.74161143467E-01  0.51100000000E-03 0. -1.
         11    1    4    4    0    0 -0.21777104701E-01 -0.22533679436E-01 -0.43242989039E-01  0.53406237652E-01  0.51100000000E-03 0.  1.
</event>
<event>
 8    1  0.1122465E+005  0.1043930E+01  0.7957747E-01            NaN
         13   -1    0    0    0    0  0.00000000000E+00  0.00000000000E+00  0.74505805969E-08  0.10566000000E+00  0.10566000000E+00 0. -1.
     999900   -1    0    0    0    0 -0.00000000000E+00 -0.00000000000E+00 -0.74505805969E-08  0.93827000000E+00  0.93827000000E+00 0.  1.
     999902    2    1    2    0    0 -0.17725287559E-01 -0.91047566123E-02 -0.14286155787E-01  0.10194110959E+01  0.10191161885E+01 0.  0.
     999903    2    3    3    0    0  0.52095225152E-01 -0.61417545473E-01  0.97388429315E-01  0.12807348037E+00  0.20791412491E-01 0.  0.
         14    1    1    2    0    0  0.17725287559E-01  0.91047566123E-02  0.14286155787E-01  0.24518904119E-01  0.00000000000E+00 0. -1.
     999901    1    3    3    0    0 -0.69820512711E-01  0.52312788861E-01 -0.11167458510E+00  0.89133761551E+00  0.88000000000E+00 0.  1.
        -11    1    4    4    0    0  0.93661478605E-02 -0.26083067425E-01  0.33360419748E-01  0.43373146748E-01  0.51100000000E-03 0. -1.
         11    1    4    4    0    0  0.42729077292E-01 -0.35334478048E-01  0.64028009566E-01  0.84700333619E-01  0.51100000000E-03 0.  1.
</event>
<event>
 8    1  0.1122465E+005  0.1043930E+01  0.7957747E-01            NaN
         13   -1    0    0    0    0  0.00000000000E+00  0.00000000000E+00  0.74505805969E-08  0.10566000000E+00  0.10566000000E+00 0. -1.
     999900   -1    0    0    0    0 -0.00000000000E+00 -0.00000000000E+00 -0.74505805969E-08  0.93827000000E+00  0.93827000000E+00 0. -1.
     999902    2    1    2    0    0 -0.42566403271E-02  0.16491804228E-01  0.15999034600E-01  0.10205619085E+01  0.10202943405E+01 0.  0.
     999903    2    3    3    0    0  0.20666099933E-01  0.94049037263E-01 -0.86349175204E-01  0.13089263092E+00  0.20109492109E-01 0.  0.
         14    1    1    2    0    0  0.42566403271E-02 -0.16491804228E-01 -0.15999034600E-01  0.23368091528E-01  0.00000000000E+00 0.  1.
     999901    1    3    3    0    0 -0.24922740260E-01 -0.77557233036E-01  0.10234820980E+00  0.88966927756E+00  0.88000000000E+00 0.  1.
        -11    1    4    4    0    0  0.20315534560E-01  0.46934506350E-01 -0.41898893838E-01  0.66116164867E-01  0.51100000000E-03 0. -1.
         11    1    4    4    0    0  0.35056537272E-03  0.47114530913E-01 -0.44450281366E-01  0.64776466048E-01  0.51100000000E-03 0.  1.
</event>
<event>
 8    1  0.1122465E+005  0.1043930E+01  0.7957747E-01            NaN
         13   -1    0    0    0    0  0.00000000000E+00  0.00000000000E+00  0.74505805969E-08  0.10566000000E+00  0.10566000000E+00 0. -1.
     999900   -1    0    0    0    0 -0.00000000000E+00 -0.00000000000E+00 -0.74505805969E-08  0.93827000000E+00  0.93827000000E+00 0. -1.
     999902    2    1    2    0    0  0.10151442241E-01  0.98627705384E-02  0.19236970386E-01  0.10200472227E+01  0.10197675958E+01 0.  0.
     999903    2    3    3    0    0 -0.94055369482E-01 -0.85057704851E-01 -0.41747855506E-02  0.12852208756E+00  0.20476144016E-01 0.  0.
         14    1    1    2    0    0 -0.10151442241E-01 -0.98627705384E-02 -0.19236970386E-01  0.23882777307E-01  0.00000000000E+00 0. -1.
     999901    1    3    3    0    0  0.10420681172E+00  0.94920475389E-01  0.23411755936E-01  0.89152513513E+00  0.88000000000E+00 0.  1.
        -11    1    4    4    0    0 -0.48572651011E-01 -0.50841612953E-01 -0.11088340651E-01  0.71185563518E-01  0.51100000000E-03 0. -1.
         11    1    4    4    0    0 -0.45482718470E-01 -0.34216091897E-01  0.69135551004E-02  0.57336524043E-01  0.51100000000E-03 0.  1.
</event>
<event>
 8    1  0.1122465E+005  0.1043930E+01  0.7957747E-01            NaN
         13   -1    0    0    0    0  0.00000000000E+00  0.00000000000E+00  0.74505805969E-08  0.10566000000E+00  0.10566000000E+00 0.  1.
     999900   -1    0    0    0    0 -0.00000000000E+00 -0.00000000000E+00 -0.74505805969E-08  0.93827000000E+00  0.93827000000E+00 0. -1.
     999902    2    1    2    0    0  0.19280369155E-01 -0.11735838244E-01  0.79413033109E-02  0.10200024671E+01  0.10197217787E+01 0.  0.
     999903    2    3    3    0    0  0.22519362473E-01 -0.10673890804E+00 -0.68954603660E-01  0.13154928605E+00  0.25498257163E-01 0.  0.
         14    1    1    2    0    0 -0.19280369155E-01  0.11735838244E-01 -0.79413033109E-02  0.23927532935E-01  0.00000000000E+00 0. -1.
     999901    1    3    3    0    0 -0.32389933181E-02  0.95003069796E-01  0.76895906971E-01  0.88845318102E+00  0.88000000000E+00 0. -1.
        -11    1    4    4    0    0  0.40758003175E-02 -0.74544744238E-01 -0.50263261059E-01  0.90001042077E-01  0.51100000000E-03 0.  1.
         11    1    4    4    0    0  0.18443562156E-01 -0.32194163802E-01 -0.18691342602E-01  0.41548243972E-01  0.51100000000E-03 0. -1.
</event>
<event>
 8    1  0.1122465E+005  0.1043930E+01  0.7957747E-01            NaN
         13   -1    0    0    0    0  0.00000000000E+00  0.00000000000E+00  0.74505805969E-08  0.10566000000E+00  0.10566000000E+00 0.  1.
     999900   -1    0    0    0    0 -0.00000000000E+00 -0.00000000000E+00 -0.74505805969E-08  0.93827000000E+00  0.93827000000E+00 0.  1.
     999902    2    1    2    0    0  0.10415990957E-01 -0.77847193450E-02 -0.20715512519E-01  0.10194713168E+01  0.10191778739E+01 0.  0.
     999903    2    3    3    0    0 -0.12203052052E+00  0.39544488160E-02 -0.37754617684E-01  0.12931952216E+00  0.19774783229E-01 0.  0.
         14    1    1    2    0    0 -0.10415990957E-01  0.77847193450E-02  0.20715512519E-01  0.24458683158E-01  0.00000000000E+00 0.  1.
     999901    1    3    3    0    0  0.13244651148E+00 -0.11739168161E-01  0.17039105165E-01  0.89015179468E+00  0.88000000000E+00 0.  1.
        -11    1    4    4    0    0 -0.35649667499E-01  0.16793818422E-03 -0.18676245982E-02  0.35702606889E-01  0.51100000000E-03 0.  1.
         11    1    4    4    0    0 -0.86380853019E-01  0.37865106318E-02 -0.35886993086E-01  0.93616915271E-01  0.51100000000E-03 0. -1.
</event>
<event>
 8    1  0.1122465E+005  0.1043930E+01  0.7957747E-01            NaN
         13   -1    0    0    0    0  0.00000000000E+00  0.00000000000E+00  0.74505805969E-08  0.10566000000E+00  0.10566000000E+00 0. -1.
     999900   -1    0    0    0    0 -0.00000000000E+00 -0.00000000000E+00 -0.74505805969E-08  0.93827000000E+00  0.93827000000E+00 0. -1.
     999902    2    1    2    0    0 -0.19194177023E-01  0.62484988747E-02 -0.13767240178E-01  0.10194964765E+01  0.10192036443E+01 0.  0.
     999903    2    3    3    0    0  0.22056152105E-01 -0.12319308657E+00  0.20792980575E-01  0.12840101439E+00  0.19785399426E-01 0.  0.
         14    1    1    2    0    0  0.19194177023E-01 -0.62484988747E-02  0.13767240178E-01  0.24433523526E-01  0.00000000000E+00 0. -1.
     999901    1    3    3    0    0 -0.41250329127E-01  0.12944158544E+00 -0.34560220753E-01  0.89109546209E+00  0.88000000000E+00 0. -1.
        -11    1    4    4    0    0  0.17814727614E-01 -0.45836588699E-01  0.62759072635E-02  0.49578276659E-01  0.51100000000E-03 0.  1.
         11    1    4    4    0    0  0.42414244904E-02 -0.77356497869E-01  0.14517073311E-01  0.78822737727E-01  0.51100000000E-03 0. -1.
</event>
<event>
 8    1  0.1122465E+005  0.1043930E+01  0.7957747E-01            NaN
         13   -1    0    0    0    0  0.00000000000E+00  0.00000000000E+00  0.74505805969E-08  0.10566000000E+00  0.10566000000E+00 0. -1.
     999900   -1    0    0    0    0 -0.00000000000E+00 -0.00000000000E+00 -0.74505805969E-08  0.93827000000E+00  0.93827000000E+00 0.  1.
     999902    2    1    2    0    0 -0.10157527614E-01  0.19774857638E-01 -0.81029018599E-02  0.10202682718E+01  0.10199938574E+01 0.  0.
     999903    2    3    3    0    0  0.26135631412E-01  0.10673887265E+00 -0.72002703604E-01  0.13293343200E+00  0.20264497365E-01 0.  0.
         14    1    1    2    0    0  0.10157527614E-01 -0.19774857638E-01  0.81029018599E-02  0.23661728179E-01  0.00000000000E+00 0. -1.
     999901    1    3    3    0    0 -0.36293159027E-01 -0.86964015009E-01  0.63899801744E-01  0.88733483982E+00  0.88000000000E+00 0.  1.
        -11    1    4    4    0    0  0.32824766998E-02  0.55953909699E-01 -0.36161742417E-01  0.66704927851E-01  0.51100000000E-03 0.  1.
         11    1    4    4    0    0  0.22853154712E-01  0.50784962949E-01 -0.35840961187E-01  0.66228504149E-01  0.51100000000E-03 0. -1.
</event>
<event>
 8    1  0.1122465E+005  0.1043930E+01  0.7957747E-01            NaN
         13   -1    0    0    0    0  0.00000000000E+00  0.00000000000E+00  0.74505805969E-08  0.10566000000E+00  0.10566000000E+00 0. -1.
     999900   -1    0    0    0    0 -0.00000000000E+00 -0.00000000000E+00 -0.74505805969E-08  0.93827000000E+00  0.93827000000E+00 0. -1.
     999902    2    1    2    0    0  0.12403153795E-01 -0.15072207544E-01  0.12451664075E-01  0.10207771686E+01  0.10205145635E+01 0.  0.
     999903    2    3    3    0    0  0.69757747649E-01 -0.87281558191E-01 -0.67850039594E-01  0.13232227194E+00  0.20526617392E-01 0.  0.
         14    1    1    2    0    0 -0.12403153795E-01  0.15072207544E-01 -0.12451664075E-01  0.23152831416E-01  0.00000000000E+00 0.  1.
     999901    1    3    3    0    0 -0.57354593854E-01  0.72209350647E-01  0.80301703669E-01  0.88845489664E+00  0.88000000000E+00 0. -1.
        -11    1    4    4    0    0  0.46757115823E-01 -0.64717474371E-01 -0.38110503695E-01  0.88471752452E-01  0.51100000000E-03 0.  1.
         11    1    4    4    0    0  0.23000631826E-01 -0.22564083820E-01 -0.29739535898E-01  0.43850519489E-01  0.51100000000E-03 0. -1.
</event>
<event>
 8    1  0.1122465E+005  0.1043930E+01  0.7957747E-01            NaN
         13   -1    0    0    0    0  0.00000000000E+00  0.00000000000E+00  0.74505805969E-08  0.10566000000E+00  0.10566000000E+00 0. -1.
     999900   -1    0    0    0    0 -0.00000000000E+00 -0.00000000000E+00 -0.74505805969E-08  0.93827000000E+00  0.93827000000E+00 0.  1.
     999902    2    1    2    0    0  0.17339253694E-02 -0.13026471956E-01 -0.19738175906E-01  0.10202173229E+01  0.10199417115E+01 0.  0.
     999903    2    3    3    0    0  0.29247906970E-01  0.96265340057E-01  0.76315770176E-01  0.12784515840E+00  0.19945726110E-01 0.  0.
         14    1    1    2    0    0 -0.17339253694E-02  0.13026471956E-01  0.19738175906E-01  0.23712677135E-01  0.00000000000E+00 0.  1.
     999901    1    3    3    0    0 -0.27513981601E-01 -0.10929181201E+00 -0.96053946082E-01  0.89237216447E+00  0.88000000000E+00 0.  1.
        -11    1    4    4    0    0  0.14155328186E-01  0.19647756917E-01  0.14329032834E-01  0.28142316374E-01  0.51100000000E-03 0. -1.
         11    1    4    4    0    0  0.15092578784E-01  0.76617583139E-01  0.61986737342E-01  0.99702842024E-01  0.51100000000E-03 0.  1.
</event>
<event>
 8    1  0.1122465E+005  0.1043930E+01  0.7957747E-01            NaN
         13   -1    0    0    0    0  0.00000000000E+00  0.00000000000E+00  0.74505805969E-08  0.10566000000E+00  0.10566000000E+00 0. -1.
     999900   -1    0    0    0    0 -0.00000000000E+00 -0.00000000000E+00 -0.74505805969E-08  0.93827000000E+00  0.93827000000E+00 0.  1.
     999902    2    1    2    0    0 -0.14688509541E-01  0.41650019797E-02 -0.15878220499E-01  0.10219023483E+01  0.10216649118E+01 0.  0.
     999903    2    3    3    0    0 -0.65320390160E-01  0.34302697505E-01 -0.11099456301E+00  0.13481780516E+00  0.20313028945E-01 0.  0.
         14    1    1    2    0    0  0.14688509541E-01 -0.41650019797E-02  0.15878220499E-01  0.22027651719E-01  0.00000000000E+00 0. -1.
     999901    1    3    3    0    0  0.50631880619E-01 -0.30137695525E-01  0.95116342509E-01  0.88708454312E+00  0.88000000000E+00 0.  1.
        -11    1    4    4    0    0 -0.12928341183E-01  0.97421851255E-02 -0.40480416330E-01  0.43600199587E-01  0.51100000000E-03 0. -1.
         11    1    4    4    0    0 -0.52392048977E-01  0.24560512380E-01 -0.70514146678E-01  0.91217605577E-01  0.51100000000E-03 0.  1.
</event>
<event>
 8    1  0.1122465E+005  0.1043930E+01  0.7957747E-01            NaN
         13   -1    0    0    0    0  0.00000000000E+00  0.00000000000E+00  0.74505805969E-08  0.10566000000E+00  0.10566000000E+00 0. -1.
     999900   -1    0    0    0    0 -0.00000000000E+00 -0.00000000000E+00 -0.74505805969E-08  0.93827000000E+00  0.93827000000E+00 0.  1.
     999902    2    1    2    0    0  0.39939106659E-02  0.15633088753E-01  0.18817288920E-01  0.10191421976E+01  0.10188407058E+01 0.  0.
     999903    2    3    3    0    0 -0.94365314192E-01  0.29143291034E-01 -0.79249051043E-01  0.12814608664E+00  0.19668845804E-01 0.  0.
         14    1    1    2    0    0 -0.39939106659E-02 -0.15633088753E-01 -0.18817288920E-01  0.24787802417E-01  0.00000000000E+00 0.  1.
     999901    1    3    3    0    0  0.98359224858E-01 -0.13510202281E-01  0.98066339963E-01  0.89099611094E+00  0.88000000000E+00 0.  1.
        -11    1    4    4    0    0 -0.49610919861E-01  0.14890630339E-01 -0.29015680899E-01  0.59372932388E-01  0.51100000000E-03 0. -1.
         11    1    4    4    0    0 -0.44754394331E-01  0.14252660695E-01 -0.50233370144E-01  0.68773154253E-01  0.51100000000E-03 0.  1.
</event>
<event>
 8    1  0.1122465E+005  0.1043930E+01  0.7957747E-01            NaN
         13   -1    0    0    0    0  0.00000000000E+00  0.00000000000E+00  0.74505805969E-08  0.10566000000E+00  0.10566000000E+00 0. -1.
     999900   -1    0    0    0    0 -0.00000000000E+00 -0.00000000000E+00 -0.74505805969E-08  0.93827000000E+00  0.93827000000E+00 0.  1.
     999902    2    1    2    0    0  0.16453150835E-01  0.17713977536E-01 -0.11527023283E-01  0.10171463588E+01  0.10167936623E+01 0.  0.
     999903    2    3    3    0    0  0.11109737464E+00 -0.10899611056E-01 -0.63522008006E-01  0.13008393424E+00  0.20624167222E-01 0.  0.
         14    1    1    2    0    0 -0.16453150835E-01 -0.17713977536E-01  0.11527023283E-01  0.26783641245E-01  0.00000000000E+00 0. -1.
     999901    1    3    3    0    0 -0.94644223803E-01  0.28613588592E-01  0.51994984723E-01  0.88706242452E+00  0.88000000000E+00 0. -1.
        -11    1    4    4    0    0  0.37985930983E-01 -0.13408466216E-01 -0.24870791679E-01  0.47344855250E-01  0.51100000000E-03 0.  1.
         11    1    4    4    0    0  0.73111443655E-01  0.25088551603E-02 -0.38651216327E-01  0.82739078990E-01  0.51100000000E-03 0. -1.
</event>
<event>
 8    1  0.1122465E+005  0.1043930E+01  0.7957747E-01            NaN
         13   -1    0    0    0    0  0.00000000000E+00  0.00000000000E+00  0.74505805969E-08  0.10566000000E+00  0.10566000000E+00 0. -1.
     999900   -1    0    0    0    0 -0.00000000000E+00 -0.00000000000E+00 -0.74505805969E-08  0.93827000000E+00  0.93827000000E+00 0. -1.
     999902    2    1    2    0    0  0.11774972571E-01 -0.20496650293E-01  0.21788714778E-03  0.10202908349E+01  0.10200169497E+01 0.  0.
     999903    2    3    3    0    0  0.71572302454E-01  0.10154502294E+00  0.26895482531E-01  0.12945887275E+00  0.24540712937E-01 0.  0.
         14    1    1    2    0    0 -0.11774972571E-01  0.20496650293E-01 -0.21788714778E-03  0.23639165110E-01  0.00000000000E+00 0.  1.
     999901    1    3    3    0    0 -0.59797329884E-01 -0.12204167323E+00 -0.26677595383E-01  0.89083196214E+00  0.88000000000E+00 0. -1.
        -11    1    4    4    0    0  0.32436533826E-01  0.43795803895E-01 -0.51499154432E-03  0.54504380584E-01  0.51100000000E-03 0. -1.
         11    1    4    4    0    0  0.39135768628E-01  0.57749219046E-01  0.27410474076E-01  0.74954492171E-01  0.51100000000E-03 0.  1.
</event>
<event>
 8    1  0.1122465E+005  0.1043930E+01  0.7957747E-01            NaN
         13   -1    0    0    0    0  0.00000000000E+00  0.00000000000E+00  0.74505805969E-08  0.10566000000E+00  0.10566000000E+00 0. -1.
     999900   -1    0    0    0    0 -0.00000000000E+00 -0.00000000000E+00 -0.74505805969E-08  0.93827000000E+00  0.93827000000E+00 0.  1.
     999902    2    1    2    0    0  0.31315948509E-02  0.16108257265E-01  0.17746402501E-01  0.10197594055E+01  0.10194729165E+01 0.  0.
     999903    2    3    3    0    0 -0.39144599965E-01  0.75425440200E-01 -0.95639857102E-01  0.12949975306E+00  0.20047619303E-01 0.  0.
         14    1    1    2    0    0 -0.31315948509E-02 -0.16108257265E-01 -0.17746402501E-01  0.24170594534E-01  0.00000000000E+00 0. -1.
     999901    1    3    3    0    0  0.42276194816E-01 -0.59317182935E-01  0.11338625960E+00  0.89025965241E+00  0.88000000000E+00 0. -1.
        -11    1    4    4    0    0 -0.14117028079E-01  0.12972331803E-01 -0.14213249065E-01  0.23871519520E-01  0.51100000000E-03 0.  1.
         11    1    4    4    0    0 -0.25027571886E-01  0.62453108396E-01 -0.81426608037E-01  0.10562823354E+00  0.51100000000E-03 0. -1.
</event>
<event>
 8    1  0.1122465E+005  0.1043930E+01  0.7957747E-01            NaN
         13   -1    0    0    0    0  0.00000000000E+00  0.00000000000E+00  0.74505805969E-08  0.10566000000E+00  0.10566000000E+00 0. -1.
     999900   -1    0    0    0    0 -0.00000000000E+00 -0.00000000000E+00 -0.74505805969E-08  0.93827000000E+00  0.93827000000E+00 0. -1.
     999902    2    1    2    0    0 -0.73593384893E-02 -0.20327008525E-01  0.94826643501E-02  0.10203234742E+01  0.10200503536E+01 0.  0.
     999903    2    3    3    0    0  0.47618265431E-02  0.49185052759E-01 -0.11692012987E+00  0.12849584750E+00  0.19975526266E-01 0.  0.
         14    1    1    2    0    0  0.73593384893E-02  0.20327008525E-01 -0.94826643501E-02  0.23606525830E-01  0.00000000000E+00 0.  1.
     999901    1    3    3    0    0 -0.12121165032E-01 -0.69512061285E-01  0.12640279422E+00  0.89182762667E+00  0.88000000000E+00 0.  1.
        -11    1    4    4    0    0 -0.63052588204E-02  0.28865426830E-01 -0.55819376791E-01  0.63158792747E-01  0.51100000000E-03 0.  1.
         11    1    4    4    0    0  0.11067085363E-01  0.20319625929E-01 -0.61100753076E-01  0.65337054753E-01  0.51100000000E-03 0. -1.
</event>
<event>
 8    1  0.1122465E+005  0.1043930E+01  0.7957747E-01            NaN
         13   -1    0    0    0    0  0.00000000000E+00  0.00000000000E+00  0.74505805969E-08  0.10566000000E+00  0.10566000000E+00 0. -1.
     999900   -1    0    0    0    0 -0.00000000000E+00 -0.00000000000E+00 -0.74505805969E-08  0.93827000000E+00  0.93827000000E+00 0. -1.
     999902    2    1    2    0    0 -0.75522268167E-02  0.13586084910E-01 -0.19211061644E-01  0.10192180045E+01  0.10189183765E+01 0.  0.
     999903    2    3    3    0    0  0.31308362932E-01 -0.12198450147E+00  0.15023095933E-02  0.12774810983E+00  0.21374995683E-01 0.  0.
         14    1    1    2    0    0  0.75522268167E-02 -0.13586084910E-01  0.19211061644E-01  0.24711995520E-01  0.00000000000E+00 0. -1.
     999901    1    3    3    0    0 -0.38860589748E-01  0.13557058638E+00 -0.20713371238E-01  0.89146989465E+00  0.88000000000E+00 0.  1.
        -11    1    4    4    0    0  0.45540246437E-02 -0.56614660532E-01 -0.37130255928E-02  0.56921055926E-01  0.51100000000E-03 0. -1.
         11    1    4    4    0    0  0.26754338288E-01 -0.65369840942E-01  0.52153351861E-02  0.70827053900E-01  0.51100000000E-03 0.  1.
</event>
<event>
 8    1  0.1122465E+005  0.1043930E+01  0.7957747E-01            NaN
         13   -1    0    0    0    0  0.00000000000E+00  0.00000000000E+00  0.74505805969E-08  0.10566000000E+00  0.10566000000E+00 0.  1.
     999900   -1    0    0    0    0 -0.00000000000E+00 -0.00000000000E+00 -0.74505805969E-08  0.93827000000E+00  0.93827000000E+00 0.  1.
     999902    2    1    2    0    0 -0.40642256498E-02 -0.20495593892E-01 -0.12317353652E-01  0.10196750108E+01  0.10193864935E+01 0.  0.
     999903    2    3    3    0    0  0.10760411161E+00  0.46822878238E-02 -0.70163369062E-01  0.13037758882E+00  0.21791022310E-01 0.  0.
         14    1    1    2    0    0  0.40642256498E-02  0.20495593892E-01  0.12317353652E-01  0.24254989180E-01  0.00000000000E+00 0.  1.
     999901    1    3    3    0    0 -0.11166833726E+00 -0.25177881716E-01  0.57846015410E-01  0.88929742200E+00  0.88000000000E+00 0. -1.
        -11    1    4    4    0    0  0.27392255133E-01  0.42187896571E-02 -0.29371054699E-01  0.40386307117E-01  0.51100000000E-03 0. -1.
         11    1    4    4    0    0  0.80211856481E-01  0.46349816663E-03 -0.40792314363E-01  0.89991281704E-01  0.51100000000E-03 0.  1.
</event>
<event>
 8    1  0.1122465E+005  0.1043930E+01  0.7957747E-01            NaN
         13   -1    0    0    0    0  0.00000000000E+00  0.00000000000E+00  0.74505805969E-08  0.10566000000E+00  0.10566000000E+00 0. -1.
     999900   -1    0    0    0    0 -0.00000000000E+00 -0.00000000000E+00 -0.74505805969E-08  0.93827000000E+00  0.93827000000E+00 0.  1.
     999902    2    1    2    0    0 -0.20801909403E-01 -0.11078099762E-01 -0.34851806911E-02  0.10201058481E+01  0.10198276085E+01 0.  0.
     999903    2    3    3    0    0 -0.47190180510E-01 -0.12208622870E+00  0.39423841769E-02  0.13270835303E+00  0.21540756642E-01 0.  0.
         14    1    1    2    0    0  0.20801909403E-01  0.11078099762E-01  0.34851806911E-02  0.23824151896E-01  0.00000000000E+00 0.  1.
     999901    1    3    3    0    0  0.26388271108E-01  0.11100812894E+00 -0.74275648681E-02  0.88739749507E+00  0.88000000000E+00 0.  1.
        -11    1    4    4    0    0 -0.33359988864E-01 -0.10225738919E+00 -0.28200640340E-02  0.10759961144E+00  0.51100000000E-03 0. -1.
         11    1    4    4    0    0 -0.13830191646E-01 -0.19828839510E-01  0.67624482110E-02  0.25108741587E-01  0.51100000000E-03 0.  1.
</event>
<event>
 8    1  0.1122465E+005  0.1043930E+01  0.7957747E-01            NaN
         13   -1    0    0    0    0  0.00000000000E+00  0.00000000000E+00  0.74505805969E-08  0.10566000000E+00  0.10566000000E+00 0. -1.
     999900   -1    0    0    0    0 -0.00000000000E+00 -0.00000000000E+00 -0.74505805969E-08  0.93827000000E+00  0.93827000000E+00 0.  1.
     999902    2    1    2    0    0  0.16292352766E-01  0.97069422443E-02 -0.15660741577E-01  0.10193347908E+01  0.10190380226E+01 0.  0.
     999903    2    3    3    0    0  0.49518831998E-01 -0.36142597887E-01 -0.11503021438E+00  0.13193382658E+00  0.20400545865E-01 0.  0.
         14    1    1    2    0    0 -0.16292352766E-01 -0.97069422443E-02  0.15660741577E-01  0.24595209150E-01  0.00000000000E+00 0. -1.
     999901    1    3    3    0    0 -0.33226479232E-01  0.45849540132E-01  0.99369472807E-01  0.88740096426E+00  0.88000000000E+00 0. -1.
        -11    1    4    4    0    0 -0.26259942854E-03 -0.14820719623E-02 -0.14008453486E-01  0.14098346918E-01  0.51100000000E-03 0. -1.
         11    1    4    4    0    0  0.49781431427E-01 -0.34660525925E-01 -0.10102176090E+00  0.11783547967E+00  0.51100000000E-03 0.  1.
</event>
<event>
 8    1  0.1122465E+005  0.1043930E+01  0.7957747E-01            NaN
         13   -1    0    0    0    0  0.00000000000E+00  0.00000000000E+00  0.74505805969E-08  0.10566000000E+00  0.10566000000E+00 0. -1.
     999900   -1    0    0    0    0 -0.00000000000E+00 -0.00000000000E+00 -0.74505805969E-08  0.93827000000E+00  0.93827000000E+00 0.  1.
     999902    2    1    2    0    0  0.14386402071E-01  0.12535559665E-01  0.16096953420E-01  0.10189656108E+01  0.10186597544E+01 0.  0.
     999903    2    3    3    0    0 -0.98194797923E-01 -0.43283524335E-01 -0.63777887768E-01  0.12645774694E+00  0.20205468930E-01 0.  0.
         14    1    1    2    0    0 -0.14386402071E-01 -0.12535559665E-01 -0.16096953420E-01  0.24964389239E-01  0.00000000000E+00 0.  1.
     999901    1    3    3    0    0  0.11258119999E+00  0.55819083999E-01  0.79874841188E-01  0.89250786382E+00  0.88000000000E+00 0. -1.
        -11    1    4    4    0    0 -0.40874903069E-01 -0.87977169026E-02 -0.18794306490E-01  0.45843697506E-01  0.51100000000E-03 0.  1.
         11    1    4    4    0    0 -0.57319894855E-01 -0.34485807432E-01 -0.44983581278E-01  0.80614049433E-01  0.51100000000E-03 0. -1.
</event>
<event>
 8    1  0.1122465E+005  0.1043930E+01  0.7957747E-01            NaN
         13   -1    0    0    0    0  0.00000000000E+00  0.00000000000E+00  0.74505805969E-08  0.10566000000E+00  0.10566000000E+00 0.  1.
     999900   -1    0    0    0    0 -0.00000000000E+00 -0.00000000000E+00 -0.74505805969E-08  0.93827000000E+00  0.93827000000E+00 0. -1.
     999902    2    1    2    0    0 -0.20281620292E-02 -0.24127775669E-01  0.23823619593E-02  0.10196002107E+01  0.10193098896E+01 0.  0.
     999903    2    3    3    0    0 -0.45366325465E-02  0.83373013038E-01  0.95264854920E-01  0.12820250511E+00  0.19719264569E-01 0.  0.
         14    1    1    2    0    0  0.20281620292E-02  0.24127775669E-01 -0.23823619593E-02  0.24329789322E-01  0.00000000000E+00 0. -1.
     999901    1    3    3    0    0  0.25084705173E-02 -0.10750078871E+00 -0.92882492960E-01  0.89139770557E+00  0.88000000000E+00 0.  1.
        -11    1    4    4    0    0 -0.36770701829E-02  0.56042239042E-01  0.77030473961E-01  0.95332095548E-01  0.51100000000E-03 0. -1.
         11    1    4    4    0    0 -0.85956236366E-03  0.27330773996E-01  0.18234380959E-01  0.32870409560E-01  0.51100000000E-03 0.  1.
</event>
<event>
 8    1  0.1122465E+005  0.1043930E+01  0.7957747E-01            NaN
         13   -1    0    0    0    0  0.00000000000E+00  0.00000000000E+00  0.74505805969E-08  0.10566000000E+00  0.10566000000E+00 0. -1.
     999900   -1    0    0    0    0 -0.00000000000E+00 -0.00000000000E+00 -0.74505805969E-08  0.93827000000E+00  0.93827000000E+00 0. -1.
     999902    2    1    2    0    0 -0.57188233566E-02  0.20387175939E-01  0.11201252484E-01  0.10199756697E+01  0.10196943448E+01 0.  0.
     999903    2    3    3    0    0  0.54172536234E-01 -0.11368830436E+00  0.87443444404E-02  0.12780458421E+00  0.19946276745E-01 0.  0.
         14    1    1    2    0    0  0.57188233566E-02 -0.20387175939E-01 -0.11201252484E-01  0.23954330309E-01  0.00000000000E+00 0.  1.
     999901    1    3    3    0    0 -0.59891359591E-01  0.13407548030E+00  0.24569080432E-02  0.89217108548E+00  0.88000000000E+00 0.  1.
        -11    1    4    4    0    0  0.50179214138E-01 -0.93360316781E-01  0.19974048792E-02  0.10601109861E+00  0.51100000000E-03 0. -1.
         11    1    4    4    0    0  0.39933220963E-02 -0.20327987575E-01  0.67469395612E-02  0.21793485601E-01  0.51100000000E-03 0.  1.
</event>
<event>
 8    1  0.1122465E+005  0.1043930E+01  0.7957747E-01            NaN
         13   -1    0    0    0    0  0.00000000000E+00  0.00000000000E+00  0.74505805969E-08  0.10566000000E+00  0.10566000000E+00 0.  1.
     999900   -1    0    0    0    0 -0.00000000000E+00 -0.00000000000E+00 -0.74505805969E-08  0.93827000000E+00  0.93827000000E+00 0. -1.
     999902    2    1    2    0    0 -0.25890316981E-02 -0.13725180949E-01 -0.16782841972E-01  0.10220954526E+01  0.10218622053E+01 0.  0.
     999903    2    3    3    0    0  0.17779881199E-01 -0.52803584703E-01  0.11697250171E+00  0.13089822062E+00  0.18639615646E-01 0.  0.
         14    1    1    2    0    0  0.25890316981E-02  0.13725180949E-01  0.16782841972E-01  0.21834547439E-01  0.00000000000E+00 0.  1.
     999901    1    3    3    0    0 -0.20368912897E-01  0.39078403753E-01 -0.13375534369E+00  0.89119723194E+00  0.88000000000E+00 0. -1.
        -11    1    4    4    0    0  0.17301015658E-01 -0.51725572844E-01  0.10026302861E+00  0.11413937119E+00  0.51100000000E-03 0.  1.
         11    1    4    4    0    0  0.47886554017E-03 -0.10780118586E-02  0.16709473104E-01  0.16758849429E-01  0.51100000000E-03 0. -1.
</event>
<event>
 8    1  0.1122465E+005  0.1043930E+01  0.7957747E-01            NaN
         13   -1    0    0    0    0  0.00000000000E+00  0.00000000000E+00  0.74505805969E-08  0.10566000000E+00  0.10566000000E+00 0.  1.
     999900   -1    0    0    0    0 -0.00000000000E+00 -0.00000000000E+00 -0.74505805969E-08  0.93827000000E+00  0.93827000000E+00 0. -1.
     999902    2    1    2    0    0 -0.16844873769E-01 -0.11824510400E-01 -0.10042261832E-01  0.10210298725E+01  0.10207730329E+01 0.  0.
     999903    2    3    3    0    0  0.10704239814E+00 -0.42924907460E-01 -0.57576499953E-01  0.13053855042E+00  0.20606725104E-01 0.  0.
         14    1    1    2    0    0  0.16844873769E-01  0.11824510400E-01  0.10042261832E-01  0.22900127537E-01  0.00000000000E+00 0. -1.
     999901    1    3    3    0    0 -0.12388727191E+00  0.31100397061E-01  0.47534238121E-01  0.89049132204E+00  0.88000000000E+00 0.  1.
        -11    1    4    4    0    0  0.67701158040E-01 -0.34397350232E-01 -0.45413649549E-01  0.88483248072E-01  0.51100000000E-03 0. -1.
         11    1    4    4    0    0  0.39341240099E-01 -0.85275572283E-02 -0.12162850405E-01  0.42055302350E-01  0.51100000000E-03 0.  1.
</event>
<event>
 8    1  0.1122465E+005  0.1043930E+01  0.7957747E-01            NaN
         13   -1    0    0    0    0  0.00000000000E+00  0.00000000000E+00  0.74505805969E-08  0.10566000000E+00  0.10566000000E+00 0. -1.
     999900   -1    0    0    0    0 -0.00000000000E+00 -0.00000000000E+00 -0.74505805969E-08  0.93827000000E+00  0.93827000000E+00 0. -1.
     999902    2    1    2    0    0  0.20400897115E-01  0.11969304253E-01 -0.13437418375E-02  0.10202389365E+01  0.10199638332E+01 0.  0.
     999903    2    3    3    0    0  0.16775058849E-01  0.81059113739E-01  0.10036814312E+00  0.13168288536E+00  0.20362603566E-01 0.  0.
         14    1    1    2    0    0 -0.20400897115E-01 -0.11969304253E-01  0.13437418375E-02  0.23691063495E-01  0.00000000000E+00 0.  1.
     999901    1    3    3    0    0  0.36258382655E-02 -0.69089809486E-01 -0.10171188496E+00  0.88855605114E+00  0.88000000000E+00 0. -1.
        -11    1    4    4    0    0  0.38696028352E-02  0.40398392313E-01  0.63148163082E-01  0.75066340987E-01  0.51100000000E-03 0. -1.
         11    1    4    4    0    0  0.12905456014E-01  0.40660721426E-01  0.37219980042E-01  0.56616544376E-01  0.51100000000E-03 0.  1.
</event>
<event>
 8    1  0.1122465E+005  0.1043930E+01  0.7957747E-01            NaN
         13   -1    0    0    0    0  0.00000000000E+00  0.00000000000E+00  0.74505805969E-08  0.10566000000E+00  0.10566000000E+00 0.  1.
     999900   -1    0    0    0    0 -0.00000000000E+00 -0.00000000000E+00 -0.74505805969E-08  0.93827000000E+00  0.93827000000E+00 0.  1.
     999902    2    1    2    0    0  0.60947048213E-02  0.50563614023E-02 -0.21887482900E-01  0.10206539581E+01  0.10203885182E+01 0.  0.
     999903    2    3    3    0    0  0.85372992663E-01  0.49684925780E-01 -0.87515971500E-01  0.13353285354E+00  0.20367571828E-01 0.  0.
         14    1    1    2    0    0 -0.60947048213E-02 -0.50563614023E-02  0.21887482900E-01  0.23276041872E-01  0.00000000000E+00 0.  1.
     999901    1    3    3    0    0 -0.79278287842E-01 -0.44628564378E-01  0.65628488600E-01  0.88712110458E+00  0.88000000000E+00 0.  1.
        -11    1    4    4    0    0  0.21625592688E-01  0.21087584942E-01 -0.34287831429E-01  0.45697582024E-01  0.51100000000E-03 0.  1.
         11    1    4    4    0    0  0.63747399975E-01  0.28597340838E-01 -0.53228140072E-01  0.87835271521E-01  0.51100000000E-03 0. -1.
</event>
<event>
 8    1  0.1122465E+005  0.1043930E+01  0.7957747E-01            NaN
         13   -1    0    0    0    0  0.00000000000E+00  0.00000000000E+00  0.74505805969E-08  0.10566000000E+00  0.10566000000E+00 0.  1.
     999900   -1    0    0    0    0 -0.00000000000E+00 -0.00000000000E+00 -0.74505805969E-08  0.93827000000E+00  0.93827000000E+00 0. -1.
     999902    2    1    2    0    0  0.16761495128E-01  0.15928003148E-01  0.57029266996E-02  0.10201146189E+01  0.10198365866E+01 0.  0.
     999903    2    3    3    0    0 -0.57900430594E-02 -0.10821486947E+00 -0.65051295652E-01  0.12830399738E+00  0.22051351589E-01 0.  0.
         14    1    1    2    0    0 -0.16761495128E-01 -0.15928003148E-01 -0.57029266996E-02  0.23815381084E-01  0.00000000000E+00 0.  1.
     999901    1    3    3    0    0  0.22551538188E-01  0.12414287261E+00  0.70754222351E-01  0.89181062153E+00  0.88000000000E+00 0.  1.
        -11    1    4    4    0    0 -0.15126020807E-02 -0.44065269433E-02  0.14978458122E-02  0.49203767980E-02  0.51100000000E-03 0.  1.
         11    1    4    4    0    0 -0.42774409786E-02 -0.10380834252E+00 -0.66549141464E-01  0.12338362059E+00  0.51100000000E-03 0. -1.
</event>
<event>
 8    1  0.1122465E+005  0.1043930E+01  0.7957747E-01            NaN
         13   -1    0    0    0    0  0.00000000000E+00  0.00000000000E+00  0.74505805969E-08  0.10566000000E+00  0.10566000000E+00 0. -1.
     999900   -1    0    0    0    0 -0.00000000000E+00 -0.00000000000E+00 -0.74505805969E-08  0.93827000000E+00  0.93827000000E+00 0. -1.
     999902    2    1    2    0    0  0.19004601862E-01 -0.62680970666E-03  0.23938299685E-01  0.10133586086E+01  0.10128973589E+01 0.  0.
     999903    2    3    3    0    0 -0.32376616858E-01  0.99121108938E-01  0.66385711315E-01  0.12521928410E+00  0.19989169249E-01 0.  0.
         14    1    1    2    0    0 -0.19004601862E-01  0.62680970666E-03 -0.23938299685E-01  0.30571391433E-01  0.00000000000E+00 0.  1.
     999901    1    3    3    0    0  0.51381218720E-01 -0.99747918645E-01 -0.42447411631E-01  0.88813932447E+00  0.88000000000E+00 0.  1.
        -11    1    4    4    0    0 -0.89998569360E-02  0.56270705379E-01  0.40949168348E-01  0.70174676473E-01  0.51100000000E-03 0. -1.
         11    1    4    4    0    0 -0.23376759922E-01  0.42850403559E-01  0.25436542968E-01  0.55044607627E-01  0.51100000000E-03 0.  1.
</event>
<event>
 8    1  0.1122465E+005  0.1043930E+01  0.7957747E-01            NaN
         13   -1    0    0    0    0  0.00000000000E+00  0.00000000000E+00  0.74505805969E-08  0.10566000000E+00  0.10566000000E+00 0.  1.
     999900   -1    0    0    0    0 -0.00000000000E+00 -0.00000000000E+00 -0.74505805969E-08  0.93827000000E+00  0.93827000000E+00 0.  1.
     999902    2    1    2    0    0 -0.14253786888E-01  0.18569016101E-01  0.28212826694E-02  0.10203516532E+01  0.10200791920E+01 0.  0.
     999903    2    3    3    0    0 -0.10896470966E+00  0.51973717657E-01 -0.51821685323E-01  0.13295552585E+00  0.20423258940E-01 0.  0.
         14    1    1    2    0    0  0.14253786888E-01 -0.18569016101E-01 -0.28212826694E-02  0.23578346751E-01  0.00000000000E+00 0. -1.
     999901    1    3    3    0    0  0.94710922769E-01 -0.33404701556E-01  0.54642967992E-01  0.88739612740E+00  0.88000000000E+00 0.  1.
        -11    1    4    4    0    0 -0.30885583556E-01  0.22595947614E-01 -0.23214392222E-01  0.44762319504E-01  0.51100000000E-03 0. -1.
         11    1    4    4    0    0 -0.78079126101E-01  0.29377770043E-01 -0.28607293101E-01  0.88193206342E-01  0.51100000000E-03 0.  1.
</event>
<event>
 8    1  0.1122465E+005  0.1043930E+01  0.7957747E-01            NaN
         13   -1    0    0    0    0  0.00000000000E+00  0.00000000000E+00  0.74505805969E-08  0.10566000000E+00  0.10566000000E+00 0. -1.
     999900   -1    0    0    0    0 -0.00000000000E+00 -0.00000000000E+00 -0.74505805969E-08  0.93827000000E+00  0.93827000000E+00 0.  1.
     999902    2    1    2    0    0  0.14736021015E-02  0.22796113975E-01 -0.80504484578E-02  0.10197092643E+01  0.10194215712E+01 0.  0.
     999903    2    3    3    0    0  0.15329423080E-01  0.90723000699E-01  0.91741952616E-01  0.13135991356E+00  0.19318047360E-01 0.  0.
         14    1    1    2    0    0 -0.14736021015E-02 -0.22796113975E-01  0.80504484578E-02  0.24220735659E-01  0.00000000000E+00 0.  1.
     999901    1    3    3    0    0 -0.13855820978E-01 -0.67926886725E-01 -0.99792401073E-01  0.88834935078E+00  0.88000000000E+00 0.  1.
        -11    1    4    4    0    0  0.34408685462E-02  0.57638781633E-01  0.66538272823E-01  0.88100349578E-01  0.51100000000E-03 0. -1.
         11    1    4    4    0    0  0.11888554533E-01  0.33084219066E-01  0.25203679792E-01  0.43259563985E-01  0.51100000000E-03 0.  1.
</event>
<event>
 8    1  0.1122465E+005  0.1043930E+01  0.7957747E-01            NaN
         13   -1    0    0    0    0  0.00000000000E+00  0.00000000000E+00  0.74505805969E-08  0.10566000000E+00  0.10566000000E+00 0.  1.
     999900   -1    0    0    0    0 -0.00000000000E+00 -0.00000000000E+00 -0.74505805969E-08  0.93827000000E+00  0.93827000000E+00 0.  1.
     999902    2    1    2    0    0  0.98290365973E-02  0.21712803901E-01 -0.57141909203E-02  0.10194206591E+01  0.10191259846E+01 0.  0.
     999903    2    3    3    0    0  0.10049295775E+00  0.31297730395E-01  0.75277142439E-01  0.13101117384E+00  0.20466973695E-01 0.  0.
         14    1    1    2    0    0 -0.98290365973E-02 -0.21712803901E-01  0.57141909203E-02  0.24509340904E-01  0.00000000000E+00 0.  1.
     999901    1    3    3    0    0 -0.90663921150E-01 -0.95849264944E-02 -0.80991333360E-01  0.88840948526E+00  0.88000000000E+00 0.  1.
        -11    1    4    4    0    0  0.47145577475E-01  0.98254794901E-02  0.23330657531E-01  0.53514729042E-01  0.51100000000E-03 0. -1.
         11    1    4    4    0    0  0.53347380273E-01  0.21472250905E-01  0.51946484908E-01  0.77496444797E-01  0.51100000000E-03 0.  1.
</event>
<event>
 8    1  0.1122465E+005  0.1043930E+01  0.7957747E-01            NaN
         13   -1    0    0    0    0  0.00000000000E+00  0.00000000000E+00  0.74505805969E-08  0.10566000000E+00  0.10566000000E+00 0.  1.
     999900   -1    0    0    0    0 -0.00000000000E+00 -0.00000000000E+00 -0.74505805969E-08  0.93827000000E+00  0.93827000000E+00 0. -1.
     999902    2    1    2    0    0 -0.16258204563E-02  0.12451499740E-01 -0.19718436072E-01  0.10205526636E+01  0.10202848814E+01 0.  0.
     999903    2    3    3    0    0 -0.64803082634E-01  0.10890706486E+00 -0.34749792483E-01  0.13290353008E+00  0.19889995808E-01 0.  0.
         14    1    1    2    0    0  0.16258204563E-02 -0.12451499740E-01  0.19718436072E-01  0.23377336440E-01  0.00000000000E+00 0.  1.
     999901    1    3    3    0    0  0.63177262177E-01 -0.96455565123E-01  0.15031356412E-01  0.88764913348E+00  0.88000000000E+00 0.  1.
        -11    1    4    4    0    0 -0.48705330878E-01  0.69313628417E-01 -0.15934824376E-01  0.86201903049E-01  0.51100000000E-03 0. -1.
         11    1    4    4    0    0 -0.16097751755E-01  0.39593436445E-01 -0.18814968107E-01  0.46701627027E-01  0.51100000000E-03 0.  1.
</event>
<event>
 8    1  0.1122465E+005  0.1043930E+01  0.7957747E-01            NaN
         13   -1    0    0    0    0  0.00000000000E+00  0.00000000000E+00  0.74505805969E-08  0.10566000000E+00  0.10566000000E+00 0.  1.
     999900   -1    0    0    0    0 -0.00000000000E+00 -0.00000000000E+00 -0.74505805969E-08  0.93827000000E+00  0.93827000000E+00 0.  1.
     999902    2    1    2    0    0 -0.19980013730E-01 -0.12143504782E-01  0.93418237870E-03  0.10205304625E+01  0.10202621656E+01 0.  0.
     999903    2    3    3    0    0 -0.98393124386E-01  0.48674949291E-01 -0.70528508559E-01  0.13207426413E+00  0.20466634102E-01 0.  0.
         14    1    1    2    0    0  0.19980013730E-01  0.12143504782E-01 -0.93418237870E-03  0.23399537469E-01  0.00000000000E+00 0. -1.
     999901    1    3    3    0    0  0.78413110656E-01 -0.60818454073E-01  0.71462690938E-01  0.88845619840E+00  0.88000000000E+00 0. -1.
        -11    1    4    4    0    0 -0.58091430530E-01  0.37920140118E-01 -0.50447427493E-01  0.85777359421E-01  0.51100000000E-03 0.  1.
         11    1    4    4    0    0 -0.40301693856E-01  0.10754809173E-01 -0.20081081066E-01  0.46296904711E-01  0.51100000000E-03 0. -1.
</event>
<event>
 8    1  0.1122465E+005  0.1043930E+01  0.7957747E-01            NaN
         13   -1    0    0    0    0  0.00000000000E+00  0.00000000000E+00  0.74505805969E-08  0.10566000000E+00  0.10566000000E+00 0. -1.
     999900   -1    0    0    0    0 -0.00000000000E+00 -0.00000000000E+00 -0.74505805969E-08  0.93827000000E+00  0.93827000000E+00 0.  1.
     999902    2    1    2    0    0  0.21933671188E-04 -0.22086582449E-01  0.71428304652E-02  0.10207171236E+01  0.10204531389E+01 0.  0.
     999903    2    3    3    0    0 -0.28623420128E-01 -0.90091172471E-02  0.12725341962E+00  0.13199999758E+00  0.18168714415E-01 0.  0.
         14    1    1    2    0    0 -0.21933671188E-04  0.22086582449E-01 -0.71428304652E-02  0.23212876435E-01  0.00000000000E+00 0.  1.
     999901    1    3    3    0    0  0.28645353800E-01 -0.13077465202E-01 -0.12011058915E+00  0.88871712598E+00  0.88000000000E+00 0.  1.
        -11    1    4    4    0    0 -0.28928761715E-01 -0.12045457554E-01  0.10644868085E+00  0.11096643221E+00  0.51100000000E-03 0. -1.
         11    1    4    4    0    0  0.30534158645E-03  0.30363403073E-02  0.20804738772E-01  0.21033565373E-01  0.51100000000E-03 0.  1.
</event>
<event>
 8    1  0.1122465E+005  0.1043930E+01  0.7957747E-01            NaN
         13   -1    0    0    0    0  0.00000000000E+00  0.00000000000E+00  0.74505805969E-08  0.10566000000E+00  0.10566000000E+00 0. -1.
     999900   -1    0    0    0    0 -0.00000000000E+00 -0.00000000000E+00 -0.74505805969E-08  0.93827000000E+00  0.93827000000E+00 0.  1.
     999902    2    1    2    0    0  0.18690950643E-01  0.73525140825E-02  0.11613490640E-01  0.10207290461E+01  0.10204653356E+01 0.  0.
     999903    2    3    3    0    0  0.12876736156E+00  0.28736754172E-01 -0.44050384587E-02  0.13346882760E+00  0.19689823131E-01 0.  0.
         14    1    1    2    0    0 -0.18690950643E-01 -0.73525140825E-02 -0.11613490640E-01  0.23200953948E-01  0.00000000000E+00 0.  1.
     999901    1    3    3    0    0 -0.11007641092E+00 -0.21384240090E-01  0.16018529099E-01  0.88726021845E+00  0.88000000000E+00 0. -1.
        -11    1    4    4    0    0  0.55572245665E-01  0.22408992488E-01 -0.24782493416E-02  0.59973663165E-01  0.51100000000E-03 0. -1.
         11    1    4    4    0    0  0.73195115894E-01  0.63277616842E-02 -0.19267891171E-02  0.73495164440E-01  0.51100000000E-03 0.  1.
</event>
<event>
 8    1  0.1122465E+005  0.1043930E+01  0.7957747E-01            NaN
         13   -1    0    0    0    0  0.00000000000E+00  0.00000000000E+00  0.74505805969E-08  0.10566000000E+00  0.10566000000E+00 0. -1.
     999900   -1    0    0    0    0 -0.00000000000E+00 -0.00000000000E+00 -0.74505805969E-08  0.93827000000E+00  0.93827000000E+00 0. -1.
     999902    2    1    2    0    0 -0.16454367967E-01  0.10393808892E-01  0.13973507846E-01  0.10199709430E+01  0.10196895058E+01 0.  0.
     999903    2    3    3    0    0  0.64104218151E-01 -0.68191421981E-01 -0.84270465906E-01  0.12738077803E+00  0.19103150815E-01 0.  0.
         14    1    1    2    0    0  0.16454367967E-01 -0.10393808892E-01 -0.13973507846E-01  0.23959056951E-01  0.00000000000E+00 0.  1.
     999901    1    3    3    0    0 -0.80558586117E-01  0.78585230873E-01  0.98243973752E-01  0.89259016502E+00  0.88000000000E+00 0. -1.
        -11    1    4    4    0    0  0.40539694696E-01 -0.55561321301E-01 -0.60679287508E-01  0.91721122563E-01  0.51100000000E-03 0.  1.
         11    1    4    4    0    0  0.23564523455E-01 -0.12630100680E-01 -0.23591178398E-01  0.35659655468E-01  0.51100000000E-03 0. -1.
</event>
<event>
 8    1  0.1122465E+005  0.1043930E+01  0.7957747E-01            NaN
         13   -1    0    0    0    0  0.00000000000E+00  0.00000000000E+00  0.74505805969E-08  0.10566000000E+00  0.10566000000E+00 0. -1.
     999900   -1    0    0    0    0 -0.00000000000E+00 -0.00000000000E+00 -0.74505805969E-08  0.93827000000E+00  0.93827000000E+00 0. -1.
     999902    2    1    2    0    0 -0.18522261037E-01  0.17538007053E-01 -0.15605195109E-02  0.10183743535E+01  0.10180536493E+01 0.  0.
     999903    2    3    3    0    0  0.41491560289E-01  0.61034756959E-01  0.10387196784E+00  0.12898712887E+00  0.20037529238E-01 0.  0.
         14    1    1    2    0    0  0.18522261037E-01 -0.17538007053E-01  0.15605195109E-02  0.25555646469E-01  0.00000000000E+00 0.  1.
     999901    1    3    3    0    0 -0.60013821326E-01 -0.43496749907E-01 -0.10543248735E+00  0.88938722466E+00  0.88000000000E+00 0. -1.
        -11    1    4    4    0    0  0.41455184615E-02  0.24472412569E-03  0.11714064404E-01  0.12438876117E-01  0.51100000000E-03 0. -1.
         11    1    4    4    0    0  0.37346041828E-01  0.60790032834E-01  0.92157903439E-01  0.11654825275E+00  0.51100000000E-03 0.  1.
</event>
<event>
 8    1  0.1122465E+005  0.1043930E+01  0.7957747E-01            NaN
         13   -1    0    0    0    0  0.00000000000E+00  0.00000000000E+00  0.74505805969E-08  0.10566000000E+00  0.10566000000E+00 0.  1.
     999900   -1    0    0    0    0 -0.00000000000E+00 -0.00000000000E+00 -0.74505805969E-08  0.93827000000E+00  0.93827000000E+00 0.  1.
     999902    2    1    2    0    0 -0.19387338345E-01 -0.87973552233E-02  0.10735669614E-01  0.10200864065E+01  0.10198077073E+01 0.  0.
     999903    2    3    3    0    0 -0.12623899709E+00 -0.31051973541E-01  0.21659435019E-01  0.13327646430E+00  0.19823606194E-01 0.  0.
         14    1    1    2    0    0  0.19387338345E-01  0.87973552233E-02 -0.10735669614E-01  0.23843593460E-01  0.00000000000E+00 0. -1.
     999901    1    3    3    0    0  0.10685165875E+00  0.22254618318E-01 -0.10923765405E-01  0.88680994224E+00  0.88000000000E+00 0.  1.
        -11    1    4    4    0    0 -0.10351859716E+00 -0.23692361013E-01  0.99175625449E-02  0.10665855379E+00  0.51100000000E-03 0.  1.
         11    1    4    4    0    0 -0.22720399929E-01 -0.73596125289E-02  0.11741872474E-01  0.26617910506E-01  0.51100000000E-03 0. -1.
</event>
<event>
 8    1  0.1122465E+005  0.1043930E+01  0.7957747E-01            NaN
         13   -1    0    0    0    0  0.00000000000E+00  0.00000000000E+00  0.74505805969E-08  0.10566000000E+00  0.10566000000E+00 0. -1.
     999900   -1    0    0    0    0 -0.00000000000E+00 -0.00000000000E+00 -0.74505805969E-08  0.93827000000E+00  0.93827000000E+00 0.  1.
     999902    2    1    2    0    0  0.10575502183E-01  0.10093199581E-01  0.19225815684E-01  0.10197774450E+01  0.10194913886E+01 0.  0.
     999903    2    3    3    0    0 -0.12652015072E+00  0.11797508689E-01 -0.53198930342E-02  0.12882255583E+00  0.20504142991E-01 0.  0.
         14    1    1    2    0    0 -0.10575502183E-01 -0.10093199581E-01 -0.19225815684E-01  0.24152554998E-01  0.00000000000E+00 0. -1.
     999901    1    3    3    0    0  0.13709565291E+00 -0.17043091082E-02  0.24545708718E-01  0.89095488917E+00  0.88000000000E+00 0. -1.
        -11    1    4    4    0    0 -0.15667501908E-01 -0.52699212710E-02 -0.32415172200E-04  0.16537982283E-01  0.51100000000E-03 0. -1.
         11    1    4    4    0    0 -0.11085264881E+00  0.17067429960E-01 -0.52874778620E-02  0.11228457355E+00  0.51100000000E-03 0.  1.
</event>
<event>
 8    1  0.1122465E+005  0.1043930E+01  0.7957747E-01            NaN
         13   -1    0    0    0    0  0.00000000000E+00  0.00000000000E+00  0.74505805969E-08  0.10566000000E+00  0.10566000000E+00 0. -1.
     999900   -1    0    0    0    0 -0.00000000000E+00 -0.00000000000E+00 -0.74505805969E-08  0.93827000000E+00  0.93827000000E+00 0. -1.
     999902    2    1    2    0    0 -0.17928260289E-01  0.99694412472E-02 -0.13481498207E-01  0.10193828399E+01  0.10190872441E+01 0.  0.
     999903    2    3    3    0    0 -0.55824642806E-01 -0.11402189166E+00 -0.17865630758E-01  0.12987218393E+00  0.20741766379E-01 0.  0.
         14    1    1    2    0    0  0.17928260289E-01 -0.99694412472E-02  0.13481498207E-01  0.24547160115E-01  0.00000000000E+00 0. -1.
     999901    1    3    3    0    0  0.37896382517E-01  0.12399133291E+00  0.43841325509E-02  0.88951065596E+00  0.88000000000E+00 0.  1.
        -11    1    4    4    0    0 -0.36849687018E-01 -0.65858904310E-01 -0.11699229105E-02  0.75477973945E-01  0.51100000000E-03 0.  1.
         11    1    4    4    0    0 -0.18974955788E-01 -0.48162987354E-01 -0.16695707848E-01  0.54394209982E-01  0.51100000000E-03 0. -1.
</event>
<event>
 8    1  0.1133662E+005  0.1043930E+01  0.7957747E-01            NaN
         13   -1    0    0    0    0  0.00000000000E+00  0.00000000000E+00  0.74505805969E-08  0.10566000000E+00  0.10566000000E+00 0.  1.
     999900   -1    0    0    0    0 -0.00000000000E+00 -0.00000000000E+00 -0.74505805969E-08  0.93827000000E+00  0.93827000000E+00 0. -1.
     999902    2    1    2    0    0  0.99036776667E-02 -0.19159017584E-01 -0.10888380471E-01  0.10197699583E+01  0.10194837224E+01 0.  0.
     999903    2    3    3    0    0 -0.49381199595E-01 -0.11035346543E+00  0.47225816884E-01  0.13117084512E+00  0.18950530939E-01 0.  0.
         14    1    1    2    0    0 -0.99036776667E-02  0.19159017584E-01  0.10888380471E-01  0.24160041709E-01  0.00000000000E+00 0.  1.
     999901    1    3    3    0    0  0.59284877262E-01  0.91194447850E-01 -0.58114197355E-01  0.88859911317E+00  0.88000000000E+00 0. -1.
        -11    1    4    4    0    0 -0.27959646836E-01 -0.72479591143E-01  0.38838817602E-01  0.86854751495E-01  0.51100000000E-03 0.  1.
         11    1    4    4    0    0 -0.21421552760E-01 -0.37873874290E-01  0.83869992819E-02  0.44316093627E-01  0.51100000000E-03 0. -1.
</event>
<event>
 8    1  0.1122465E+005  0.1043930E+01  0.7957747E-01            NaN
         13   -1    0    0    0    0  0.00000000000E+00  0.00000000000E+00  0.74505805969E-08  0.10566000000E+00  0.10566000000E+00 0. -1.
     999900   -1    0    0    0    0 -0.00000000000E+00 -0.00000000000E+00 -0.74505805969E-08  0.93827000000E+00  0.93827000000E+00 0.  1.
     999902    2    1    2    0    0 -0.86726485837E-03 -0.66240550286E-02 -0.21110681838E-01  0.10217874812E+01  0.10215475346E+01 0.  0.
     999903    2    3    3    0    0 -0.11910159746E+00  0.79606640474E-02  0.47533507490E-01  0.13111127951E+00  0.26118395647E-01 0.  0.
         14    1    1    2    0    0  0.86726485837E-03  0.66240550286E-02  0.21110681838E-01  0.22142518850E-01  0.00000000000E+00 0. -1.
     999901    1    3    3    0    0  0.11823433260E+00 -0.14584719076E-01 -0.68644189328E-01  0.89067620164E+00  0.88000000000E+00 0.  1.
        -11    1    4    4    0    0 -0.63009915520E-01  0.15505604674E-01  0.18377056152E-01  0.67443684240E-01  0.51100000000E-03 0.  1.
         11    1    4    4    0    0 -0.56091681941E-01 -0.75449406262E-02  0.29156451338E-01  0.63667595272E-01  0.51100000000E-03 0. -1.
</event>
<event>
 8    1  0.1122465E+005  0.1043930E+01  0.7957747E-01            NaN
         13   -1    0    0    0    0  0.00000000000E+00  0.00000000000E+00  0.74505805969E-08  0.10566000000E+00  0.10566000000E+00 0.  1.
     999900   -1    0    0    0    0 -0.00000000000E+00 -0.00000000000E+00 -0.74505805969E-08  0.93827000000E+00  0.93827000000E+00 0. -1.
     999902    2    1    2    0    0  0.99372144160E-02 -0.10575650172E-01  0.18868810656E-01  0.10201261217E+01  0.10198483611E+01 0.  0.
     999903    2    3    3    0    0 -0.10235208720E+00 -0.63816972068E-01 -0.42190787893E-01  0.12929965139E+00  0.19742887069E-01 0.  0.
         14    1    1    2    0    0 -0.99372144160E-02  0.10575650172E-01 -0.18868810656E-01  0.23803878307E-01  0.00000000000E+00 0. -1.
     999901    1    3    3    0    0  0.11228930161E+00  0.53241321897E-01  0.61059598548E-01  0.89082647030E+00  0.88000000000E+00 0.  1.
        -11    1    4    4    0    0 -0.13911375424E-01 -0.16785295860E-01 -0.44516756400E-02  0.22256483557E-01  0.51100000000E-03 0. -1.
         11    1    4    4    0    0 -0.88440711771E-01 -0.47031676208E-01 -0.37739112253E-01  0.10704316784E+00  0.51100000000E-03 0.  1.
</event>
<event>
 8    1  0.1122465E+005  0.1043930E+01  0.7957747E-01            NaN
         13   -1    0    0    0    0  0.00000000000E+00  0.00000000000E+00  0.74505805969E-08  0.10566000000E+00  0.10566000000E+00 0.  1.
     999900   -1    0    0    0    0 -0.00000000000E+00 -0.00000000000E+00 -0.74505805969E-08  0.93827000000E+00  0.93827000000E+00 0.  1.
     999902    2    1    2    0    0  0.13590992643E-01  0.94955053389E-02  0.18145679017E-01  0.10193506312E+01  0.10190542498E+01 0.  0.
     999903    2    3    3    0    0  0.92055276765E-01  0.39192048352E-01 -0.81274520426E-01  0.12978730879E+00  0.15132984464E-01 0.  0.
         14    1    1    2    0    0 -0.13590992643E-01 -0.94955053389E-02 -0.18145679017E-01  0.24579368780E-01  0.00000000000E+00 0. -1.
     999901    1    3    3    0    0 -0.78464284122E-01 -0.29696543014E-01  0.99420199443E-01  0.88956332243E+00  0.88000000000E+00 0.  1.
        -11    1    4    4    0    0  0.69617203702E-01  0.25881493778E-01 -0.52576620056E-01  0.90999828950E-01  0.51100000000E-03 0. -1.
         11    1    4    4    0    0  0.22438073063E-01  0.13310554574E-01 -0.28697900371E-01  0.38787479843E-01  0.51100000000E-03 0.  1.
</event>
<event>
 8    1  0.1122465E+005  0.1043930E+01  0.7957747E-01            NaN
         13   -1    0    0    0    0  0.00000000000E+00  0.00000000000E+00  0.74505805969E-08  0.10566000000E+00  0.10566000000E+00 0. -1.
     999900   -1    0    0    0    0 -0.00000000000E+00 -0.00000000000E+00 -0.74505805969E-08  0.93827000000E+00  0.93827000000E+00 0. -1.
     999902    2    1    2    0    0  0.12027575114E-01  0.80172972956E-02 -0.27500449534E-01  0.10128621011E+01  0.10123855103E+01 0.  0.
     999903    2    3    3    0    0 -0.19325564178E-01  0.12066615182E+00 -0.17396733625E-01  0.12506996952E+00  0.20150764515E-01 0.  0.
         14    1    1    2    0    0 -0.12027575114E-01 -0.80172972956E-02  0.27500449534E-01  0.31067898925E-01  0.00000000000E+00 0. -1.
     999901    1    3    3    0    0  0.31353139292E-01 -0.11264885452E+00 -0.10103715909E-01  0.88779213155E+00  0.88000000000E+00 0. -1.
        -11    1    4    4    0    0 -0.37994021039E-02  0.63044459739E-01 -0.95741743141E-03  0.63168165474E-01  0.51100000000E-03 0.  1.
         11    1    4    4    0    0 -0.15526162074E-01  0.57621692079E-01 -0.16439316194E-01  0.61901804050E-01  0.51100000000E-03 0. -1.
</event>
<event>
 8    1  0.1122465E+005  0.1043930E+01  0.7957747E-01            NaN
         13   -1    0    0    0    0  0.00000000000E+00  0.00000000000E+00  0.74505805969E-08  0.10566000000E+00  0.10566000000E+00 0.  1.
     999900   -1    0    0    0    0 -0.00000000000E+00 -0.00000000000E+00 -0.74505805969E-08  0.93827000000E+00  0.93827000000E+00 0. -1.
     999902    2    1    2    0    0  0.22089036797E-01  0.22345727390E-02 -0.85081779436E-02  0.10201537944E+01  0.10198766868E+01 0.  0.
     999903    2    3    3    0    0 -0.10615088058E+00 -0.64726765159E-01  0.21999838292E-01  0.12781975589E+00  0.19908127384E-01 0.  0.
         14    1    1    2    0    0 -0.22089036797E-01 -0.22345727390E-02  0.85081779436E-02  0.23776205624E-01  0.00000000000E+00 0.  1.
     999901    1    3    3    0    0  0.12823991738E+00  0.66961337898E-01 -0.30508016235E-01  0.89233403848E+00  0.88000000000E+00 0.  1.
        -11    1    4    4    0    0 -0.58725148473E-01 -0.38948685576E-01  0.27967467137E-02  0.70524648772E-01  0.51100000000E-03 0.  1.
         11    1    4    4    0    0 -0.47425732106E-01 -0.25778079583E-01  0.19203091578E-01  0.57295107121E-01  0.51100000000E-03 0. -1.
</event>
<event>
 8    1  0.1122465E+005  0.1043930E+01  0.7957747E-01            NaN
         13   -1    0    0    0    0  0.00000000000E+00  0.00000000000E+00  0.74505805969E-08  0.10566000000E+00  0.10566000000E+00 0.  1.
     999900   -1    0    0    0    0 -0.00000000000E+00 -0.00000000000E+00 -0.74505805969E-08  0.93827000000E+00  0.93827000000E+00 0. -1.
     999902    2    1    2    0    0 -0.28064221994E-02 -0.47600972797E-02 -0.22901550743E-01  0.10203712318E+01  0.10200992281E+01 0.  0.
     999903    2    3    3    0    0 -0.10203612387E+00  0.76037005568E-01  0.17722672600E-01  0.13018864772E+00  0.21023655236E-01 0.  0.
         14    1    1    2    0    0  0.28064221994E-02  0.47600972797E-02  0.22901550743E-01  0.23558768179E-01  0.00000000000E+00 0.  1.
     999901    1    3    3    0    0  0.99229701672E-01 -0.80797102848E-01 -0.40624223343E-01  0.89018258411E+00  0.88000000000E+00 0.  1.
        -11    1    4    4    0    0 -0.58222641287E-01  0.30515732452E-01  0.71031905571E-02  0.66119606189E-01  0.51100000000E-03 0. -1.
         11    1    4    4    0    0 -0.43813482584E-01  0.45521273116E-01  0.10619482043E-01  0.64069041527E-01  0.51100000000E-03 0.  1.
</event>
<event>
 8    1  0.1122465E+005  0.1043930E+01  0.7957747E-01            NaN
         13   -1    0    0    0    0  0.00000000000E+00  0.00000000000E+00  0.74505805969E-08  0.10566000000E+00  0.10566000000E+00 0. -1.
     999900   -1    0    0    0    0 -0.00000000000E+00 -0.00000000000E+00 -0.74505805969E-08  0.93827000000E+00  0.93827000000E+00 0. -1.
     999902    2    1    2    0    0  0.14926184039E-01 -0.17057712023E-01 -0.15823632485E-02  0.10212086360E+01  0.10209558354E+01 0.  0.
     999903    2    3    3    0    0  0.11120882259E+00  0.54697523493E-01  0.40880575219E-01  0.13203921374E+00  0.20097543009E-01 0.  0.
         14    1    1    2    0    0 -0.14926184039E-01  0.17057712023E-01  0.15823632485E-02  0.22721364019E-01  0.00000000000E+00 0.  1.
     999901    1    3    3    0    0 -0.96282638555E-01 -0.71755235516E-01 -0.42462938467E-01  0.88916942224E+00  0.88000000000E+00 0. -1.
        -11    1    4    4    0    0  0.97843937318E-01  0.50935242577E-01  0.29787400211E-01  0.11426016514E+00  0.51100000000E-03 0. -1.
         11    1    4    4    0    0  0.13364885276E-01  0.37622809159E-02  0.11093175008E-01  0.17779048593E-01  0.51100000000E-03 0.  1.
</event>
<event>
 8    1  0.1122465E+005  0.1043930E+01  0.7957747E-01            NaN
         13   -1    0    0    0    0  0.00000000000E+00  0.00000000000E+00  0.74505805969E-08  0.10566000000E+00  0.10566000000E+00 0. -1.
     999900   -1    0    0    0    0 -0.00000000000E+00 -0.00000000000E+00 -0.74505805969E-08  0.93827000000E+00  0.93827000000E+00 0. -1.
     999902    2    1    2    0    0  0.30454033054E-02  0.17026608747E-01 -0.15595792696E-01  0.10206403320E+01  0.10203745776E+01 0.  0.
     999903    2    3    3    0    0  0.10329941945E+00 -0.53177648376E-01 -0.57523896155E-01  0.13118124279E+00  0.20022174870E-01 0.  0.
         14    1    1    2    0    0 -0.30454033054E-02 -0.17026608747E-01  0.15595792696E-01  0.23289668021E-01  0.00000000000E+00 0.  1.
     999901    1    3    3    0    0 -0.10025401615E+00  0.70204257124E-01  0.41928103459E-01  0.88945908918E+00  0.88000000000E+00 0.  1.
        -11    1    4    4    0    0  0.58346229714E-01 -0.20139402165E-01 -0.24954010916E-01  0.66579590140E-01  0.51100000000E-03 0. -1.
         11    1    4    4    0    0  0.44953189738E-01 -0.33038246211E-01 -0.32569885239E-01  0.64601652655E-01  0.51100000000E-03 0.  1.
</event>
<event>
 8    1  0.1122465E+005  0.1043930E+01  0.7957747E-01            NaN
         13   -1    0    0    0    0  0.00000000000E+00  0.00000000000E+00  0.74505805969E-08  0.10566000000E+00  0.10566000000E+00 0.  1.
     999900   -1    0    0    0    0 -0.00000000000E+00 -0.00000000000E+00 -0.74505805969E-08  0.93827000000E+00  0.93827000000E+00 0.  1.
     999902    2    1    2    0    0  0.22211978622E-01 -0.76280789117E-02 -0.84386404895E-02  0.10189746351E+01  0.10186690026E+01 0.  0.
     999903    2    3    3    0    0  0.39836916520E-01  0.42842513308E-01  0.11317217937E+00  0.12900434877E+00  0.20290858862E-01 0.  0.
         14    1    1    2    0    0 -0.22211978622E-01  0.76280789117E-02  0.84386404895E-02  0.24955364864E-01  0.00000000000E+00 0.  1.
     999901    1    3    3    0    0 -0.17624937898E-01 -0.50470592219E-01 -0.12161081986E+00  0.88997028637E+00  0.88000000000E+00 0.  1.
        -11    1    4    4    0    0  0.30506944441E-01  0.21756588251E-01  0.82646988268E-01  0.90745846087E-01  0.51100000000E-03 0.  1.
         11    1    4    4    0    0  0.93299720796E-02  0.21085925057E-01  0.30525191100E-01  0.38258502679E-01  0.51100000000E-03 0. -1.
</event>
<event>
 8    1  0.1122465E+005  0.1043930E+01  0.7957747E-01            NaN
         13   -1    0    0    0    0  0.00000000000E+00  0.00000000000E+00  0.74505805969E-08  0.10566000000E+00  0.10566000000E+00 0. -1.
     999900   -1    0    0    0    0 -0.00000000000E+00 -0.00000000000E+00 -0.74505805969E-08  0.93827000000E+00  0.93827000000E+00 0.  1.
     999902    2    1    2    0    0 -0.14276584106E-01 -0.21261736996E-02 -0.17921748916E-01  0.10209184691E+01  0.10206590959E+01 0.  0.
     999903    2    3    3    0    0  0.57537892137E-01  0.27607436707E-03 -0.11766454298E+00  0.13237375177E+00  0.19161947549E-01 0.  0.
         14    1    1    2    0    0  0.14276584106E-01  0.21261736996E-02  0.17921748916E-01  0.23011530860E-01  0.00000000000E+00 0.  1.
     999901    1    3    3    0    0 -0.71814476243E-01 -0.24022480666E-02  0.99742794068E-01  0.88854471737E+00  0.88000000000E+00 0.  1.
        -11    1    4    4    0    0  0.28934691393E-01  0.38725132715E-02 -0.39943501168E-01  0.49476834293E-01  0.51100000000E-03 0.  1.
         11    1    4    4    0    0  0.28603200744E-01 -0.35964389044E-02 -0.77721041816E-01  0.82896917479E-01  0.51100000000E-03 0. -1.
</event>
<event>
 8    1  0.1122465E+005  0.1043930E+01  0.7957747E-01            NaN
         13   -1    0    0    0    0  0.00000000000E+00  0.00000000000E+00  0.74505805969E-08  0.10566000000E+00  0.10566000000E+00 0. -1.
     999900   -1    0    0    0    0 -0.00000000000E+00 -0.00000000000E+00 -0.74505805969E-08  0.93827000000E+00  0.93827000000E+00 0.  1.
     999902    2    1    2    0    0 -0.15849556993E-02 -0.23593130743E-01  0.37703613992E-02  0.10199849895E+01  0.10197038861E+01 0.  0.
     999903    2    3    3    0    0  0.10148737251E+00 -0.62225422980E-01 -0.51786722587E-01  0.13138893480E+00  0.20236044735E-01 0.  0.
         14    1    1    2    0    0  0.15849556993E-02  0.23593130743E-01 -0.37703613992E-02  0.23945010501E-01  0.00000000000E+00 0.  1.
     999901    1    3    3    0    0 -0.10307232821E+00  0.38632292237E-01  0.55557083987E-01  0.88859605470E+00  0.88000000000E+00 0. -1.
        -11    1    4    4    0    0  0.31211651047E-01 -0.23813844905E-01 -0.26628726163E-01  0.47440663447E-01  0.51100000000E-03 0.  1.
         11    1    4    4    0    0  0.70275721467E-01 -0.38411578075E-01 -0.25157996424E-01  0.83948271352E-01  0.51100000000E-03 0. -1.
</event>
<event>
 8    1  0.1122465E+005  0.1043930E+01  0.7957747E-01            NaN
         13   -1    0    0    0    0  0.00000000000E+00  0.00000000000E+00  0.74505805969E-08  0.10566000000E+00  0.10566000000E+00 0. -1.
     999900   -1    0    0    0    0 -0.00000000000E+00 -0.00000000000E+00 -0.74505805969E-08  0.93827000000E+00  0.93827000000E+00 0.  1.
     999902    2    1    2    0    0 -0.10438718883E-01  0.11571887047E-01 -0.17365482981E-01  0.10205968600E+01  0.10203301011E+01 0.  0.
     999903    2    3    3    0    0 -0.96041499449E-01 -0.13248631340E-01 -0.89100585484E-01  0.13319062887E+00  0.20033308153E-01 0.  0.
         14    1    1    2    0    0  0.10438718883E-01 -0.11571887047E-01  0.17365482981E-01  0.23333139971E-01  0.00000000000E+00 0.  1.
     999901    1    3    3    0    0  0.85602780566E-01  0.24820518387E-01  0.71735102503E-01  0.88740623116E+00  0.88000000000E+00 0. -1.
        -11    1    4    4    0    0 -0.49557241574E-01  0.27696791299E-02 -0.40609572383E-01  0.64132595496E-01  0.51100000000E-03 0.  1.
         11    1    4    4    0    0 -0.46484257875E-01 -0.16018310470E-01 -0.48491013101E-01  0.69058033371E-01  0.51100000000E-03 0. -1.
</event>
<event>
 8    1  0.1122465E+005  0.1043930E+01  0.7957747E-01            NaN
         13   -1    0    0    0    0  0.00000000000E+00  0.00000000000E+00  0.74505805969E-08  0.10566000000E+00  0.10566000000E+00 0. -1.
     999900   -1    0    0    0    0 -0.00000000000E+00 -0.00000000000E+00 -0.74505805969E-08  0.93827000000E+00  0.93827000000E+00 0.  1.
     999902    2    1    2    0    0  0.40980961825E-03 -0.14953326372E-01  0.18299064131E-01  0.10202947369E+01  0.10200209432E+01 0.  0.
     999903    2    3    3    0    0 -0.12142728052E+00  0.42198908260E-01  0.85615142450E-02  0.13001080785E+00  0.17440708695E-01 0.  0.
         14    1    1    2    0    0 -0.40980961825E-03  0.14953326372E-01 -0.18299064131E-01  0.23635263095E-01  0.00000000000E+00 0.  1.
     999901    1    3    3    0    0  0.12183709013E+00 -0.57152234631E-01  0.97375498858E-02  0.89028392905E+00  0.88000000000E+00 0.  1.
        -11    1    4    4    0    0 -0.78085760952E-01  0.27102931249E-01  0.13848156046E-01  0.83809232741E-01  0.51100000000E-03 0. -1.
         11    1    4    4    0    0 -0.43341519564E-01  0.15095977011E-01 -0.52866418006E-02  0.46201575109E-01  0.51100000000E-03 0.  1.
</event>
<event>
 8    1  0.1122465E+005  0.1043930E+01  0.7957747E-01            NaN
         13   -1    0    0    0    0  0.00000000000E+00  0.00000000000E+00  0.74505805969E-08  0.10566000000E+00  0.10566000000E+00 0.  1.
     999900   -1    0    0    0    0 -0.00000000000E+00 -0.00000000000E+00 -0.74505805969E-08  0.93827000000E+00  0.93827000000E+00 0.  1.
     999902    2    1    2    0    0  0.11482430842E-01 -0.20022570477E-01 -0.90257882584E-03  0.10208309915E+01  0.10205696198E+01 0.  0.
     999903    2    3    3    0    0  0.51388244002E-01 -0.88879833134E-01  0.82650709428E-01  0.13329792250E+00  0.19920341694E-01 0.  0.
         14    1    1    2    0    0 -0.11482430842E-01  0.20022570477E-01  0.90257882584E-03  0.23099008530E-01  0.00000000000E+00 0.  1.
     999901    1    3    3    0    0 -0.39905813161E-01  0.68857262657E-01 -0.83553288254E-01  0.88753306897E+00  0.88000000000E+00 0.  1.
        -11    1    4    4    0    0  0.24177819533E-01 -0.60596246562E-01  0.54213886229E-01  0.84828524894E-01  0.51100000000E-03 0.  1.
         11    1    4    4    0    0  0.27210424469E-01 -0.28283586572E-01  0.28436823199E-01  0.48469397601E-01  0.51100000000E-03 0. -1.
</event>
<event>
 8    1  0.1122465E+005  0.1043930E+01  0.7957747E-01            NaN
         13   -1    0    0    0    0  0.00000000000E+00  0.00000000000E+00  0.74505805969E-08  0.10566000000E+00  0.10566000000E+00 0. -1.
     999900   -1    0    0    0    0 -0.00000000000E+00 -0.00000000000E+00 -0.74505805969E-08  0.93827000000E+00  0.93827000000E+00 0.  1.
     999902    2    1    2    0    0 -0.15253630488E-01 -0.79377561020E-02  0.19043656232E-01  0.10182718228E+01  0.10179485071E+01 0.  0.
     999903    2    3    3    0    0  0.69691088210E-01 -0.49192319957E-01  0.95797900148E-01  0.12989760084E+00  0.20479670695E-01 0.  0.
         14    1    1    2    0    0  0.15253630488E-01  0.79377561020E-02 -0.19043656232E-01  0.25658177209E-01  0.00000000000E+00 0.  1.
     999901    1    3    3    0    0 -0.84944718698E-01  0.41254563855E-01 -0.76754243916E-01  0.88837422195E+00  0.88000000000E+00 0. -1.
        -11    1    4    4    0    0  0.75002824464E-04 -0.44781560205E-03  0.68189730017E-02  0.68531509567E-02  0.51100000000E-03 0.  1.
         11    1    4    4    0    0  0.69616085386E-01 -0.48744504355E-01  0.88978927146E-01  0.12304444988E+00  0.51100000000E-03 0. -1.
</event>
<event>
 8    1  0.1122465E+005  0.1043930E+01  0.7957747E-01            NaN
         13   -1    0    0    0    0  0.00000000000E+00  0.00000000000E+00  0.74505805969E-08  0.10566000000E+00  0.10566000000E+00 0. -1.
     999900   -1    0    0    0    0 -0.00000000000E+00 -0.00000000000E+00 -0.74505805969E-08  0.93827000000E+00  0.93827000000E+00 0. -1.
     999902    2    1    2    0    0  0.48723330962E-02  0.23118473928E-01  0.12285464905E-01  0.10173003903E+01  0.10169517923E+01 0.  0.
     999903    2    3    3    0    0 -0.86759974329E-01  0.51468994422E-01  0.78831655783E-01  0.12959062503E+00  0.20073604806E-01 0.  0.
         14    1    1    2    0    0 -0.48723330962E-02 -0.23118473928E-01 -0.12285464905E-01  0.26629609732E-01  0.00000000000E+00 0. -1.
     999901    1    3    3    0    0  0.91632307426E-01 -0.28350520495E-01 -0.66546190878E-01  0.88770976524E+00  0.88000000000E+00 0. -1.
        -11    1    4    4    0    0 -0.31685720736E-01  0.79853061017E-02  0.25440597111E-01  0.41415397070E-01  0.51100000000E-03 0.  1.
         11    1    4    4    0    0 -0.55074253594E-01  0.43483688321E-01  0.53391058672E-01  0.88175227961E-01  0.51100000000E-03 0. -1.
</event>
<event>
 8    1  0.1122465E+005  0.1043930E+01  0.7957747E-01            NaN
         13   -1    0    0    0    0  0.00000000000E+00  0.00000000000E+00  0.74505805969E-08  0.10566000000E+00  0.10566000000E+00 0. -1.
     999900   -1    0    0    0    0 -0.00000000000E+00 -0.00000000000E+00 -0.74505805969E-08  0.93827000000E+00  0.93827000000E+00 0. -1.
     999902    2    1    2    0    0 -0.92117962354E-02  0.13284840365E-01  0.17052696688E-01  0.10204323695E+01  0.10201617921E+01 0.  0.
     999903    2    3    3    0    0 -0.10779662134E+00 -0.70522141545E-01  0.12671751225E-01  0.13095962085E+00  0.19908917473E-01 0.  0.
         14    1    1    2    0    0  0.92117962354E-02 -0.13284840365E-01 -0.17052696688E-01  0.23497630471E-01  0.00000000000E+00 0. -1.
     999901    1    3    3    0    0  0.98584825101E-01  0.83806981910E-01  0.43809454628E-02  0.88947274868E+00  0.88000000000E+00 0.  1.
        -11    1    4    4    0    0 -0.60239421341E-01 -0.49738146858E-01  0.12104761243E-01  0.79053510372E-01  0.51100000000E-03 0. -1.
         11    1    4    4    0    0 -0.47557199995E-01 -0.20783994688E-01  0.56698998241E-03  0.51906110480E-01  0.51100000000E-03 0.  1.
</event>
<event>
 8    1  0.1122465E+005  0.1043930E+01  0.7957747E-01            NaN
         13   -1    0    0    0    0  0.00000000000E+00  0.00000000000E+00  0.74505805969E-08  0.10566000000E+00  0.10566000000E+00 0. -1.
     999900   -1    0    0    0    0 -0.00000000000E+00 -0.00000000000E+00 -0.74505805969E-08  0.93827000000E+00  0.93827000000E+00 0.  1.
     999902    2    1    2    0    0  0.14107500062E-01 -0.12726663153E-02  0.19622802240E-01  0.10197288512E+01  0.10194416287E+01 0.  0.
     999903    2    3    3    0    0  0.79775135976E-01 -0.96144803211E-02 -0.99312813143E-01  0.12926408213E+00  0.19739744769E-01 0.  0.
         14    1    1    2    0    0 -0.14107500062E-01  0.12726663153E-02 -0.19622802240E-01  0.24201148842E-01  0.00000000000E+00 0.  1.
     999901    1    3    3    0    0 -0.65667635914E-01  0.83418140058E-02  0.11893561538E+00  0.89046476902E+00  0.88000000000E+00 0. -1.
        -11    1    4    4    0    0  0.29272114839E-01 -0.24165797647E-02 -0.22277916334E-01  0.36868187399E-01  0.51100000000E-03 0. -1.
         11    1    4    4    0    0  0.50503021138E-01 -0.71979005564E-02 -0.77034896809E-01  0.92395894734E-01  0.51100000000E-03 0.  1.
</event>
<event>
 8    1  0.1122465E+005  0.1043930E+01  0.7957747E-01            NaN
         13   -1    0    0    0    0  0.00000000000E+00  0.00000000000E+00  0.74505805969E-08  0.10566000000E+00  0.10566000000E+00 0. -1.
     999900   -1    0    0    0    0 -0.00000000000E+00 -0.00000000000E+00 -0.74505805969E-08  0.93827000000E+00  0.93827000000E+00 0.  1.
     999902    2    1    2    0    0 -0.20185894446E-02  0.18420744304E-01 -0.13465231690E-01  0.10210234291E+01  0.10207664433E+01 0.  0.
     999903    2    3    3    0    0  0.48974894426E-01  0.86812286223E-01  0.83637415064E-01  0.13158165903E+00  0.19585772193E-01 0.  0.
         14    1    1    2    0    0  0.20185894446E-02 -0.18420744304E-01  0.13465231690E-01  0.22906570859E-01  0.00000000000E+00 0. -1.
     999901    1    3    3    0    0 -0.50993483870E-01 -0.68391541918E-01 -0.97102646754E-01  0.88944177011E+00  0.88000000000E+00 0.  1.
        -11    1    4    4    0    0  0.47743446323E-01  0.70500240629E-01  0.68359836187E-01  0.10919271459E+00  0.51100000000E-03 0. -1.
         11    1    4    4    0    0  0.12314481030E-02  0.16312045594E-01  0.15277578877E-01  0.22388944442E-01  0.51100000000E-03 0.  1.
</event>
<event>
 8    1  0.1122465E+005  0.1043930E+01  0.7957747E-01            NaN
         13   -1    0    0    0    0  0.00000000000E+00  0.00000000000E+00  0.74505805969E-08  0.10566000000E+00  0.10566000000E+00 0. -1.
     999900   -1    0    0    0    0 -0.00000000000E+00 -0.00000000000E+00 -0.74505805969E-08  0.93827000000E+00  0.93827000000E+00 0. -1.
     999902    2    1    2    0    0  0.83695567080E-02  0.21896041127E-01 -0.57512655410E-02  0.10197936550E+01  0.10195079870E+01 0.  0.
     999903    2    3    3    0    0 -0.11932067377E-01 -0.12314880814E+00 -0.26118650205E-01  0.12745683817E+00  0.15970551995E-01 0.  0.
         14    1    1    2    0    0 -0.83695567080E-02 -0.21896041127E-01  0.57512655410E-02  0.24136345040E-01  0.00000000000E+00 0.  1.
     999901    1    3    3    0    0  0.20301624085E-01  0.14504484926E+00  0.20367384664E-01  0.89233681679E+00  0.88000000000E+00 0.  1.
        -11    1    4    4    0    0  0.15728045329E-02 -0.66127226167E-01 -0.13417453363E-01  0.67494984484E-01  0.51100000000E-03 0.  1.
         11    1    4    4    0    0 -0.13504871910E-01 -0.57021581969E-01 -0.12701196842E-01  0.59961853688E-01  0.51100000000E-03 0. -1.
</event>
<event>
 8    1  0.1122465E+005  0.1043930E+01  0.7957747E-01            NaN
         13   -1    0    0    0    0  0.00000000000E+00  0.00000000000E+00  0.74505805969E-08  0.10566000000E+00  0.10566000000E+00 0. -1.
     999900   -1    0    0    0    0 -0.00000000000E+00 -0.00000000000E+00 -0.74505805969E-08  0.93827000000E+00  0.93827000000E+00 0. -1.
     999902    2    1    2    0    0  0.13649211944E-01  0.53896629826E-02  0.24184223653E-02  0.10290572659E+01  0.10289497841E+01 0.  0.
     999903    2    3    3    0    0  0.10519600936E+00 -0.74674063019E-01 -0.48383654815E-01  0.13924162913E+00  0.20120565502E-01 0.  0.
         14    1    1    2    0    0 -0.13649211944E-01 -0.53896629826E-02 -0.24184223653E-02  0.14872734130E-01  0.00000000000E+00 0.  1.
     999901    1    3    3    0    0 -0.91546797420E-01  0.80063726002E-01  0.50802077180E-01  0.88981563674E+00  0.88000000000E+00 0.  1.
        -11    1    4    4    0    0  0.47542803117E-01 -0.38103121431E-01 -0.12839622802E-01  0.62267832993E-01  0.51100000000E-03 0. -1.
         11    1    4    4    0    0  0.57653206247E-01 -0.36570941588E-01 -0.35544032013E-01  0.76973796138E-01  0.51100000000E-03 0.  1.
</event>
<event>
 8    1  0.1122465E+005  0.1043930E+01  0.7957747E-01            NaN
         13   -1    0    0    0    0  0.00000000000E+00  0.00000000000E+00  0.74505805969E-08  0.10566000000E+00  0.10566000000E+00 0.  1.
     999900   -1    0    0    0    0 -0.00000000000E+00 -0.00000000000E+00 -0.74505805969E-08  0.93827000000E+00  0.93827000000E+00 0. -1.
     999902    2    1    2    0    0 -0.52400249590E-02  0.51688859670E-03  0.19962965778E-01  0.10232842973E+01  0.10230760031E+01 0.  0.
     999903    2    3    3    0    0 -0.38325868949E-01 -0.18881527713E-01  0.12737133862E+00  0.13592443225E+00  0.20654516692E-01 0.  0.
         14    1    1    2    0    0  0.52400249590E-02 -0.51688859670E-03 -0.19962965778E-01  0.20645702653E-01  0.00000000000E+00 0. -1.
     999901    1    3    3    0    0  0.33085843990E-01  0.19398416310E-01 -0.10740837285E+00  0.88735986510E+00  0.88000000000E+00 0. -1.
        -11    1    4    4    0    0 -0.18552528955E-01 -0.70383571058E-02  0.30820150378E-01  0.36658936041E-01  0.51100000000E-03 0.  1.
         11    1    4    4    0    0 -0.19773339994E-01 -0.11843170607E-01  0.96551188247E-01  0.99265496208E-01  0.51100000000E-03 0. -1.
</event>
<event>
 8    1  0.1122465E+005  0.1043930E+01  0.7957747E-01            NaN
         13   -1    0    0    0    0  0.00000000000E+00  0.00000000000E+00  0.74505805969E-08  0.10566000000E+00  0.10566000000E+00 0. -1.
     999900   -1    0    0    0    0 -0.00000000000E+00 -0.00000000000E+00 -0.74505805969E-08  0.93827000000E+00  0.93827000000E+00 0.  1.
     999902    2    1    2    0    0 -0.53554153511E-02 -0.68330710217E-02 -0.23659273255E-01  0.10187281639E+01  0.10184163880E+01 0.  0.
     999903    2    3    3    0    0 -0.48826595237E-01 -0.23177147088E-01 -0.11911627902E+00  0.13234849790E+00  0.20154910581E-01 0.  0.
         14    1    1    2    0    0  0.53554153511E-02  0.68330710217E-02  0.23659273255E-01  0.25201836126E-01  0.00000000000E+00 0. -1.
     999901    1    3    3    0    0  0.43471179886E-01  0.16344076066E-01  0.95457005761E-01  0.88637966597E+00  0.88000000000E+00 0. -1.
        -11    1    4    4    0    0 -0.32273710067E-01 -0.21761847156E-01 -0.65291803100E-01  0.76016123462E-01  0.51100000000E-03 0. -1.
         11    1    4    4    0    0 -0.16552885170E-01 -0.14152999319E-02 -0.53824475915E-01  0.56332374439E-01  0.51100000000E-03 0.  1.
</event>
<event>
 8    1  0.1122465E+005  0.1043930E+01  0.7957747E-01            NaN
         13   -1    0    0    0    0  0.00000000000E+00  0.00000000000E+00  0.74505805969E-08  0.10566000000E+00  0.10566000000E+00 0. -1.
     999900   -1    0    0    0    0 -0.00000000000E+00 -0.00000000000E+00 -0.74505805969E-08  0.93827000000E+00  0.93827000000E+00 0.  1.
     999902    2    1    2    0    0  0.20159170843E-01 -0.94522223882E-02  0.59455690349E-02  0.10208846866E+01  0.10206245426E+01 0.  0.
     999903    2    3    3    0    0 -0.11289257212E+00 -0.36022582721E-01 -0.46895370563E-01  0.12892004874E+00  0.19463912283E-01 0.  0.
         14    1    1    2    0    0 -0.20159170843E-01  0.94522223882E-02 -0.59455690349E-02  0.23045313370E-01  0.00000000000E+00 0.  1.
     999901    1    3    3    0    0  0.13305174296E+00  0.26570360332E-01  0.52840939598E-01  0.89196463789E+00  0.88000000000E+00 0.  1.
        -11    1    4    4    0    0 -0.94162484133E-01 -0.34201362338E-01 -0.32844795410E-01  0.10542935222E+00  0.51100000000E-03 0.  1.
         11    1    4    4    0    0 -0.18730087983E-01 -0.18212203826E-02 -0.14050575154E-01  0.23490696513E-01  0.51100000000E-03 0. -1.
</event>
<event>
 8    1  0.1122465E+005  0.1043930E+01  0.7957747E-01            NaN
         13   -1    0    0    0    0  0.00000000000E+00  0.00000000000E+00  0.74505805969E-08  0.10566000000E+00  0.10566000000E+00 0. -1.
     999900   -1    0    0    0    0 -0.00000000000E+00 -0.00000000000E+00 -0.74505805969E-08  0.93827000000E+00  0.93827000000E+00 0.  1.
     999902    2    1    2    0    0  0.44036772931E-02 -0.32599339705E-01 -0.16588742658E-01  0.10070885057E+01  0.10064144089E+01 0.  0.
     999903    2    3    3    0    0  0.73206891745E-01 -0.90053319427E-01  0.29925975673E-01  0.12131287880E+00  0.18772352104E-01 0.  0.
         14    1    1    2    0    0 -0.44036772931E-02  0.32599339705E-01  0.16588742658E-01  0.36841494350E-01  0.00000000000E+00 0.  1.
     999901    1    3    3    0    0 -0.68803214452E-01  0.57453979722E-01 -0.46514718331E-01  0.88577562685E+00  0.88000000000E+00 0.  1.
        -11    1    4    4    0    0  0.19179545927E-01 -0.13761536827E-01  0.17643286358E-02  0.23677180033E-01  0.51100000000E-03 0. -1.
         11    1    4    4    0    0  0.54027345818E-01 -0.76291782600E-01  0.28161647037E-01  0.97635698765E-01  0.51100000000E-03 0.  1.
</event>
<event>
 8    1  0.1122465E+005  0.1043930E+01  0.7957747E-01            NaN
         13   -1    0    0    0    0  0.00000000000E+00  0.00000000000E+00  0.74505805969E-08  0.10566000000E+00  0.10566000000E+00 0.  1.
     999900   -1    0    0    0    0 -0.00000000000E+00 -0.00000000000E+00 -0.74505805969E-08  0.93827000000E+00  0.93827000000E+00 0.  1.
     999902    2    1    2    0    0 -0.34510491403E-02 -0.27651102930E-02  0.23457158670E-01  0.10200596446E+01  0.10197803119E+01 0.  0.
     999903    2    3    3    0    0  0.30933012555E-01  0.76661256834E-01  0.10145607091E+00  0.13238028704E+00  0.19935057201E-01 0.  0.
         14    1    1    2    0    0  0.34510491403E-02  0.27651102930E-02 -0.23457158670E-01  0.23870355422E-01  0.00000000000E+00 0. -1.
     999901    1    3    3    0    0 -0.34384061695E-01 -0.79426367127E-01 -0.77998912244E-01  0.88767935754E+00  0.88000000000E+00 0.  1.
        -11    1    4    4    0    0  0.69820452379E-02  0.43671565712E-01  0.50841765736E-01  0.67387690802E-01  0.51100000000E-03 0. -1.
         11    1    4    4    0    0  0.23950967317E-01  0.32989691122E-01  0.50614305178E-01  0.64992596235E-01  0.51100000000E-03 0.  1.
</event>
<event>
 8    1  0.1122465E+005  0.1043930E+01  0.7957747E-01            NaN
         13   -1    0    0    0    0  0.00000000000E+00  0.00000000000E+00  0.74505805969E-08  0.10566000000E+00  0.10566000000E+00 0.  1.
     999900   -1    0    0    0    0 -0.00000000000E+00 -0.00000000000E+00 -0.74505805969E-08  0.93827000000E+00  0.93827000000E+00 0.  1.
     999902    2    1    2    0    0 -0.12808464492E-01  0.17189395988E-02  0.19980221516E-01  0.10201346062E+01  0.10198570458E+01 0.  0.
     999903    2    3    3    0    0 -0.70674644006E-01 -0.55541446897E-01 -0.90946413611E-01  0.12944275992E+00  0.20110204299E-01 0.  0.
         14    1    1    2    0    0  0.12808464492E-01 -0.17189395988E-02 -0.19980221516E-01  0.23795393836E-01  0.00000000000E+00 0. -1.
     999901    1    3    3    0    0  0.57866179514E-01  0.57260386496E-01  0.11092663513E+00  0.89069184625E+00  0.88000000000E+00 0. -1.
        -11    1    4    4    0    0 -0.34012531287E-01 -0.16914929187E-01 -0.29294268778E-01  0.47972725774E-01  0.51100000000E-03 0. -1.
         11    1    4    4    0    0 -0.36662112719E-01 -0.38626517711E-01 -0.61652144833E-01  0.81470034141E-01  0.51100000000E-03 0.  1.
</event>
<event>
 8    1  0.1122465E+005  0.1043930E+01  0.7957747E-01            NaN
         13   -1    0    0    0    0  0.00000000000E+00  0.00000000000E+00  0.74505805969E-08  0.10566000000E+00  0.10566000000E+00 0.  1.
     999900   -1    0    0    0    0 -0.00000000000E+00 -0.00000000000E+00 -0.74505805969E-08  0.93827000000E+00  0.93827000000E+00 0.  1.
     999902    2    1    2    0    0 -0.22071114858E-01  0.12153081180E-02  0.73718085023E-02  0.10206286128E+01  0.10203625878E+01 0.  0.
     999903    2    3    3    0    0 -0.11098524550E+00  0.37918424413E-02 -0.69958636299E-01  0.13277031394E+00  0.20041024983E-01 0.  0.
         14    1    1    2    0    0  0.22071114858E-01 -0.12153081180E-02 -0.73718085023E-02  0.23301387201E-01  0.00000000000E+00 0.  1.
     999901    1    3    3    0    0  0.88914130647E-01 -0.25765343234E-02  0.77330444801E-01  0.88785829886E+00  0.88000000000E+00 0. -1.
        -11    1    4    4    0    0 -0.52583747584E-01 -0.55798182621E-02 -0.25114551546E-01  0.58542178830E-01  0.51100000000E-03 0.  1.
         11    1    4    4    0    0 -0.58401497921E-01  0.93716607035E-02 -0.44844084753E-01  0.74228135111E-01  0.51100000000E-03 0. -1.
</event>
<event>
 8    1  0.1122465E+005  0.1043930E+01  0.7957747E-01            NaN
         13   -1    0    0    0    0  0.00000000000E+00  0.00000000000E+00  0.74505805969E-08  0.10566000000E+00  0.10566000000E+00 0. -1.
     999900   -1    0    0    0    0 -0.00000000000E+00 -0.00000000000E+00 -0.74505805969E-08  0.93827000000E+00  0.93827000000E+00 0.  1.
     999902    2    1    2    0    0 -0.15652314630E-01  0.59054138571E-03  0.59621527836E-02  0.10271701981E+01  0.10270334586E+01 0.  0.
     999903    2    3    3    0    0  0.97958000771E-01  0.32884621350E-02 -0.90156252550E-01  0.13467183378E+00  0.20044177280E-01 0.  0.
         14    1    1    2    0    0  0.15652314630E-01 -0.59054138571E-03 -0.59621527836E-02  0.16759801855E-01  0.00000000000E+00 0.  1.
     999901    1    3    3    0    0 -0.11361031540E+00 -0.26979207493E-02  0.96118405333E-01  0.89249836436E+00  0.88000000000E+00 0. -1.
        -11    1    4    4    0    0  0.37467657135E-02  0.21951629190E-02 -0.10205356264E-01  0.11102585781E-01  0.51100000000E-03 0. -1.
         11    1    4    4    0    0  0.94211235058E-01  0.10932992159E-02 -0.79950896286E-01  0.12356924800E+00  0.51100000000E-03 0.  1.
</event>
<event>
 8    1  0.1122465E+005  0.1043930E+01  0.7957747E-01            NaN
         13   -1    0    0    0    0  0.00000000000E+00  0.00000000000E+00  0.74505805969E-08  0.10566000000E+00  0.10566000000E+00 0. -1.
     999900   -1    0    0    0    0 -0.00000000000E+00 -0.00000000000E+00 -0.74505805969E-08  0.93827000000E+00  0.93827000000E+00 0.  1.
     999902    2    1    2    0    0 -0.17335022950E-01  0.12839388938E-01 -0.71335520519E-02  0.10212090737E+01  0.10209562829E+01 0.  0.
     999903    2    3    3    0    0 -0.93118646270E-01  0.89399600155E-01 -0.31815122322E-01  0.13429656195E+00  0.18973501347E-01 0.  0.
         14    1    1    2    0    0  0.17335022950E-01 -0.12839388938E-01  0.71335520519E-02  0.22720926342E-01  0.00000000000E+00 0.  1.
     999901    1    3    3    0    0  0.75783623320E-01 -0.76560211217E-01  0.24681570270E-01  0.88691251170E+00  0.88000000000E+00 0. -1.
        -11    1    4    4    0    0 -0.33870973600E-01  0.24240182366E-01 -0.16997247845E-01  0.44988852498E-01  0.51100000000E-03 0. -1.
         11    1    4    4    0    0 -0.59247672670E-01  0.65159417789E-01 -0.14817874478E-01  0.89307709457E-01  0.51100000000E-03 0.  1.
</event>
<event>
 8    1  0.1122465E+005  0.1043930E+01  0.7957747E-01            NaN
         13   -1    0    0    0    0  0.00000000000E+00  0.00000000000E+00  0.74505805969E-08  0.10566000000E+00  0.10566000000E+00 0. -1.
     999900   -1    0    0    0    0 -0.00000000000E+00 -0.00000000000E+00 -0.74505805969E-08  0.93827000000E+00  0.93827000000E+00 0.  1.
     999902    2    1    2    0    0  0.98973957769E-02  0.66289864435E-02 -0.19940435635E-01  0.10207023682E+01  0.10204380440E+01 0.  0.
     999903    2    3    3    0    0  0.29558642159E-01  0.10935493575E+00 -0.67374543394E-01  0.13324015503E+00  0.19529324519E-01 0.  0.
         14    1    1    2    0    0 -0.98973957769E-02 -0.66289864435E-02  0.19940435635E-01  0.23227631772E-01  0.00000000000E+00 0. -1.
     999901    1    3    3    0    0 -0.19661246382E-01 -0.10272594931E+00  0.47434107759E-01  0.88746221320E+00  0.88000000000E+00 0. -1.
        -11    1    4    4    0    0  0.23982089624E-01  0.51632770224E-01 -0.34751660177E-01  0.66700993919E-01  0.51100000000E-03 0. -1.
         11    1    4    4    0    0  0.55765525350E-02  0.57722165527E-01 -0.32622883217E-01  0.66539161113E-01  0.51100000000E-03 0.  1.
</event>
<event>
 8    1  0.1122465E+005  0.1043930E+01  0.7957747E-01            NaN
         13   -1    0    0    0    0  0.00000000000E+00  0.00000000000E+00  0.74505805969E-08  0.10566000000E+00  0.10566000000E+00 0.  1.
     999900   -1    0    0    0    0 -0.00000000000E+00 -0.00000000000E+00 -0.74505805969E-08  0.93827000000E+00  0.93827000000E+00 0.  1.
     999902    2    1    2    0    0 -0.67895208273E-02 -0.21754697346E-01  0.54912278545E-02  0.10204881990E+01  0.10202189208E+01 0.  0.
     999903    2    3    3    0    0  0.69440709492E-01 -0.72285705595E-01 -0.82561472314E-01  0.13137757103E+00  0.19910652681E-01 0.  0.
         14    1    1    2    0    0  0.67895208273E-02  0.21754697346E-01 -0.54912278545E-02  0.23441800977E-01  0.00000000000E+00 0.  1.
     999901    1    3    3    0    0 -0.76230230320E-01  0.50531008248E-01  0.88052700168E-01  0.88911062800E+00  0.88000000000E+00 0. -1.
        -11    1    4    4    0    0  0.16385458793E-02 -0.80304520493E-02 -0.32342520850E-02  0.88257860989E-02  0.51100000000E-03 0.  1.
         11    1    4    4    0    0  0.67802163613E-01 -0.64255253545E-01 -0.79327220229E-01  0.12255178493E+00  0.51100000000E-03 0. -1.
</event>
<event>
 8    1  0.1122465E+005  0.1043930E+01  0.7957747E-01            NaN
         13   -1    0    0    0    0  0.00000000000E+00  0.00000000000E+00  0.74505805969E-08  0.10566000000E+00  0.10566000000E+00 0. -1.
     999900   -1    0    0    0    0 -0.00000000000E+00 -0.00000000000E+00 -0.74505805969E-08  0.93827000000E+00  0.93827000000E+00 0.  1.
     999902    2    1    2    0    0 -0.10181382717E-01 -0.24397188664E-01  0.28818067025E-02  0.10173369900E+01  0.10169893623E+01 0.  0.
     999903    2    3    3    0    0 -0.34003742824E-01  0.31204266995E-02  0.12244346459E+00  0.12850645837E+00  0.18855138149E-01 0.  0.
         14    1    1    2    0    0  0.10181382717E-01  0.24397188664E-01 -0.28818067025E-02  0.26593009957E-01  0.00000000000E+00 0.  1.
     999901    1    3    3    0    0  0.23822360107E-01 -0.27517615363E-01 -0.11956165788E+00  0.88883053167E+00  0.88000000000E+00 0.  1.
        -11    1    4    4    0    0 -0.18016202849E-01  0.66529258051E-02  0.39060407786E-01  0.43529548175E-01  0.51100000000E-03 0. -1.
         11    1    4    4    0    0 -0.15987539975E-01 -0.35324991056E-02  0.83383056799E-01  0.84976910196E-01  0.51100000000E-03 0.  1.
</event>
<event>
 8    1  0.1122465E+005  0.1043930E+01  0.7957747E-01            NaN
         13   -1    0    0    0    0  0.00000000000E+00  0.00000000000E+00  0.74505805969E-08  0.10566000000E+00  0.10566000000E+00 0. -1.
     999900   -1    0    0    0    0 -0.00000000000E+00 -0.00000000000E+00 -0.74505805969E-08  0.93827000000E+00  0.93827000000E+00 0.  1.
     999902    2    1    2    0    0 -0.77426444410E-02  0.16419289849E-01  0.15129754544E-01  0.10202984301E+01  0.10200247229E+01 0.  0.
     999903    2    3    3    0    0 -0.90306436813E-01 -0.84516261028E-01 -0.32809772236E-01  0.12939834400E+00  0.19214561318E-01 0.  0.
         14    1    1    2    0    0  0.77426444410E-02 -0.16419289849E-01 -0.15129754544E-01  0.23631569872E-01  0.00000000000E+00 0.  1.
     999901    1    3    3    0    0  0.82563792372E-01  0.10093555088E+00  0.47939526780E-01  0.89090008613E+00  0.88000000000E+00 0. -1.
        -11    1    4    4    0    0 -0.43699158109E-01 -0.30845285667E-01 -0.20340546030E-01  0.57228026361E-01  0.51100000000E-03 0. -1.
         11    1    4    4    0    0 -0.46607278704E-01 -0.53670975361E-01 -0.12469226206E-01  0.72170317635E-01  0.51100000000E-03 0.  1.
</event>
<event>
 8    1  0.1122465E+005  0.1043930E+01  0.7957747E-01            NaN
         13   -1    0    0    0    0  0.00000000000E+00  0.00000000000E+00  0.74505805969E-08  0.10566000000E+00  0.10566000000E+00 0. -1.
     999900   -1    0    0    0    0 -0.00000000000E+00 -0.00000000000E+00 -0.74505805969E-08  0.93827000000E+00  0.93827000000E+00 0.  1.
     999902    2    1    2    0    0  0.67207706313E-03 -0.12226019372E-01 -0.20478706528E-01  0.10200698940E+01  0.10197908040E+01 0.  0.
     999903    2    3    3    0    0 -0.95031287076E-01  0.82764314696E-01 -0.23660591026E-01  0.12979329549E+00  0.20139480500E-01 0.  0.
         14    1    1    2    0    0 -0.67207706313E-03  0.12226019372E-01  0.20478706528E-01  0.23860106000E-01  0.00000000000E+00 0. -1.
     999901    1    3    3    0    0  0.95703364139E-01 -0.94990334069E-01  0.31818844978E-02  0.89027659851E+00  0.88000000000E+00 0.  1.
        -11    1    4    4    0    0 -0.33061548991E-01  0.39018114754E-01 -0.15806018988E-01  0.53531025190E-01  0.51100000000E-03 0. -1.
         11    1    4    4    0    0 -0.61969738085E-01  0.43746199943E-01 -0.78545720378E-02  0.76262270296E-01  0.51100000000E-03 0.  1.
</event>
<event>
 7    1  0.1122465E+005  0.1043930E+01  0.7957747E-01            NaN
         13   -1    0    0    0    0  0.00000000000E+00  0.00000000000E+00  0.74505805969E-08  0.10566000000E+00  0.10566000000E+00 0.  1.
     999900   -1    0    0    0    0 -0.00000000000E+00 -0.00000000000E+00 -0.74505805969E-08  0.93827000000E+00  0.93827000000E+00 0.  1.
     999903    2    1    2    0    0  0.35481579316E-01 -0.67489795629E-01 -0.18487618635E-01  0.80977318721E-01  0.20042931909E-01 0.  0.
         14    1    1    2    0    0  0.24123262443E-01 -0.56290290485E-01 -0.35271067635E-01  0.70672319941E-01  0.00000000000E+00 0. -1.
     999901    1    1    2    0    0 -0.59604841759E-01  0.12378008611E+00  0.53758686270E-01  0.89228036134E+00  0.88000000000E+00 0. -1.
        -11    1    3    3    0    0  0.28723772051E-01 -0.65748790361E-01 -0.17933240630E-01  0.73958236561E-01  0.51100000000E-03 0.  1.
         11    1    3    3    0    0  0.67578072659E-02 -0.17410052681E-02 -0.55437800525E-03  0.70190821593E-02  0.51100000000E-03 0. -1.
</event>
<event>
 8    1  0.1122465E+005  0.1043930E+01  0.7957747E-01            NaN
         13   -1    0    0    0    0  0.00000000000E+00  0.00000000000E+00  0.74505805969E-08  0.10566000000E+00  0.10566000000E+00 0. -1.
     999900   -1    0    0    0    0 -0.00000000000E+00 -0.00000000000E+00 -0.74505805969E-08  0.93827000000E+00  0.93827000000E+00 0. -1.
     999902    2    1    2    0    0 -0.22414493728E-01 -0.54874132705E-02  0.66617912408E-02  0.10199112428E+01  0.10196283845E+01 0.  0.
     999903    2    3    3    0    0 -0.10712470722E+00 -0.75516658065E-01  0.12346804943E-01  0.13305599265E+00  0.19312820712E-01 0.  0.
         14    1    1    2    0    0  0.22414493728E-01  0.54874132705E-02 -0.66617912408E-02  0.24018757171E-01  0.00000000000E+00 0.  1.
     999901    1    3    3    0    0  0.84710213495E-01  0.70029244794E-01 -0.56850137020E-02  0.88685525018E+00  0.88000000000E+00 0.  1.
        -11    1    4    4    0    0 -0.46572724965E-01 -0.33545436972E-01 -0.41702753262E-02  0.57549694782E-01  0.51100000000E-03 0. -1.
         11    1    4    4    0    0 -0.60551982259E-01 -0.41971221093E-01  0.16517080269E-01  0.75506297864E-01  0.51100000000E-03 0.  1.
</event>
<event>
 8    1  0.1122465E+005  0.1043930E+01  0.7957747E-01            NaN
         13   -1    0    0    0    0  0.00000000000E+00  0.00000000000E+00  0.74505805969E-08  0.10566000000E+00  0.10566000000E+00 0.  1.
     999900   -1    0    0    0    0 -0.00000000000E+00 -0.00000000000E+00 -0.74505805969E-08  0.93827000000E+00  0.93827000000E+00 0. -1.
     999902    2    1    2    0    0  0.23404474700E-01  0.53960235899E-02  0.14840592654E-02  0.10198657332E+01  0.10195817891E+01 0.  0.
     999903    2    3    3    0    0  0.41924533007E-01  0.12332949798E+00 -0.37544918646E-02  0.13178986965E+00  0.19663214175E-01 0.  0.
         14    1    1    2    0    0 -0.23404474700E-01 -0.53960235899E-02 -0.14840592654E-02  0.24064266838E-01  0.00000000000E+00 0.  1.
     999901    1    3    3    0    0 -0.18520058307E-01 -0.11793347439E+00  0.52385511300E-02  0.88807586352E+00  0.88000000000E+00 0.  1.
        -11    1    4    4    0    0  0.26320817709E-01  0.50277910276E-01  0.26475322896E-02  0.56814824252E-01  0.51100000000E-03 0.  1.
         11    1    4    4    0    0  0.15603715298E-01  0.73051587706E-01 -0.64020241542E-02  0.74975045393E-01  0.51100000000E-03 0. -1.
</event>
<event>
 8    1  0.1122465E+005  0.1043930E+01  0.7957747E-01            NaN
         13   -1    0    0    0    0  0.00000000000E+00  0.00000000000E+00  0.74505805969E-08  0.10566000000E+00  0.10566000000E+00 0. -1.
     999900   -1    0    0    0    0 -0.00000000000E+00 -0.00000000000E+00 -0.74505805969E-08  0.93827000000E+00  0.93827000000E+00 0. -1.
     999902    2    1    2    0    0 -0.92244487916E-02 -0.20280640846E-01  0.81338035438E-02  0.10202117874E+01  0.10199360458E+01 0.  0.
     999903    2    3    3    0    0  0.12634851695E+00 -0.21811337547E-01  0.70612466695E-03  0.12979753410E+00  0.20179669602E-01 0.  0.
         14    1    1    2    0    0  0.92244487916E-02  0.20280640846E-01 -0.81338035438E-02  0.23718212595E-01  0.00000000000E+00 0.  1.
     999901    1    3    3    0    0 -0.13557296574E+00  0.15306967014E-02  0.74276788769E-02  0.89041425330E+00  0.88000000000E+00 0.  1.
        -11    1    4    4    0    0  0.34341492229E-01 -0.17279731425E-02 -0.77261418132E-02  0.35245969529E-01  0.51100000000E-03 0.  1.
         11    1    4    4    0    0  0.92007024723E-01 -0.20083364405E-01  0.84322664802E-02  0.94551564573E-01  0.51100000000E-03 0. -1.
</event>
<event>
 8    1  0.1122465E+005  0.1043930E+01  0.7957747E-01            NaN
         13   -1    0    0    0    0  0.00000000000E+00  0.00000000000E+00  0.74505805969E-08  0.10566000000E+00  0.10566000000E+00 0.  1.
     999900   -1    0    0    0    0 -0.00000000000E+00 -0.00000000000E+00 -0.74505805969E-08  0.93827000000E+00  0.93827000000E+00 0. -1.
     999902    2    1    2    0    0 -0.18786525612E-01 -0.71253020101E-02 -0.11154927224E-01  0.10209487930E+01  0.10206901107E+01 0.  0.
     999903    2    3    3    0    0  0.12336535746E-01 -0.68298845357E-01  0.10838261646E+00  0.13021871509E+00  0.19829266730E-01 0.  0.
         14    1    1    2    0    0  0.18786525612E-01  0.71253020101E-02  0.11154927224E-01  0.22981206989E-01  0.00000000000E+00 0.  1.
     999901    1    3    3    0    0 -0.31123061358E-01  0.61173543346E-01 -0.11953754368E+00  0.89073007792E+00  0.88000000000E+00 0. -1.
        -11    1    4    4    0    0 -0.13320459330E-02 -0.59135495235E-02  0.21775181931E-01  0.22608938132E-01  0.51100000000E-03 0.  1.
         11    1    4    4    0    0  0.13668581679E-01 -0.62385295833E-01  0.86607434528E-01  0.10760977696E+00  0.51100000000E-03 0. -1.
</event>
<event>
 8    1  0.1122465E+005  0.1043930E+01  0.7957747E-01            NaN
         13   -1    0    0    0    0  0.00000000000E+00  0.00000000000E+00  0.74505805969E-08  0.10566000000E+00  0.10566000000E+00 0. -1.
     999900   -1    0    0    0    0 -0.00000000000E+00 -0.00000000000E+00 -0.74505805969E-08  0.93827000000E+00  0.93827000000E+00 0. -1.
     999902    2    1    2    0    0 -0.21084576667E-01  0.91343600579E-02 -0.64406819329E-03  0.10209428138E+01  0.10206839953E+01 0.  0.
     999903    2    3    3    0    0 -0.54684938490E-01  0.89884204102E-01  0.78962670307E-01  0.13303135735E+00  0.19814794774E-01 0.  0.
         14    1    1    2    0    0  0.21084576667E-01 -0.91343600579E-02  0.64406819329E-03  0.22987186229E-01  0.00000000000E+00 0.  1.
     999901    1    3    3    0    0  0.33600361823E-01 -0.80749844044E-01 -0.79606738500E-01  0.88791145642E+00  0.88000000000E+00 0. -1.
        -11    1    4    4    0    0 -0.46953222283E-01  0.73280572374E-01  0.55348723475E-01  0.10314256969E+00  0.51100000000E-03 0.  1.
         11    1    4    4    0    0 -0.77317162063E-02  0.16603631728E-01  0.23613946832E-01  0.29888787664E-01  0.51100000000E-03 0. -1.
</event>
<event>
 8    1  0.1122465E+005  0.1043930E+01  0.7957747E-01            NaN
         13   -1    0    0    0    0  0.00000000000E+00  0.00000000000E+00  0.74505805969E-08  0.10566000000E+00  0.10566000000E+00 0.  1.
     999900   -1    0    0    0    0 -0.00000000000E+00 -0.00000000000E+00 -0.74505805969E-08  0.93827000000E+00  0.93827000000E+00 0.  1.
     999902    2    1    2    0    0 -0.20051901877E-02 -0.17927765884E-01  0.16396159173E-01  0.10195525593E+01  0.10192610861E+01 0.  0.
     999903    2    3    3    0    0 -0.81062615017E-01 -0.89181549706E-01 -0.47293562725E-01  0.13085488364E+00  0.19021649126E-01 0.  0.
         14    1    1    2    0    0  0.20051901877E-02  0.17927765884E-01 -0.16396159173E-01  0.24377440655E-01  0.00000000000E+00 0. -1.
     999901    1    3    3    0    0  0.79057424830E-01  0.71253783823E-01  0.63689721898E-01  0.88869767571E+00  0.88000000000E+00 0. -1.
        -11    1    4    4    0    0 -0.15310941848E-01 -0.28689121565E-01 -0.98787988794E-02  0.33990328400E-01  0.51100000000E-03 0.  1.
         11    1    4    4    0    0 -0.65751673170E-01 -0.60492428142E-01 -0.37414763846E-01  0.96864555239E-01  0.51100000000E-03 0. -1.
</event>
<event>
 8    1  0.1122465E+005  0.1043930E+01  0.7957747E-01            NaN
         13   -1    0    0    0    0  0.00000000000E+00  0.00000000000E+00  0.74505805969E-08  0.10566000000E+00  0.10566000000E+00 0. -1.
     999900   -1    0    0    0    0 -0.00000000000E+00 -0.00000000000E+00 -0.74505805969E-08  0.93827000000E+00  0.93827000000E+00 0. -1.
     999902    2    1    2    0    0 -0.10297706744E-01 -0.10096877938E-01 -0.18244291261E-01  0.10206739498E+01  0.10204089709E+01 0.  0.
     999903    2    3    3    0    0  0.62595736543E-01 -0.11312849281E+00  0.10498738718E-01  0.13120493429E+00  0.19703531420E-01 0.  0.
         14    1    1    2    0    0  0.10297706744E-01  0.10096877938E-01  0.18244291261E-01  0.23256050222E-01  0.00000000000E+00 0.  1.
     999901    1    3    3    0    0 -0.72893443287E-01  0.10303161487E+00 -0.28743029980E-01  0.88946901549E+00  0.88000000000E+00 0. -1.
        -11    1    4    4    0    0  0.42154813070E-01 -0.82461563096E-01  0.15850859270E-01  0.93959823934E-01  0.51100000000E-03 0.  1.
         11    1    4    4    0    0  0.20440923472E-01 -0.30666929709E-01 -0.53521205518E-02  0.37245110358E-01  0.51100000000E-03 0. -1.
</event>
<event>
 8    1  0.1122465E+005  0.1043930E+01  0.7957747E-01            NaN
         13   -1    0    0    0    0  0.00000000000E+00  0.00000000000E+00  0.74505805969E-08  0.10566000000E+00  0.10566000000E+00 0.  1.
     999900   -1    0    0    0    0 -0.00000000000E+00 -0.00000000000E+00 -0.74505805969E-08  0.93827000000E+00  0.93827000000E+00 0.  1.
     999902    2    1    2    0    0 -0.13720500334E-01  0.18249593899E-02 -0.19795562473E-01  0.10197753545E+01  0.10194892480E+01 0.  0.
     999903    2    3    3    0    0 -0.46319485177E-01 -0.32715955076E-01  0.11341751759E+00  0.12848331857E+00  0.20702691419E-01 0.  0.
         14    1    1    2    0    0  0.13720500334E-01 -0.18249593899E-02  0.19795562473E-01  0.24154645512E-01  0.00000000000E+00 0.  1.
     999901    1    3    3    0    0  0.32598984843E-01  0.34540914466E-01 -0.13321308006E+00  0.89129203591E+00  0.88000000000E+00 0.  1.
        -11    1    4    4    0    0 -0.35193456761E-01 -0.13141106381E-01  0.76734673822E-01  0.85438512179E-01  0.51100000000E-03 0.  1.
         11    1    4    4    0    0 -0.11126028416E-01 -0.19574848695E-01  0.36682843766E-01  0.43044806394E-01  0.51100000000E-03 0. -1.
</event>
<event>
 8    1  0.1122465E+005  0.1043930E+01  0.7957747E-01            NaN
         13   -1    0    0    0    0  0.00000000000E+00  0.00000000000E+00  0.74505805969E-08  0.10566000000E+00  0.10566000000E+00 0. -1.
     999900   -1    0    0    0    0 -0.00000000000E+00 -0.00000000000E+00 -0.74505805969E-08  0.93827000000E+00  0.93827000000E+00 0.  1.
     999902    2    1    2    0    0 -0.60662690019E-02 -0.21975437773E-01  0.19208201522E-03  0.10211318338E+01  0.10208773020E+01 0.  0.
     999903    2    3    3    0    0  0.11873290186E+00  0.30002635967E-01  0.38615184154E-01  0.12997927228E+00  0.20144940440E-01 0.  0.
         14    1    1    2    0    0  0.60662690019E-02  0.21975437773E-01 -0.19208201522E-03  0.22798166163E-01  0.00000000000E+00 0.  1.
     999901    1    3    3    0    0 -0.12479917086E+00 -0.51978073740E-01 -0.38423102139E-01  0.89115256156E+00  0.88000000000E+00 0. -1.
        -11    1    4    4    0    0  0.45520784316E-01  0.52122634010E-02  0.22384920715E-01  0.50996620387E-01  0.51100000000E-03 0.  1.
         11    1    4    4    0    0  0.73212117543E-01  0.24790372566E-01  0.16230263439E-01  0.78982651889E-01  0.51100000000E-03 0. -1.
</event>
<event>
 8    1  0.1122465E+005  0.1043930E+01  0.7957747E-01            NaN
         13   -1    0    0    0    0  0.00000000000E+00  0.00000000000E+00  0.74505805969E-08  0.10566000000E+00  0.10566000000E+00 0. -1.
     999900   -1    0    0    0    0 -0.00000000000E+00 -0.00000000000E+00 -0.74505805969E-08  0.93827000000E+00  0.93827000000E+00 0. -1.
     999902    2    1    2    0    0 -0.69189092985E-02 -0.75291259250E-02  0.21152145508E-01  0.10204359092E+01  0.10201654143E+01 0.  0.
     999903    2    3    3    0    0 -0.77122262828E-01 -0.92347799871E-01  0.53105572938E-01  0.13299929748E+00  0.19815440630E-01 0.  0.
         14    1    1    2    0    0  0.69189092985E-02  0.75291259250E-02 -0.21152145508E-01  0.23494090804E-01  0.00000000000E+00 0.  1.
     999901    1    3    3    0    0  0.70203353529E-01  0.84818673946E-01 -0.31953427430E-01  0.88743661172E+00  0.88000000000E+00 0. -1.
        -11    1    4    4    0    0 -0.49163172860E-01 -0.43524274491E-01  0.29413573012E-01  0.71949978693E-01  0.51100000000E-03 0.  1.
         11    1    4    4    0    0 -0.27959089968E-01 -0.48823525380E-01  0.23691999927E-01  0.61049318784E-01  0.51100000000E-03 0. -1.
</event>
<event>
 8    1  0.1122465E+005  0.1043930E+01  0.7957747E-01            NaN
         13   -1    0    0    0    0  0.00000000000E+00  0.00000000000E+00  0.74505805969E-08  0.10566000000E+00  0.10566000000E+00 0. -1.
     999900   -1    0    0    0    0 -0.00000000000E+00 -0.00000000000E+00 -0.74505805969E-08  0.93827000000E+00  0.93827000000E+00 0.  1.
     999902    2    1    2    0    0 -0.21579947698E-01  0.52485278109E-02  0.54464804147E-02  0.10210628765E+01  0.10208067851E+01 0.  0.
     999903    2    3    3    0    0 -0.36921580987E-01 -0.45970510007E-01  0.11689679411E+00  0.13242350763E+00  0.19865396178E-01 0.  0.
         14    1    1    2    0    0  0.21579947698E-01 -0.52485278109E-02 -0.54464804147E-02  0.22867123468E-01  0.00000000000E+00 0. -1.
     999901    1    3    3    0    0  0.15341633289E-01  0.51219037818E-01 -0.11145031370E+00  0.88863936891E+00  0.88000000000E+00 0.  1.
        -11    1    4    4    0    0 -0.28377533765E-01 -0.20458912968E-01  0.59328535937E-01  0.68876613156E-01  0.51100000000E-03 0. -1.
         11    1    4    4    0    0 -0.85440472218E-02 -0.25511597039E-01  0.57568258175E-01  0.63546894470E-01  0.51100000000E-03 0.  1.
</event>
<event>
 8    1  0.1122465E+005  0.1043930E+01  0.7957747E-01            NaN
         13   -1    0    0    0    0  0.00000000000E+00  0.00000000000E+00  0.74505805969E-08  0.10566000000E+00  0.10566000000E+00 0. -1.
     999900   -1    0    0    0    0 -0.00000000000E+00 -0.00000000000E+00 -0.74505805969E-08  0.93827000000E+00  0.93827000000E+00 0.  1.
     999902    2    1    2    0    0  0.23852804974E-01  0.20737392074E-02 -0.20886072893E-02  0.10198962949E+01  0.10196130802E+01 0.  0.
     999903    2    3    3    0    0 -0.11736348481E+00 -0.42382466643E-01  0.15322075218E-01  0.12735972614E+00  0.20378243490E-01 0.  0.
         14    1    1    2    0    0 -0.23852804974E-01 -0.20737392074E-02  0.20886072893E-02  0.24033705079E-01  0.00000000000E+00 0.  1.
     999901    1    3    3    0    0  0.14121628979E+00  0.44456205851E-01 -0.17410682507E-01  0.89253656878E+00  0.88000000000E+00 0.  1.
        -11    1    4    4    0    0 -0.29000241652E-01 -0.18557757714E-01 -0.73656994421E-03  0.34441371104E-01  0.51100000000E-03 0.  1.
         11    1    4    4    0    0 -0.88363243163E-01 -0.23824708930E-01  0.16058645162E-01  0.92918355040E-01  0.51100000000E-03 0. -1.
</event>
<event>
 8    1  0.1122465E+005  0.1043930E+01  0.7957747E-01            NaN
         13   -1    0    0    0    0  0.00000000000E+00  0.00000000000E+00  0.74505805969E-08  0.10566000000E+00  0.10566000000E+00 0.  1.
     999900   -1    0    0    0    0 -0.00000000000E+00 -0.00000000000E+00 -0.74505805969E-08  0.93827000000E+00  0.93827000000E+00 0. -1.
     999902    2    1    2    0    0  0.19524068286E-01  0.13979396152E-01 -0.15660331270E-02  0.10198662260E+01  0.10195822937E+01 0.  0.
     999903    2    3    3    0    0 -0.97692402987E-01 -0.52581267424E-01 -0.59957928827E-01  0.12768931723E+00  0.20025314457E-01 0.  0.
         14    1    1    2    0    0 -0.19524068286E-01 -0.13979396152E-01  0.15660331270E-02  0.24063773997E-01  0.00000000000E+00 0.  1.
     999901    1    3    3    0    0  0.11721647127E+00  0.66560663576E-01  0.58391895700E-01  0.89217690878E+00  0.88000000000E+00 0.  1.
        -11    1    4    4    0    0 -0.22399245556E-01 -0.20993621712E-01 -0.21153949469E-01  0.37285507281E-01  0.51100000000E-03 0.  1.
         11    1    4    4    0    0 -0.75293157430E-01 -0.31587645712E-01 -0.38803979358E-01  0.90403809944E-01  0.51100000000E-03 0. -1.
</event>
<event>
 8    1  0.1122465E+005  0.1043930E+01  0.7957747E-01            NaN
         13   -1    0    0    0    0  0.00000000000E+00  0.00000000000E+00  0.74505805969E-08  0.10566000000E+00  0.10566000000E+00 0. -1.
     999900   -1    0    0    0    0 -0.00000000000E+00 -0.00000000000E+00 -0.74505805969E-08  0.93827000000E+00  0.93827000000E+00 0.  1.
     999902    2    1    2    0    0 -0.19005083044E-01 -0.38387115266E-02  0.10239688391E-01  0.10220033015E+01  0.10217680599E+01 0.  0.
     999903    2    3    3    0    0 -0.41872136321E-01  0.10357109734E+00 -0.66920440789E-01  0.13182722080E+00  0.20489576434E-01 0.  0.
         14    1    1    2    0    0  0.19005083044E-01  0.38387115266E-02 -0.10239688391E-01  0.21926698476E-01  0.00000000000E+00 0.  1.
     999901    1    3    3    0    0  0.22867053277E-01 -0.10740980887E+00  0.77160129181E-01  0.89017608073E+00  0.88000000000E+00 0. -1.
        -11    1    4    4    0    0 -0.12332822406E-01  0.47805195727E-01 -0.38524962039E-01  0.62624827889E-01  0.51100000000E-03 0. -1.
         11    1    4    4    0    0 -0.29539313915E-01  0.55765901615E-01 -0.28395478750E-01  0.69202392906E-01  0.51100000000E-03 0.  1.
</event>
<event>
 8    1  0.1122465E+005  0.1043930E+01  0.7957747E-01            NaN
         13   -1    0    0    0    0  0.00000000000E+00  0.00000000000E+00  0.74505805969E-08  0.10566000000E+00  0.10566000000E+00 0.  1.
     999900   -1    0    0    0    0 -0.00000000000E+00 -0.00000000000E+00 -0.74505805969E-08  0.93827000000E+00  0.93827000000E+00 0. -1.
     999902    2    1    2    0    0 -0.92863778314E-02 -0.15420211728E-01  0.10404932979E-01  0.10231385986E+01  0.10229273237E+01 0.  0.
     999903    2    3    3    0    0  0.12847032912E+00 -0.98425624594E-02 -0.20012597981E-01  0.13188484870E+00  0.19789081297E-01 0.  0.
         14    1    1    2    0    0  0.92863778314E-02  0.15420211728E-01 -0.10404932979E-01  0.20791401426E-01  0.00000000000E+00 0. -1.
     999901    1    3    3    0    0 -0.13775670695E+00 -0.55776492684E-02  0.30417530960E-01  0.89125374988E+00  0.88000000000E+00 0. -1.
        -11    1    4    4    0    0  0.76101668569E-01 -0.10956046365E-01 -0.20216880802E-01  0.79501461001E-01  0.51100000000E-03 0.  1.
         11    1    4    4    0    0  0.52368660549E-01  0.11134839052E-02  0.20428282056E-03  0.52383387696E-01  0.51100000000E-03 0. -1.
</event>
<event>
 8    1  0.1122465E+005  0.1043930E+01  0.7957747E-01            NaN
         13   -1    0    0    0    0  0.00000000000E+00  0.00000000000E+00  0.74505805969E-08  0.10566000000E+00  0.10566000000E+00 0. -1.
     999900   -1    0    0    0    0 -0.00000000000E+00 -0.00000000000E+00 -0.74505805969E-08  0.93827000000E+00  0.93827000000E+00 0. -1.
     999902    2    1    2    0    0 -0.60739442132E-02 -0.58606489029E-02  0.22110013203E-01  0.10202637226E+01  0.10199892014E+01 0.  0.
     999903    2    3    3    0    0 -0.81634049580E-01 -0.87746991729E-01  0.53266268220E-01  0.13269095659E+00  0.20148002965E-01 0.  0.
         14    1    1    2    0    0  0.60739442132E-02  0.58606489029E-02 -0.22110013203E-01  0.23666277436E-01  0.00000000000E+00 0.  1.
     999901    1    3    3    0    0  0.75560105367E-01  0.81886342826E-01 -0.31156255017E-01  0.88757276597E+00  0.88000000000E+00 0. -1.
        -11    1    4    4    0    0 -0.69771487960E-01 -0.63457988997E-01  0.38350959452E-01  0.10181372261E+00  0.51100000000E-03 0. -1.
         11    1    4    4    0    0 -0.11862561620E-01 -0.24289002733E-01  0.14915308768E-01  0.30877233985E-01  0.51100000000E-03 0.  1.
</event>
<event>
 8    1  0.1122465E+005  0.1043930E+01  0.7957747E-01            NaN
         13   -1    0    0    0    0  0.00000000000E+00  0.00000000000E+00  0.74505805969E-08  0.10566000000E+00  0.10566000000E+00 0.  1.
     999900   -1    0    0    0    0 -0.00000000000E+00 -0.00000000000E+00 -0.74505805969E-08  0.93827000000E+00  0.93827000000E+00 0. -1.
     999902    2    1    2    0    0 -0.34907945209E-03  0.24236274373E-01  0.37066588013E-02  0.10194094337E+01  0.10191144859E+01 0.  0.
     999903    2    3    3    0    0  0.34368146375E-01 -0.11500617236E+00 -0.37555679926E-01  0.12683096358E+00  0.16372997921E-01 0.  0.
         14    1    1    2    0    0  0.34907945209E-03 -0.24236274373E-01 -0.37066588013E-02  0.24520566294E-01  0.00000000000E+00 0. -1.
     999901    1    3    3    0    0 -0.34717225827E-01  0.13924244673E+00  0.41262338727E-01  0.89257847013E+00  0.88000000000E+00 0.  1.
        -11    1    4    4    0    0  0.30006461413E-01 -0.81619153343E-01 -0.32207357707E-01  0.92734292095E-01  0.51100000000E-03 0.  1.
         11    1    4    4    0    0  0.43616849625E-02 -0.33387019016E-01 -0.53483222188E-02  0.34096671481E-01  0.51100000000E-03 0. -1.
</event>
<event>
 8    1  0.1122465E+005  0.1043930E+01  0.7957747E-01            NaN
         13   -1    0    0    0    0  0.00000000000E+00  0.00000000000E+00  0.74505805969E-08  0.10566000000E+00  0.10566000000E+00 0. -1.
     999900   -1    0    0    0    0 -0.00000000000E+00 -0.00000000000E+00 -0.74505805969E-08  0.93827000000E+00  0.93827000000E+00 0.  1.
     999902    2    1    2    0    0  0.50647323424E-02  0.26178743598E-01 -0.21185961501E-01  0.10098738244E+01  0.10092994195E+01 0.  0.
     999903    2    3    3    0    0 -0.55270457822E-01 -0.20464861701E-01  0.10094851519E+00  0.11817163676E+00  0.17329135654E-01 0.  0.
         14    1    1    2    0    0 -0.50647323424E-02 -0.26178743598E-01  0.21185961501E-01  0.34056175575E-01  0.00000000000E+00 0. -1.
     999901    1    3    3    0    0  0.60335190164E-01  0.46643605299E-01 -0.12213447670E+00  0.89170218766E+00  0.88000000000E+00 0. -1.
        -11    1    4    4    0    0 -0.34707288368E-01 -0.47237012814E-02  0.65352516807E-01  0.74149320925E-01  0.51100000000E-03 0.  1.
         11    1    4    4    0    0 -0.20563169454E-01 -0.15741160419E-01  0.35595998387E-01  0.44022315836E-01  0.51100000000E-03 0. -1.
</event>
<event>
 8    1  0.1122465E+005  0.1043930E+01  0.7957747E-01            NaN
         13   -1    0    0    0    0  0.00000000000E+00  0.00000000000E+00  0.74505805969E-08  0.10566000000E+00  0.10566000000E+00 0.  1.
     999900   -1    0    0    0    0 -0.00000000000E+00 -0.00000000000E+00 -0.74505805969E-08  0.93827000000E+00  0.93827000000E+00 0. -1.
     999902    2    1    2    0    0 -0.20708838160E-01 -0.12451712739E-01  0.10129694678E-02  0.10197447310E+01  0.10194578899E+01 0.  0.
     999903    2    3    3    0    0  0.70359536376E-02 -0.12897809334E+00  0.14409905427E-01  0.13152873886E+00  0.20181936625E-01 0.  0.
         14    1    1    2    0    0  0.20708838160E-01  0.12451712739E-01 -0.10129694678E-02  0.24185268971E-01  0.00000000000E+00 0. -1.
     999901    1    3    3    0    0 -0.27744791798E-01  0.11652638060E+00 -0.13396935959E-01  0.88821599217E+00  0.88000000000E+00 0.  1.
        -11    1    4    4    0    0  0.73513969157E-02 -0.94382480284E-01  0.19202488268E-01  0.96597579151E-01  0.51100000000E-03 0.  1.
         11    1    4    4    0    0 -0.31544327813E-03 -0.34595613060E-01 -0.47925828406E-02  0.34931159711E-01  0.51100000000E-03 0. -1.
</event>
<event>
 8    1  0.1122465E+005  0.1043930E+01  0.7957747E-01            NaN
         13   -1    0    0    0    0  0.00000000000E+00  0.00000000000E+00  0.74505805969E-08  0.10566000000E+00  0.10566000000E+00 0. -1.
     999900   -1    0    0    0    0 -0.00000000000E+00 -0.00000000000E+00 -0.74505805969E-08  0.93827000000E+00  0.93827000000E+00 0. -1.
     999902    2    1    2    0    0  0.15237292371E-01  0.37494495428E-02 -0.21070967776E-01  0.10176579781E+01  0.10173188002E+01 0.  0.
     999903    2    3    3    0    0  0.24196261128E-01  0.72162936445E-01 -0.10439204402E+00  0.13103344087E+00  0.21888703049E-01 0.  0.
         14    1    1    2    0    0 -0.15237292371E-01 -0.37494495428E-02  0.21070967776E-01  0.26272021880E-01  0.00000000000E+00 0. -1.
     999901    1    3    3    0    0 -0.89589687571E-02 -0.68413486902E-01  0.83321076248E-01  0.88662453725E+00  0.88000000000E+00 0.  1.
        -11    1    4    4    0    0  0.79033711679E-03  0.30093118593E-01 -0.30632980007E-01  0.42951845181E-01  0.51100000000E-03 0. -1.
         11    1    4    4    0    0  0.23405924011E-01  0.42069817852E-01 -0.73759064017E-01  0.88081595686E-01  0.51100000000E-03 0.  1.
</event>
<event>
 8    1  0.1122465E+005  0.1043930E+01  0.7957747E-01            NaN
         13   -1    0    0    0    0  0.00000000000E+00  0.00000000000E+00  0.74505805969E-08  0.10566000000E+00  0.10566000000E+00 0.  1.
     999900   -1    0    0    0    0 -0.00000000000E+00 -0.00000000000E+00 -0.74505805969E-08  0.93827000000E+00  0.93827000000E+00 0.  1.
     999902    2    1    2    0    0 -0.23493988018E-01 -0.17363181974E-02  0.59704131517E-02  0.10196271585E+01  0.10193374879E+01 0.  0.
     999903    2    3    3    0    0 -0.12754079930E+00 -0.88527315826E-03 -0.31766857574E-01  0.13269392263E+00  0.18196281724E-01 0.  0.
         14    1    1    2    0    0  0.23493988018E-01  0.17363181974E-02 -0.59704131517E-02  0.24302841543E-01  0.00000000000E+00 0. -1.
     999901    1    3    3    0    0  0.10404681128E+00 -0.85104503917E-03  0.37737270726E-01  0.88693323583E+00  0.88000000000E+00 0. -1.
        -11    1    4    4    0    0 -0.81581638600E-01 -0.16630568532E-02 -0.11314746531E-01  0.82380908740E-01  0.51100000000E-03 0.  1.
         11    1    4    4    0    0 -0.45959160696E-01  0.77778369498E-03 -0.20452111043E-01  0.50313013888E-01  0.51100000000E-03 0. -1.
</event>
<event>
 8    1  0.1122465E+005  0.1043930E+01  0.7957747E-01            NaN
         13   -1    0    0    0    0  0.00000000000E+00  0.00000000000E+00  0.74505805969E-08  0.10566000000E+00  0.10566000000E+00 0.  1.
     999900   -1    0    0    0    0 -0.00000000000E+00 -0.00000000000E+00 -0.74505805969E-08  0.93827000000E+00  0.93827000000E+00 0. -1.
     999902    2    1    2    0    0  0.21104174268E-02  0.21538954655E-01  0.74633239125E-02  0.10210371707E+01  0.10207804966E+01 0.  0.
     999903    2    3    3    0    0 -0.92352242281E-01 -0.54537668154E-01 -0.71277312763E-01  0.12923509934E+00  0.10861016810E-01 0.  0.
         14    1    1    2    0    0 -0.21104174268E-02 -0.21538954655E-01 -0.74633239125E-02  0.22892829296E-01  0.00000000000E+00 0. -1.
     999901    1    3    3    0    0  0.94462659707E-01  0.76076622809E-01  0.78740636675E-01  0.89180207136E+00  0.88000000000E+00 0. -1.
        -11    1    4    4    0    0 -0.25144927586E-01 -0.17982894969E-01 -0.25512545008E-01  0.40084946907E-01  0.51100000000E-03 0.  1.
         11    1    4    4    0    0 -0.67207314695E-01 -0.36554773185E-01 -0.45764767755E-01  0.89150152438E-01  0.51100000000E-03 0. -1.
</event>
<event>
 8    1  0.1122465E+005  0.1043930E+01  0.7957747E-01            NaN
         13   -1    0    0    0    0  0.00000000000E+00  0.00000000000E+00  0.74505805969E-08  0.10566000000E+00  0.10566000000E+00 0. -1.
     999900   -1    0    0    0    0 -0.00000000000E+00 -0.00000000000E+00 -0.74505805969E-08  0.93827000000E+00  0.93827000000E+00 0. -1.
     999902    2    1    2    0    0  0.63008585975E-02  0.91826005228E-02 -0.21069300036E-01  0.10200985843E+01  0.10198201730E+01 0.  0.
     999903    2    3    3    0    0 -0.91127286431E-01  0.80345518230E-01 -0.45915037147E-01  0.13151897898E+00  0.20723575052E-01 0.  0.
         14    1    1    2    0    0 -0.63008585975E-02 -0.91826005228E-02  0.21069300036E-01  0.23831415724E-01  0.00000000000E+00 0.  1.
     999901    1    3    3    0    0  0.97428145029E-01 -0.71162917707E-01  0.24845737112E-01  0.88857960530E+00  0.88000000000E+00 0.  1.
        -11    1    4    4    0    0 -0.17526744032E-01  0.68987786734E-02 -0.32219003061E-02  0.19116005497E-01  0.51100000000E-03 0. -1.
         11    1    4    4    0    0 -0.73600542399E-01  0.73446739556E-01 -0.42693136841E-01  0.11240297348E+00  0.51100000000E-03 0.  1.
</event>
<event>
 8    1  0.1122465E+005  0.1043930E+01  0.7957747E-01            NaN
         13   -1    0    0    0    0  0.00000000000E+00  0.00000000000E+00  0.74505805969E-08  0.10566000000E+00  0.10566000000E+00 0. -1.
     999900   -1    0    0    0    0 -0.00000000000E+00 -0.00000000000E+00 -0.74505805969E-08  0.93827000000E+00  0.93827000000E+00 0. -1.
     999902    2    1    2    0    0  0.55803296581E-02 -0.19714512852E-01  0.11179550764E-01  0.10205893819E+01  0.10203224501E+01 0.  0.
     999903    2    3    3    0    0  0.51309040512E-01  0.80673024812E-01 -0.83739795900E-01  0.12863733442E+00  0.19860911799E-01 0.  0.
         14    1    1    2    0    0 -0.55803296581E-02  0.19714512852E-01 -0.11179550764E-01  0.23340618059E-01  0.00000000000E+00 0. -1.
     999901    1    3    3    0    0 -0.45728710854E-01 -0.10038753766E+00  0.94919346665E-01  0.89195204753E+00  0.88000000000E+00 0.  1.
        -11    1    4    4    0    0  0.44010607241E-01  0.52475218879E-01 -0.60129708205E-01  0.91139591155E-01  0.51100000000E-03 0.  1.
         11    1    4    4    0    0  0.72984332717E-02  0.28197805932E-01 -0.23610087695E-01  0.37497743260E-01  0.51100000000E-03 0. -1.
</event>
<event>
 8    1  0.1122465E+005  0.1043930E+01  0.7957747E-01            NaN
         13   -1    0    0    0    0  0.00000000000E+00  0.00000000000E+00  0.74505805969E-08  0.10566000000E+00  0.10566000000E+00 0.  1.
     999900   -1    0    0    0    0 -0.00000000000E+00 -0.00000000000E+00 -0.74505805969E-08  0.93827000000E+00  0.93827000000E+00 0. -1.
     999902    2    1    2    0    0 -0.17245196770E-01  0.13109228700E-01  0.83509530537E-02  0.10207139042E+01  0.10204498454E+01 0.  0.
     999903    2    3    3    0    0 -0.87802702762E-01  0.93171539861E-01  0.34310382934E-01  0.13388684813E+00  0.18927104192E-01 0.  0.
         14    1    1    2    0    0  0.17245196770E-01 -0.13109228700E-01 -0.83509530537E-02  0.23216095831E-01  0.00000000000E+00 0. -1.
     999901    1    3    3    0    0  0.70557505991E-01 -0.80062311161E-01 -0.25959429880E-01  0.88682705604E+00  0.88000000000E+00 0.  1.
        -11    1    4    4    0    0 -0.57854118770E-01  0.67306288767E-01  0.31623173083E-01  0.94220601586E-01  0.51100000000E-03 0.  1.
         11    1    4    4    0    0 -0.29948583992E-01  0.25865251093E-01  0.26872098509E-02  0.39666246546E-01  0.51100000000E-03 0. -1.
</event>
<event>
 8    1  0.1122465E+005  0.1043930E+01  0.7957747E-01            NaN
         13   -1    0    0    0    0  0.00000000000E+00  0.00000000000E+00  0.74505805969E-08  0.10566000000E+00  0.10566000000E+00 0. -1.
     999900   -1    0    0    0    0 -0.00000000000E+00 -0.00000000000E+00 -0.74505805969E-08  0.93827000000E+00  0.93827000000E+00 0.  1.
     999902    2    1    2    0    0 -0.20851102127E-01 -0.11984119162E-01 -0.22722421408E-02  0.10197732068E+01  0.10194870488E+01 0.  0.
     999903    2    3    3    0    0  0.83776960116E-01 -0.21325416572E-01 -0.93282421325E-01  0.12886516221E+00  0.20766980175E-01 0.  0.
         14    1    1    2    0    0  0.20851102127E-01  0.11984119162E-01  0.22722421408E-02  0.24156793172E-01  0.00000000000E+00 0.  1.
     999901    1    3    3    0    0 -0.10462806224E+00  0.93412974101E-02  0.91010179184E-01  0.89090804462E+00  0.88000000000E+00 0. -1.
        -11    1    4    4    0    0  0.58536325762E-01 -0.16361615211E-01 -0.50878415716E-01  0.79265870290E-01  0.51100000000E-03 0. -1.
         11    1    4    4    0    0  0.25240634354E-01 -0.49638013607E-02 -0.42404005610E-01  0.49599291923E-01  0.51100000000E-03 0.  1.
</event>
<event>
 8    1  0.1122465E+005  0.1043930E+01  0.7957747E-01            NaN
         13   -1    0    0    0    0  0.00000000000E+00  0.00000000000E+00  0.74505805969E-08  0.10566000000E+00  0.10566000000E+00 0. -1.
     999900   -1    0    0    0    0 -0.00000000000E+00 -0.00000000000E+00 -0.74505805969E-08  0.93827000000E+00  0.93827000000E+00 0. -1.
     999902    2    1    2    0    0 -0.55093122349E-02  0.44259731450E-02 -0.22353027121E-01  0.10204864597E+01  0.10202171410E+01 0.  0.
     999903    2    3    3    0    0  0.10040463749E+00 -0.78221255023E-01  0.12653297459E-01  0.12960275696E+00  0.20907240584E-01 0.  0.
         14    1    1    2    0    0  0.55093122349E-02 -0.44259731450E-02  0.22353027121E-01  0.23443540285E-01  0.00000000000E+00 0.  1.
     999901    1    3    3    0    0 -0.10591394973E+00  0.82647228168E-01 -0.35006324581E-01  0.89088370275E+00  0.88000000000E+00 0.  1.
        -11    1    4    4    0    0  0.33904159118E-01 -0.35347643886E-01 -0.24774115812E-02  0.49044333240E-01  0.51100000000E-03 0.  1.
         11    1    4    4    0    0  0.66500478372E-01 -0.42873611137E-01  0.15130709040E-01  0.80558423723E-01  0.51100000000E-03 0. -1.
</event>
<event>
 8    1  0.1122465E+005  0.1043930E+01  0.7957747E-01            NaN
         13   -1    0    0    0    0  0.00000000000E+00  0.00000000000E+00  0.74505805969E-08  0.10566000000E+00  0.10566000000E+00 0.  1.
     999900   -1    0    0    0    0 -0.00000000000E+00 -0.00000000000E+00 -0.74505805969E-08  0.93827000000E+00  0.93827000000E+00 0. -1.
     999902    2    1    2    0    0 -0.83928819372E-02  0.57391173405E-02 -0.21129080562E-01  0.10204818448E+01  0.10202124189E+01 0.  0.
     999903    2    3    3    0    0 -0.27640300902E-01  0.53770569350E-01 -0.11753417459E+00  0.13370598495E+00  0.20192767365E-01 0.  0.
         14    1    1    2    0    0  0.83928819372E-02 -0.57391173405E-02  0.21129080562E-01  0.23448155161E-01  0.00000000000E+00 0.  1.
     999901    1    3    3    0    0  0.19247418965E-01 -0.48031452009E-01  0.96405094028E-01  0.88677585988E+00  0.88000000000E+00 0.  1.
        -11    1    4    4    0    0 -0.23141349762E-01  0.34416751842E-01 -0.60877169860E-01  0.73663598930E-01  0.51100000000E-03 0. -1.
         11    1    4    4    0    0 -0.44989511398E-02  0.19353817507E-01 -0.56657004730E-01  0.60042386024E-01  0.51100000000E-03 0.  1.
</event>
<event>
 8    1  0.1122465E+005  0.1043930E+01  0.7957747E-01            NaN
         13   -1    0    0    0    0  0.00000000000E+00  0.00000000000E+00  0.74505805969E-08  0.10566000000E+00  0.10566000000E+00 0.  1.
     999900   -1    0    0    0    0 -0.00000000000E+00 -0.00000000000E+00 -0.74505805969E-08  0.93827000000E+00  0.93827000000E+00 0. -1.
     999902    2    1    2    0    0  0.12047106988E-01 -0.19286810959E-01 -0.16148455436E-02  0.10211325969E+01  0.10208780822E+01 0.  0.
     999903    2    3    3    0    0 -0.98864523210E-01  0.77654929695E-01 -0.18697121390E-01  0.12872523756E+00  0.20399077918E-01 0.  0.
         14    1    1    2    0    0 -0.12047106988E-01  0.19286810959E-01  0.16148455436E-02  0.22797403139E-01  0.00000000000E+00 0. -1.
     999901    1    3    3    0    0  0.11091163020E+00 -0.96941740654E-01  0.17082275846E-01  0.89240735931E+00  0.88000000000E+00 0. -1.
        -11    1    4    4    0    0 -0.40436010481E-01  0.24436207449E-01  0.10536258055E-02  0.47260664685E-01  0.51100000000E-03 0.  1.
         11    1    4    4    0    0 -0.58428512730E-01  0.53218722246E-01 -0.19750747195E-01  0.81464572871E-01  0.51100000000E-03 0. -1.
</event>
<event>
 8    1  0.1122465E+005  0.1043930E+01  0.7957747E-01            NaN
         13   -1    0    0    0    0  0.00000000000E+00  0.00000000000E+00  0.74505805969E-08  0.10566000000E+00  0.10566000000E+00 0.  1.
     999900   -1    0    0    0    0 -0.00000000000E+00 -0.00000000000E+00 -0.74505805969E-08  0.93827000000E+00  0.93827000000E+00 0.  1.
     999902    2    1    2    0    0 -0.10465487994E-01  0.16070757034E-01  0.12306860221E-01  0.10211428440E+01  0.10208885607E+01 0.  0.
     999903    2    3    3    0    0 -0.26675486129E-01 -0.31922355880E-01 -0.12105473070E+00  0.12965452838E+00  0.20625967599E-01 0.  0.
         14    1    1    2    0    0  0.10465487994E-01 -0.16070757034E-01 -0.12306860221E-01  0.22787156012E-01  0.00000000000E+00 0. -1.
     999901    1    3    3    0    0  0.16209998135E-01  0.47993112914E-01  0.13336159092E+00  0.89148831561E+00  0.88000000000E+00 0. -1.
        -11    1    4    4    0    0 -0.29861858305E-01 -0.26563519260E-01 -0.10006827746E+00  0.10775561429E+00  0.51100000000E-03 0. -1.
         11    1    4    4    0    0  0.31863721760E-02 -0.53588366198E-02 -0.20986453247E-01  0.21898914093E-01  0.51100000000E-03 0.  1.
</event>
<event>
 8    1  0.1122465E+005  0.1043930E+01  0.7957747E-01            NaN
         13   -1    0    0    0    0  0.00000000000E+00  0.00000000000E+00  0.74505805969E-08  0.10566000000E+00  0.10566000000E+00 0. -1.
     999900   -1    0    0    0    0 -0.00000000000E+00 -0.00000000000E+00 -0.74505805969E-08  0.93827000000E+00  0.93827000000E+00 0. -1.
     999902    2    1    2    0    0  0.50573994489E-02  0.95154361349E-02  0.21356174980E-01  0.10200091509E+01  0.10197286212E+01 0.  0.
     999903    2    3    3    0    0  0.56094235469E-01  0.10532687722E+00 -0.48440053158E-01  0.13059580244E+00  0.21645104497E-01 0.  0.
         14    1    1    2    0    0 -0.50573994489E-02 -0.95154361349E-02 -0.21356174980E-01  0.23920849145E-01  0.00000000000E+00 0.  1.
     999901    1    3    3    0    0 -0.51036836020E-01 -0.95811441081E-01  0.69796228139E-01  0.88941334841E+00  0.88000000000E+00 0.  1.
        -11    1    4    4    0    0  0.45491279643E-01  0.98490260027E-01 -0.45416584685E-01  0.11761256365E+00  0.51100000000E-03 0.  1.
         11    1    4    4    0    0  0.10602955826E-01  0.68366171886E-02 -0.30234684731E-02  0.12983238788E-01  0.51100000000E-03 0. -1.
</event>
<event>
 8    1  0.1122465E+005  0.1043930E+01  0.7957747E-01            NaN
         13   -1    0    0    0    0  0.00000000000E+00  0.00000000000E+00  0.74505805969E-08  0.10566000000E+00  0.10566000000E+00 0. -1.
     999900   -1    0    0    0    0 -0.00000000000E+00 -0.00000000000E+00 -0.74505805969E-08  0.93827000000E+00  0.93827000000E+00 0. -1.
     999902    2    1    2    0    0 -0.10963446857E-01 -0.25651906750E-02 -0.18928365675E-01  0.10219059132E+01  0.10216685544E+01 0.  0.
     999903    2    3    3    0    0  0.76913164573E-01 -0.41079417179E-01 -0.98597341875E-01  0.13311302947E+00  0.19861756975E-01 0.  0.
         14    1    1    2    0    0  0.10963446857E-01  0.25651906750E-02  0.18928365675E-01  0.22024086753E-01  0.00000000000E+00 0. -1.
     999901    1    3    3    0    0 -0.87876611430E-01  0.38514226504E-01  0.79668976199E-01  0.88879288377E+00  0.88000000000E+00 0.  1.
        -11    1    4    4    0    0  0.52041550539E-01 -0.16852172900E-01 -0.60442040027E-01  0.81521899129E-01  0.51100000000E-03 0. -1.
         11    1    4    4    0    0  0.24871614034E-01 -0.24227244279E-01 -0.38155301848E-01  0.51591130343E-01  0.51100000000E-03 0.  1.
</event>
<event>
 8    1  0.1122465E+005  0.1043930E+01  0.7957747E-01            NaN
         13   -1    0    0    0    0  0.00000000000E+00  0.00000000000E+00  0.74505805969E-08  0.10566000000E+00  0.10566000000E+00 0.  1.
     999900   -1    0    0    0    0 -0.00000000000E+00 -0.00000000000E+00 -0.74505805969E-08  0.93827000000E+00  0.93827000000E+00 0.  1.
     999902    2    1    2    0    0  0.24497072476E-01 -0.12602721007E-02  0.13243167496E-01  0.10160539111E+01  0.10156714400E+01 0.  0.
     999903    2    3    3    0    0 -0.10035740138E+00 -0.70889708221E-01 -0.30052925288E-02  0.12436960013E+00  0.19021222603E-01 0.  0.
         14    1    1    2    0    0 -0.24497072476E-01  0.12602721007E-02 -0.13243167496E-01  0.27876088875E-01  0.00000000000E+00 0. -1.
     999901    1    3    3    0    0  0.12485447386E+00  0.69629436120E-01  0.16248460025E-01  0.89168431099E+00  0.88000000000E+00 0.  1.
        -11    1    4    4    0    0 -0.55451937680E-01 -0.40967089632E-01 -0.10996781487E-01  0.69816976084E-01  0.51100000000E-03 0. -1.
         11    1    4    4    0    0 -0.44905463705E-01 -0.29922618589E-01  0.79914889578E-02  0.54552624048E-01  0.51100000000E-03 0.  1.
</event>
<event>
 8    1  0.1122465E+005  0.1043930E+01  0.7957747E-01            NaN
         13   -1    0    0    0    0  0.00000000000E+00  0.00000000000E+00  0.74505805969E-08  0.10566000000E+00  0.10566000000E+00 0. -1.
     999900   -1    0    0    0    0 -0.00000000000E+00 -0.00000000000E+00 -0.74505805969E-08  0.93827000000E+00  0.93827000000E+00 0.  1.
     999902    2    1    2    0    0 -0.80254672052E-02 -0.30355400346E-02  0.22051542820E-01  0.10202679382E+01  0.10199935160E+01 0.  0.
     999903    2    3    3    0    0  0.42819966253E-01 -0.23776874443E-01 -0.11621751535E+00  0.12778051897E+00  0.20553853308E-01 0.  0.
         14    1    1    2    0    0  0.80254672052E-02  0.30355400346E-02 -0.22051542820E-01  0.23662061785E-01  0.00000000000E+00 0.  1.
     999901    1    3    3    0    0 -0.50845433458E-01  0.20741334408E-01  0.13826905817E+00  0.89248741924E+00  0.88000000000E+00 0. -1.
        -11    1    4    4    0    0  0.28815880841E-01 -0.19760226710E-01 -0.10021983105E+00  0.10613716223E+00  0.51100000000E-03 0. -1.
         11    1    4    4    0    0  0.14004085412E-01 -0.40166477335E-02 -0.15997684300E-01  0.21643356746E-01  0.51100000000E-03 0.  1.
</event>
<event>
 8    1  0.1122465E+005  0.1043930E+01  0.7957747E-01            NaN
         13   -1    0    0    0    0  0.00000000000E+00  0.00000000000E+00  0.74505805969E-08  0.10566000000E+00  0.10566000000E+00 0. -1.
     999900   -1    0    0    0    0 -0.00000000000E+00 -0.00000000000E+00 -0.74505805969E-08  0.93827000000E+00  0.93827000000E+00 0. -1.
     999902    2    1    2    0    0 -0.38892895946E-02 -0.20607750359E-01  0.72503182822E-02  0.10217405191E+01  0.10214995425E+01 0.  0.
     999903    2    3    3    0    0 -0.43888577506E-01  0.81965230765E-01 -0.88651992913E-01  0.12971001916E+00  0.17916666358E-01 0.  0.
         14    1    1    2    0    0  0.38892895946E-02  0.20607750359E-01 -0.72503182822E-02  0.22189480922E-01  0.00000000000E+00 0.  1.
     999901    1    3    3    0    0  0.39999287911E-01 -0.10257298112E+00  0.95902311196E-01  0.89203049992E+00  0.88000000000E+00 0.  1.
        -11    1    4    4    0    0 -0.12827310128E-01  0.29122118672E-01 -0.41906326022E-01  0.52621658685E-01  0.51100000000E-03 0.  1.
         11    1    4    4    0    0 -0.31061267378E-01  0.52843112093E-01 -0.46745666891E-01  0.77088360476E-01  0.51100000000E-03 0. -1.
</event>
<event>
 8    1  0.1122465E+005  0.1043930E+01  0.7957747E-01            NaN
         13   -1    0    0    0    0  0.00000000000E+00  0.00000000000E+00  0.74505805969E-08  0.10566000000E+00  0.10566000000E+00 0.  1.
     999900   -1    0    0    0    0 -0.00000000000E+00 -0.00000000000E+00 -0.74505805969E-08  0.93827000000E+00  0.93827000000E+00 0. -1.
     999902    2    1    2    0    0 -0.14577098369E-01 -0.14321233862E-01 -0.10528365923E-01  0.10209422636E+01  0.10206834326E+01 0.  0.
     999903    2    3    3    0    0  0.87742868302E-01 -0.77103401210E-01 -0.57387780096E-01  0.13155664373E+00  0.19236626254E-01 0.  0.
         14    1    1    2    0    0  0.14577098369E-01  0.14321233862E-01  0.10528365923E-01  0.22987736408E-01  0.00000000000E+00 0.  1.
     999901    1    3    3    0    0 -0.10231996667E+00  0.62782167348E-01  0.46859414173E-01  0.88938561986E+00  0.88000000000E+00 0. -1.
        -11    1    4    4    0    0  0.56801274449E-01 -0.37699553317E-01 -0.35760567410E-01  0.76985195991E-01  0.51100000000E-03 0. -1.
         11    1    4    4    0    0  0.30941593853E-01 -0.39403847893E-01 -0.21627212686E-01  0.54571447741E-01  0.51100000000E-03 0.  1.
</event>
<event>
 8    1  0.1122465E+005  0.1043930E+01  0.7957747E-01            NaN
         13   -1    0    0    0    0  0.00000000000E+00  0.00000000000E+00  0.74505805969E-08  0.10566000000E+00  0.10566000000E+00 0. -1.
     999900   -1    0    0    0    0 -0.00000000000E+00 -0.00000000000E+00 -0.74505805969E-08  0.93827000000E+00  0.93827000000E+00 0. -1.
     999902    2    1    2    0    0 -0.35474070981E-02  0.23287599282E-01  0.63423841109E-03  0.10203652247E+01  0.10200930806E+01 0.  0.
     999903    2    3    3    0    0  0.95629220619E-01  0.77171889044E-01  0.44535116904E-01  0.13207089998E+00  0.18944595228E-01 0.  0.
         14    1    1    2    0    0  0.35474070981E-02 -0.23287599282E-01 -0.63423841109E-03  0.23564775319E-01  0.00000000000E+00 0. -1.
     999901    1    3    3    0    0 -0.99176627717E-01 -0.53884289762E-01 -0.43900878493E-01  0.88829432470E+00  0.88000000000E+00 0. -1.
        -11    1    4    4    0    0  0.28043822113E-01  0.28970293861E-01  0.22522816377E-01  0.46187360431E-01  0.51100000000E-03 0. -1.
         11    1    4    4    0    0  0.67585398507E-01  0.48201595183E-01  0.22012300528E-01  0.85883539546E-01  0.51100000000E-03 0.  1.
</event>
<event>
 8    1  0.1122465E+005  0.1043930E+01  0.7957747E-01            NaN
         13   -1    0    0    0    0  0.00000000000E+00  0.00000000000E+00  0.74505805969E-08  0.10566000000E+00  0.10566000000E+00 0. -1.
     999900   -1    0    0    0    0 -0.00000000000E+00 -0.00000000000E+00 -0.74505805969E-08  0.93827000000E+00  0.93827000000E+00 0. -1.
     999902    2    1    2    0    0  0.19754599551E-01 -0.10027125772E-01  0.84370612198E-02  0.10202240628E+01  0.10199486099E+01 0.  0.
     999903    2    3    3    0    0  0.15774138595E-01 -0.56429133497E-01 -0.11477485551E+00  0.13042062004E+00  0.20079843585E-01 0.  0.
         14    1    1    2    0    0 -0.19754599551E-01  0.10027125772E-01 -0.84370612198E-02  0.23705937161E-01  0.00000000000E+00 0.  1.
     999901    1    3    3    0    0  0.39804609558E-02  0.46402007724E-01  0.12321191673E+00  0.88980344280E+00  0.88000000000E+00 0.  1.
        -11    1    4    4    0    0  0.13806654453E-01 -0.31492055579E-01 -0.47485018442E-01  0.58629867552E-01  0.51100000000E-03 0.  1.
         11    1    4    4    0    0  0.19674841422E-02 -0.24937077917E-01 -0.67289837070E-01  0.71790752488E-01  0.51100000000E-03 0. -1.
</event>
<event>
 8    1  0.1122465E+005  0.1043930E+01  0.7957747E-01            NaN
         13   -1    0    0    0    0  0.00000000000E+00  0.00000000000E+00  0.74505805969E-08  0.10566000000E+00  0.10566000000E+00 0. -1.
     999900   -1    0    0    0    0 -0.00000000000E+00 -0.00000000000E+00 -0.74505805969E-08  0.93827000000E+00  0.93827000000E+00 0.  1.
     999902    2    1    2    0    0  0.11490869878E-01  0.19437193194E-01  0.22946845810E-03  0.10213490960E+01  0.10210994460E+01 0.  0.
     999903    2    3    3    0    0  0.11926024768E+00  0.11669717133E-01 -0.53706226434E-01  0.13310159014E+00  0.21736733086E-01 0.  0.
         14    1    1    2    0    0 -0.11490869878E-01 -0.19437193194E-01 -0.22946845810E-03  0.22580904003E-01  0.00000000000E+00 0. -1.
     999901    1    3    3    0    0 -0.10776937780E+00  0.77674760607E-02  0.53935694892E-01  0.88824750586E+00  0.88000000000E+00 0.  1.
        -11    1    4    4    0    0  0.23060444130E-02  0.72159967122E-03 -0.56849957208E-02  0.61982936576E-02  0.51100000000E-03 0. -1.
         11    1    4    4    0    0  0.11695420327E+00  0.10948117462E-01 -0.48021230713E-01  0.12690329648E+00  0.51100000000E-03 0.  1.
</event>
<event>
 8    1  0.1122465E+005  0.1043930E+01  0.7957747E-01            NaN
         13   -1    0    0    0    0  0.00000000000E+00  0.00000000000E+00  0.74505805969E-08  0.10566000000E+00  0.10566000000E+00 0. -1.
     999900   -1    0    0    0    0 -0.00000000000E+00 -0.00000000000E+00 -0.74505805969E-08  0.93827000000E+00  0.93827000000E+00 0.  1.
     999902    2    1    2    0    0 -0.11003347790E-01 -0.16166694390E-01 -0.13717039735E-01  0.10200429146E+01  0.10197631856E+01 0.  0.
     999903    2    3    3    0    0 -0.13308182490E-01 -0.44417702373E-01  0.11939963494E+00  0.12958040511E+00  0.19615518320E-01 0.  0.
         14    1    1    2    0    0  0.11003347790E-01  0.16166694390E-01  0.13717039735E-01  0.23887085406E-01  0.00000000000E+00 0. -1.
     999901    1    3    3    0    0  0.23048346997E-02  0.28251007983E-01 -0.13311667468E+00  0.89046250948E+00  0.88000000000E+00 0.  1.
        -11    1    4    4    0    0 -0.13433304663E-01 -0.22163909272E-01  0.82600054256E-01  0.86572066120E-01  0.51100000000E-03 0. -1.
         11    1    4    4    0    0  0.12512217289E-03 -0.22253793102E-01  0.36799580689E-01  0.43008338992E-01  0.51100000000E-03 0.  1.
</event>
<event>
 8    1  0.1122465E+005  0.1043930E+01  0.7957747E-01            NaN
         13   -1    0    0    0    0  0.00000000000E+00  0.00000000000E+00  0.74505805969E-08  0.10566000000E+00  0.10566000000E+00 0. -1.
     999900   -1    0    0    0    0 -0.00000000000E+00 -0.00000000000E+00 -0.74505805969E-08  0.93827000000E+00  0.93827000000E+00 0.  1.
     999902    2    1    2    0    0  0.24015320798E-01  0.38000796748E-02  0.21430812238E-02  0.10195216196E+01  0.10192293970E+01 0.  0.
     999903    2    3    3    0    0  0.13013198398E-01  0.11427286688E+00 -0.58339572955E-01  0.13048650503E+00  0.19889464156E-01 0.  0.
         14    1    1    2    0    0 -0.24015320798E-01 -0.38000796748E-02 -0.21430812238E-02  0.24408380439E-01  0.00000000000E+00 0. -1.
     999901    1    3    3    0    0  0.11002122400E-01 -0.11047278721E+00  0.60482654179E-01  0.88903511453E+00  0.88000000000E+00 0. -1.
        -11    1    4    4    0    0  0.77418370060E-02  0.97274571754E-01 -0.56051613580E-01  0.11253587364E+00  0.51100000000E-03 0.  1.
         11    1    4    4    0    0  0.52713613915E-02  0.16998295128E-01 -0.22879593753E-02  0.17950631390E-01  0.51100000000E-03 0. -1.
</event>
<event>
 8    1  0.1122465E+005  0.1043930E+01  0.7957747E-01            NaN
         13   -1    0    0    0    0  0.00000000000E+00  0.00000000000E+00  0.74505805969E-08  0.10566000000E+00  0.10566000000E+00 0. -1.
     999900   -1    0    0    0    0 -0.00000000000E+00 -0.00000000000E+00 -0.74505805969E-08  0.93827000000E+00  0.93827000000E+00 0.  1.
     999902    2    1    2    0    0 -0.18088016872E-01  0.14567439192E-01 -0.36059487656E-02  0.10204270320E+01  0.10201563302E+01 0.  0.
     999903    2    3    3    0    0 -0.59941526199E-01 -0.10858111334E+00  0.33803400852E-01  0.13008061532E+00  0.19885970792E-01 0.  0.
         14    1    1    2    0    0  0.18088016872E-01 -0.14567439192E-01  0.36059487656E-02  0.23502968014E-01  0.00000000000E+00 0. -1.
     999901    1    3    3    0    0  0.41853509326E-01  0.12314855254E+00 -0.37409349617E-01  0.89034641667E+00  0.88000000000E+00 0.  1.
        -11    1    4    4    0    0 -0.38557287902E-01 -0.52045881974E-01  0.12357608739E-01  0.65942474138E-01  0.51100000000E-03 0. -1.
         11    1    4    4    0    0 -0.21384238297E-01 -0.56535231370E-01  0.21445792113E-01  0.64138141179E-01  0.51100000000E-03 0.  1.
</event>
<event>
 8    1  0.1122465E+005  0.1043930E+01  0.7957747E-01            NaN
         13   -1    0    0    0    0  0.00000000000E+00  0.00000000000E+00  0.74505805969E-08  0.10566000000E+00  0.10566000000E+00 0.  1.
     999900   -1    0    0    0    0 -0.00000000000E+00 -0.00000000000E+00 -0.74505805969E-08  0.93827000000E+00  0.93827000000E+00 0. -1.
     999902    2    1    2    0    0  0.20774934563E-01  0.49795062780E-02 -0.45846733914E-02  0.10220802261E+01  0.10218466499E+01 0.  0.
     999903    2    3    3    0    0  0.13317380149E+00 -0.74712538555E-02  0.10243249128E-02  0.13482604180E+00  0.19645133430E-01 0.  0.
         14    1    1    2    0    0 -0.20774934563E-01 -0.49795062780E-02  0.45846733914E-02  0.21849773888E-01  0.00000000000E+00 0.  1.
     999901    1    3    3    0    0 -0.11239886693E+00  0.12450760134E-01 -0.56089983042E-02  0.88725418431E+00  0.88000000000E+00 0.  1.
        -11    1    4    4    0    0  0.84516587057E-01 -0.26736425193E-03  0.89887213863E-02  0.84995195185E-01  0.51100000000E-03 0. -1.
         11    1    4    4    0    0  0.48657214437E-01 -0.72038896036E-02 -0.79643964736E-02  0.49830846616E-01  0.51100000000E-03 0.  1.
</event>
<event>
 8    1  0.1122465E+005  0.1043930E+01  0.7957747E-01            NaN
         13   -1    0    0    0    0  0.00000000000E+00  0.00000000000E+00  0.74505805969E-08  0.10566000000E+00  0.10566000000E+00 0.  1.
     999900   -1    0    0    0    0 -0.00000000000E+00 -0.00000000000E+00 -0.74505805969E-08  0.93827000000E+00  0.93827000000E+00 0. -1.
     999902    2    1    2    0    0  0.22393397140E-01  0.43911886636E-02  0.38900135680E-02  0.10207809400E+01  0.10205184214E+01 0.  0.
     999903    2    3    3    0    0  0.12254917745E+00  0.29542490251E-01  0.38856371962E-01  0.13405301413E+00  0.23860706834E-01 0.  0.
         14    1    1    2    0    0 -0.22393397140E-01 -0.43911886636E-02 -0.38900135680E-02  0.23149060000E-01  0.00000000000E+00 0.  1.
     999901    1    3    3    0    0 -0.10015578031E+00 -0.25151301587E-01 -0.34966358394E-01  0.88672792587E+00  0.88000000000E+00 0. -1.
        -11    1    4    4    0    0  0.41360204990E-01  0.93392944641E-03  0.19882570484E-01  0.45903338779E-01  0.51100000000E-03 0.  1.
         11    1    4    4    0    0  0.81188972462E-01  0.28608560804E-01  0.18973801478E-01  0.88149675349E-01  0.51100000000E-03 0. -1.
</event>
<event>
 8    1  0.1122465E+005  0.1043930E+01  0.7957747E-01            NaN
         13   -1    0    0    0    0  0.00000000000E+00  0.00000000000E+00  0.74505805969E-08  0.10566000000E+00  0.10566000000E+00 0.  1.
     999900   -1    0    0    0    0 -0.00000000000E+00 -0.00000000000E+00 -0.74505805969E-08  0.93827000000E+00  0.93827000000E+00 0. -1.
     999902    2    1    2    0    0 -0.93794818920E-02  0.14434665213E-01  0.15948035068E-01  0.10204635545E+01  0.10201937032E+01 0.  0.
     999903    2    3    3    0    0 -0.59722090494E-01 -0.40460025591E-01 -0.10526083153E+00  0.12903806989E+00  0.19163482564E-01 0.  0.
         14    1    1    2    0    0  0.93794818920E-02 -0.14434665213E-01 -0.15948035068E-01  0.23466445469E-01  0.00000000000E+00 0. -1.
     999901    1    3    3    0    0  0.50342608602E-01  0.54894690804E-01  0.12120886660E+00  0.89142548464E+00  0.88000000000E+00 0.  1.
        -11    1    4    4    0    0 -0.24921411630E-01 -0.28120596807E-01 -0.56951598273E-01  0.68231886895E-01  0.51100000000E-03 0.  1.
         11    1    4    4    0    0 -0.34800678864E-01 -0.12339428784E-01 -0.48309233256E-01  0.60806182999E-01  0.51100000000E-03 0. -1.
</event>
<event>
 8    1  0.1122465E+005  0.1043930E+01  0.7957747E-01            NaN
         13   -1    0    0    0    0  0.00000000000E+00  0.00000000000E+00  0.74505805969E-08  0.10566000000E+00  0.10566000000E+00 0.  1.
     999900   -1    0    0    0    0 -0.00000000000E+00 -0.00000000000E+00 -0.74505805969E-08  0.93827000000E+00  0.93827000000E+00 0.  1.
     999902    2    1    2    0    0 -0.81379669533E-02 -0.20953689303E-01  0.41523781914E-02  0.10210711757E+01  0.10208152723E+01 0.  0.
     999903    2    3    3    0    0 -0.91809466790E-01 -0.12221126276E-01  0.92807743991E-01  0.13262480628E+00  0.19943113485E-01 0.  0.
         14    1    1    2    0    0  0.81379669533E-02  0.20953689303E-01 -0.41523781914E-02  0.22858824252E-01  0.00000000000E+00 0.  1.
     999901    1    3    3    0    0  0.83671499836E-01 -0.87325630270E-02 -0.88655365799E-01  0.88844636947E+00  0.88000000000E+00 0. -1.
        -11    1    4    4    0    0 -0.32977723230E-01  0.18136626442E-02  0.22955149121E-01  0.40224614278E-01  0.51100000000E-03 0. -1.
         11    1    4    4    0    0 -0.58831743560E-01 -0.14034788921E-01  0.69852594870E-01  0.92400191999E-01  0.51100000000E-03 0.  1.
</event>
<event>
 8    1  0.1122465E+005  0.1043930E+01  0.7957747E-01            NaN
         13   -1    0    0    0    0  0.00000000000E+00  0.00000000000E+00  0.74505805969E-08  0.10566000000E+00  0.10566000000E+00 0. -1.
     999900   -1    0    0    0    0 -0.00000000000E+00 -0.00000000000E+00 -0.74505805969E-08  0.93827000000E+00  0.93827000000E+00 0.  1.
     999902    2    1    2    0    0 -0.15097765680E-01  0.14905625175E-01  0.10208107975E-01  0.10203858785E+01  0.10201142168E+01 0.  0.
     999903    2    3    3    0    0  0.12213084401E+00 -0.22708991890E-01 -0.25139452113E-01  0.12825584269E+00  0.19645044128E-01 0.  0.
         14    1    1    2    0    0  0.15097765680E-01 -0.14905625175E-01 -0.10208107975E-01  0.23544121534E-01  0.00000000000E+00 0.  1.
     999901    1    3    3    0    0 -0.13722860969E+00  0.37614617065E-01  0.35347560087E-01  0.89213003578E+00  0.88000000000E+00 0.  1.
        -11    1    4    4    0    0  0.62922452731E-01 -0.17235653741E-01 -0.48330223923E-02  0.65421113136E-01  0.51100000000E-03 0.  1.
         11    1    4    4    0    0  0.59208391282E-01 -0.54733381492E-02 -0.20306429720E-01  0.62834729550E-01  0.51100000000E-03 0. -1.
</event>
<event>
 8    1  0.1122465E+005  0.1043930E+01  0.7957747E-01            NaN
         13   -1    0    0    0    0  0.00000000000E+00  0.00000000000E+00  0.74505805969E-08  0.10566000000E+00  0.10566000000E+00 0. -1.
     999900   -1    0    0    0    0 -0.00000000000E+00 -0.00000000000E+00 -0.74505805969E-08  0.93827000000E+00  0.93827000000E+00 0.  1.
     999902    2    1    2    0    0 -0.19629257980E-01 -0.31183270488E-02 -0.12205306585E-01  0.10206061658E+01  0.10203396221E+01 0.  0.
     999903    2    3    3    0    0 -0.57109544594E-01 -0.69342115352E-01 -0.96556873568E-01  0.13330376591E+00  0.19412241673E-01 0.  0.
         14    1    1    2    0    0  0.19629257980E-01  0.31183270488E-02  0.12205306585E-01  0.23323834188E-01  0.00000000000E+00 0. -1.
     999901    1    3    3    0    0  0.37480286614E-01  0.66223788304E-01  0.84351566984E-01  0.88730239990E+00  0.88000000000E+00 0.  1.
        -11    1    4    4    0    0 -0.26211454071E-01 -0.21864975005E-01 -0.46654381171E-01  0.57810119010E-01  0.51100000000E-03 0.  1.
         11    1    4    4    0    0 -0.30898090523E-01 -0.47477140348E-01 -0.49902492397E-01  0.75493646898E-01  0.51100000000E-03 0. -1.
</event>
<event>
 8    1  0.1122465E+005  0.1043930E+01  0.7957747E-01            NaN
         13   -1    0    0    0    0  0.00000000000E+00  0.00000000000E+00  0.74505805969E-08  0.10566000000E+00  0.10566000000E+00 0.  1.
     999900   -1    0    0    0    0 -0.00000000000E+00 -0.00000000000E+00 -0.74505805969E-08  0.93827000000E+00  0.93827000000E+00 0. -1.
     999902    2    1    2    0    0  0.11315557144E-01  0.11770823691E-01  0.16353799517E-01  0.10208206754E+01  0.10205590676E+01 0.  0.
     999903    2    3    3    0    0 -0.18283725079E-01 -0.10055027895E+00 -0.76219756210E-01  0.12837347204E+00  0.15021447569E-01 0.  0.
         14    1    1    2    0    0 -0.11315557144E-01 -0.11770823691E-01 -0.16353799517E-01  0.23109324579E-01  0.00000000000E+00 0. -1.
     999901    1    3    3    0    0  0.29599282223E-01  0.11232110264E+00  0.92573555727E-01  0.89244720338E+00  0.88000000000E+00 0.  1.
        -11    1    4    4    0    0 -0.29791408274E-02 -0.43210453467E-01 -0.39232751009E-01  0.58442180329E-01  0.51100000000E-03 0.  1.
         11    1    4    4    0    0 -0.15304584252E-01 -0.57339825481E-01 -0.36987005201E-01  0.69931291709E-01  0.51100000000E-03 0. -1.
</event>
<event>
 8    1  0.1122465E+005  0.1043930E+01  0.7957747E-01            NaN
         13   -1    0    0    0    0  0.00000000000E+00  0.00000000000E+00  0.74505805969E-08  0.10566000000E+00  0.10566000000E+00 0. -1.
     999900   -1    0    0    0    0 -0.00000000000E+00 -0.00000000000E+00 -0.74505805969E-08  0.93827000000E+00  0.93827000000E+00 0. -1.
     999902    2    1    2    0    0  0.19326640381E-03  0.24651159016E-01  0.44838703453E-02  0.10188736218E+01  0.10185654791E+01 0.  0.
     999903    2    3    3    0    0 -0.59789377537E-01 -0.15844165237E-01  0.11178411165E+00  0.12940685426E+00  0.20606772528E-01 0.  0.
         14    1    1    2    0    0 -0.19326640381E-03 -0.24651159016E-01 -0.44838703453E-02  0.25056378150E-01  0.00000000000E+00 0.  1.
     999901    1    3    3    0    0  0.59982643941E-01  0.40495324253E-01 -0.10730024130E+00  0.88946676759E+00  0.88000000000E+00 0. -1.
        -11    1    4    4    0    0 -0.42653851496E-01 -0.46234640975E-02  0.88758326988E-01  0.98585136803E-01  0.51100000000E-03 0. -1.
         11    1    4    4    0    0 -0.17135526041E-01 -0.11220701140E-01  0.23025784662E-01  0.30821717458E-01  0.51100000000E-03 0.  1.
</event>
<event>
 8    1  0.1122465E+005  0.1043930E+01  0.7957747E-01            NaN
         13   -1    0    0    0    0  0.00000000000E+00  0.00000000000E+00  0.74505805969E-08  0.10566000000E+00  0.10566000000E+00 0.  1.
     999900   -1    0    0    0    0 -0.00000000000E+00 -0.00000000000E+00 -0.74505805969E-08  0.93827000000E+00  0.93827000000E+00 0.  1.
     999902    2    1    2    0    0  0.17813893646E-01 -0.30266845755E-02  0.15373724182E-01  0.10202056028E+01  0.10199297157E+01 0.  0.
     999903    2    3    3    0    0 -0.32991110671E-02  0.12684217184E+00 -0.18678794544E-01  0.12977242011E+00  0.19803104944E-01 0.  0.
         14    1    1    2    0    0 -0.17813893646E-01  0.30266845755E-02 -0.15373724182E-01  0.23724397180E-01  0.00000000000E+00 0. -1.
     999901    1    3    3    0    0  0.21113004713E-01 -0.12986885642E+00  0.34052518726E-01  0.89043318271E+00  0.88000000000E+00 0.  1.
        -11    1    4    4    0    0  0.15588861504E-02  0.10919405506E+00 -0.21329614408E-01  0.11126987624E+00  0.51100000000E-03 0.  1.
         11    1    4    4    0    0 -0.48579972175E-02  0.17648116777E-01  0.26508198640E-02  0.18502543870E-01  0.51100000000E-03 0. -1.
</event>
<event>
 8    1  0.1122465E+005  0.1043930E+01  0.7957747E-01            NaN
         13   -1    0    0    0    0  0.00000000000E+00  0.00000000000E+00  0.74505805969E-08  0.10566000000E+00  0.10566000000E+00 0. -1.
     999900   -1    0    0    0    0 -0.00000000000E+00 -0.00000000000E+00 -0.74505805969E-08  0.93827000000E+00  0.93827000000E+00 0.  1.
     999902    2    1    2    0    0 -0.15354302345E-01 -0.66223798921E-02  0.16612028835E-01  0.10203594672E+01  0.10200871885E+01 0.  0.
     999903    2    3    3    0    0  0.40387005098E-01  0.82625283996E-01 -0.87061348051E-01  0.12804763382E+00  0.18933316279E-01 0.  0.
         14    1    1    2    0    0  0.15354302345E-01  0.66223798921E-02 -0.16612028835E-01  0.23570532831E-01  0.00000000000E+00 0.  1.
     999901    1    3    3    0    0 -0.55741307443E-01 -0.89247663888E-01  0.10367337689E+00  0.89231183335E+00  0.88000000000E+00 0. -1.
        -11    1    4    4    0    0  0.16189737365E-01  0.30321889910E-01 -0.45341231619E-01  0.56900026445E-01  0.51100000000E-03 0. -1.
         11    1    4    4    0    0  0.24197267733E-01  0.52303394086E-01 -0.41720116432E-01  0.71147607371E-01  0.51100000000E-03 0.  1.
</event>
<event>
 8    1  0.1122465E+005  0.1043930E+01  0.7957747E-01            NaN
         13   -1    0    0    0    0  0.00000000000E+00  0.00000000000E+00  0.74505805969E-08  0.10566000000E+00  0.10566000000E+00 0.  1.
     999900   -1    0    0    0    0 -0.00000000000E+00 -0.00000000000E+00 -0.74505805969E-08  0.93827000000E+00  0.93827000000E+00 0. -1.
     999902    2    1    2    0    0  0.19004988943E-01  0.14267061713E-01 -0.86654348638E-03  0.10201499758E+01  0.10198727781E+01 0.  0.
     999903    2    3    3    0    0 -0.45263218698E-01  0.88366014346E-01  0.83012619931E-01  0.13073625238E+00  0.18535402918E-01 0.  0.
         14    1    1    2    0    0 -0.19004988943E-01 -0.14267061713E-01  0.86654348638E-03  0.23780024228E-01  0.00000000000E+00 0.  1.
     999901    1    3    3    0    0  0.64268207641E-01 -0.74098952634E-01 -0.83879163418E-01  0.88941372339E+00  0.88000000000E+00 0. -1.
        -11    1    4    4    0    0 -0.21725090698E-01  0.27314022106E-01  0.36158640502E-01  0.50256778382E-01  0.51100000000E-03 0. -1.
         11    1    4    4    0    0 -0.23538128000E-01  0.61051992241E-01  0.46853979430E-01  0.80479474002E-01  0.51100000000E-03 0.  1.
</event>
<event>
 8    1  0.1122465E+005  0.1043930E+01  0.7957747E-01            NaN
         13   -1    0    0    0    0  0.00000000000E+00  0.00000000000E+00  0.74505805969E-08  0.10566000000E+00  0.10566000000E+00 0.  1.
     999900   -1    0    0    0    0 -0.00000000000E+00 -0.00000000000E+00 -0.74505805969E-08  0.93827000000E+00  0.93827000000E+00 0. -1.
     999902    2    1    2    0    0 -0.23384574970E-01 -0.60037465467E-03  0.46056796199E-02  0.10200886267E+01  0.10198099800E+01 0.  0.
     999903    2    3    3    0    0 -0.90078929294E-01 -0.18071218366E-02 -0.94436242203E-01  0.13202393569E+00  0.19865461508E-01 0.  0.
         14    1    1    2    0    0  0.23384574970E-01  0.60037465467E-03 -0.46056796199E-02  0.23841373304E-01  0.00000000000E+00 0.  1.
     999901    1    3    3    0    0  0.66694354324E-01  0.12067471819E-02  0.99041921823E-01  0.88806469101E+00  0.88000000000E+00 0.  1.
        -11    1    4    4    0    0 -0.26614150932E-01  0.44922545663E-02 -0.39521499540E-01  0.47861293629E-01  0.51100000000E-03 0.  1.
         11    1    4    4    0    0 -0.63464778362E-01 -0.62993764028E-02 -0.54914742662E-01  0.84162642058E-01  0.51100000000E-03 0. -1.
</event>
<event>
 8    1  0.1122465E+005  0.1043930E+01  0.7957747E-01            NaN
         13   -1    0    0    0    0  0.00000000000E+00  0.00000000000E+00  0.74505805969E-08  0.10566000000E+00  0.10566000000E+00 0.  1.
     999900   -1    0    0    0    0 -0.00000000000E+00 -0.00000000000E+00 -0.74505805969E-08  0.93827000000E+00  0.93827000000E+00 0. -1.
     999902    2    1    2    0    0  0.19465693384E-01 -0.65131041861E-02  0.20800132626E-01  0.10147070764E+01  0.10142861883E+01 0.  0.
     999903    2    3    3    0    0  0.12185840243E+00  0.21105591086E-01 -0.22005451055E-01  0.12730672867E+00  0.20684464500E-01 0.  0.
         14    1    1    2    0    0 -0.19465693384E-01  0.65131041861E-02 -0.20800132626E-01  0.29222923575E-01  0.00000000000E+00 0. -1.
     999901    1    3    3    0    0 -0.10239270905E+00 -0.27618695272E-01  0.42805583681E-01  0.88740034775E+00  0.88000000000E+00 0.  1.
        -11    1    4    4    0    0  0.88048477353E-01  0.24067350775E-01 -0.18949801137E-01  0.93226218531E-01  0.51100000000E-03 0. -1.
         11    1    4    4    0    0  0.33809925077E-01 -0.29617596890E-02 -0.30556499183E-02  0.34080510143E-01  0.51100000000E-03 0.  1.
</event>
<event>
 8    1  0.1122465E+005  0.1043930E+01  0.7957747E-01            NaN
         13   -1    0    0    0    0  0.00000000000E+00  0.00000000000E+00  0.74505805969E-08  0.10566000000E+00  0.10566000000E+00 0.  1.
     999900   -1    0    0    0    0 -0.00000000000E+00 -0.00000000000E+00 -0.74505805969E-08  0.93827000000E+00  0.93827000000E+00 0.  1.
     999902    2    1    2    0    0  0.12902215767E-01 -0.11538628765E-01  0.19560307446E-01  0.10178107972E+01  0.10174756047E+01 0.  0.
     999903    2    3    3    0    0  0.30271502813E-01  0.97127950015E-01 -0.72295986511E-01  0.12621240322E+00  0.18779204039E-01 0.  0.
         14    1    1    2    0    0 -0.12902215767E-01  0.11538628765E-01 -0.19560307446E-01  0.26119202761E-01  0.00000000000E+00 0. -1.
     999901    1    3    3    0    0 -0.17369287046E-01 -0.10866657878E+00  0.91856293958E-01  0.89159839402E+00  0.88000000000E+00 0. -1.
        -11    1    4    4    0    0  0.27023516657E-01  0.86988459884E-01 -0.56613166282E-01  0.10725005512E+00  0.51100000000E-03 0. -1.
         11    1    4    4    0    0  0.32479861562E-02  0.10139490131E-01 -0.15682820229E-01  0.18962348102E-01  0.51100000000E-03 0.  1.
</event>
<event>
 8    1  0.1122465E+005  0.1043930E+01  0.7957747E-01            NaN
         13   -1    0    0    0    0  0.00000000000E+00  0.00000000000E+00  0.74505805969E-08  0.10566000000E+00  0.10566000000E+00 0. -1.
     999900   -1    0    0    0    0 -0.00000000000E+00 -0.00000000000E+00 -0.74505805969E-08  0.93827000000E+00  0.93827000000E+00 0.  1.
     999902    2    1    2    0    0  0.15585654795E-01  0.17764692496E-01  0.81716391189E-02  0.10189245482E+01  0.10186176723E+01 0.  0.
     999903    2    3    3    0    0  0.12762803531E+00  0.73842984885E-02  0.24477995299E-01  0.13160997889E+00  0.19456901819E-01 0.  0.
         14    1    1    2    0    0 -0.15585654795E-01 -0.17764692496E-01 -0.81716391189E-02  0.25005451821E-01  0.00000000000E+00 0.  1.
     999901    1    3    3    0    0 -0.11204238052E+00  0.10380394008E-01 -0.16306356180E-01  0.88731456928E+00  0.88000000000E+00 0.  1.
        -11    1    4    4    0    0  0.54177809005E-01 -0.38296942071E-02  0.36253377139E-02  0.54436253920E-01  0.51100000000E-03 0. -1.
         11    1    4    4    0    0  0.73450226309E-01  0.11213992696E-01  0.20852657586E-01  0.77173724975E-01  0.51100000000E-03 0.  1.
</event>
<event>
 8    1  0.1122465E+005  0.1043930E+01  0.7957747E-01            NaN
         13   -1    0    0    0    0  0.00000000000E+00  0.00000000000E+00  0.74505805969E-08  0.10566000000E+00  0.10566000000E+00 0. -1.
     999900   -1    0    0    0    0 -0.00000000000E+00 -0.00000000000E+00 -0.74505805969E-08  0.93827000000E+00  0.93827000000E+00 0. -1.
     999902    2    1    2    0    0 -0.22590166565E-03  0.16201085834E-01 -0.19236243655E-01  0.10187792687E+01  0.10184687718E+01 0.  0.
     999903    2    3    3    0    0 -0.25065821038E-01 -0.71160278803E-01  0.99147809055E-01  0.12621901106E+00  0.20220535327E-01 0.  0.
         14    1    1    2    0    0  0.22590166565E-03 -0.16201085834E-01  0.19236243655E-01  0.25150731276E-01  0.00000000000E+00 0. -1.
     999901    1    3    3    0    0  0.24839919373E-01  0.87361364637E-01 -0.11838405271E+00  0.89256025766E+00  0.88000000000E+00 0. -1.
        -11    1    4    4    0    0 -0.26155631000E-02 -0.36042539010E-01  0.40706017043E-01  0.54434793406E-01  0.51100000000E-03 0.  1.
         11    1    4    4    0    0 -0.22450257938E-01 -0.35117739793E-01  0.58441792012E-01  0.71784217654E-01  0.51100000000E-03 0. -1.
</event>
<event>
 8    1  0.1122465E+005  0.1043930E+01  0.7957747E-01            NaN
         13   -1    0    0    0    0  0.00000000000E+00  0.00000000000E+00  0.74505805969E-08  0.10566000000E+00  0.10566000000E+00 0.  1.
     999900   -1    0    0    0    0 -0.00000000000E+00 -0.00000000000E+00 -0.74505805969E-08  0.93827000000E+00  0.93827000000E+00 0.  1.
     999902    2    1    2    0    0 -0.23512362903E-01  0.12620613347E-02 -0.25201984128E-02  0.10202493030E+01  0.10199744433E+01 0.  0.
     999903    2    3    3    0    0  0.11573387612E-01  0.11161508838E+00  0.63039041437E-01  0.13024547474E+00  0.19952235248E-01 0.  0.
         14    1    1    2    0    0  0.23512362903E-01 -0.12620613347E-02  0.25201984128E-02  0.23680696952E-01  0.00000000000E+00 0. -1.
     999901    1    3    3    0    0 -0.35085750514E-01 -0.11035302704E+00 -0.65559239850E-01  0.89000382830E+00  0.88000000000E+00 0.  1.
        -11    1    4    4    0    0  0.99237612166E-03  0.88928762165E-01  0.49164308887E-01  0.10162037168E+00  0.51100000000E-03 0.  1.
         11    1    4    4    0    0  0.10581011490E-01  0.22686326214E-01  0.13874732550E-01  0.28625103067E-01  0.51100000000E-03 0. -1.
</event>
<event>
 8    1  0.1122465E+005  0.1043930E+01  0.7957747E-01            NaN
         13   -1    0    0    0    0  0.00000000000E+00  0.00000000000E+00  0.74505805969E-08  0.10566000000E+00  0.10566000000E+00 0. -1.
     999900   -1    0    0    0    0 -0.00000000000E+00 -0.00000000000E+00 -0.74505805969E-08  0.93827000000E+00  0.93827000000E+00 0.  1.
     999902    2    1    2    0    0 -0.11110915418E-01 -0.97436545157E-03  0.20486447708E-01  0.10206041266E+01  0.10203375358E+01 0.  0.
     999903    2    3    3    0    0 -0.24804470387E-01  0.12322850103E+00 -0.28115498239E-01  0.13044907572E+00  0.20638674816E-01 0.  0.
         14    1    1    2    0    0  0.11110915418E-01  0.97436545157E-03 -0.20486447708E-01  0.23325873385E-01  0.00000000000E+00 0.  1.
     999901    1    3    3    0    0  0.13693554968E-01 -0.12420286648E+00  0.48601945947E-01  0.89015505090E+00  0.88000000000E+00 0.  1.
        -11    1    4    4    0    0 -0.22571552791E-01  0.98984267482E-01 -0.14522033391E-01  0.10255979124E+00  0.51100000000E-03 0. -1.
         11    1    4    4    0    0 -0.22329175951E-02  0.24244233543E-01 -0.13593464848E-01  0.27889284477E-01  0.51100000000E-03 0.  1.
</event>
<event>
 8    1  0.1122465E+005  0.1043930E+01  0.7957747E-01            NaN
         13   -1    0    0    0    0  0.00000000000E+00  0.00000000000E+00  0.74505805969E-08  0.10566000000E+00  0.10566000000E+00 0. -1.
     999900   -1    0    0    0    0 -0.00000000000E+00 -0.00000000000E+00 -0.74505805969E-08  0.93827000000E+00  0.93827000000E+00 0. -1.
     999902    2    1    2    0    0 -0.15648162628E-02  0.72646840709E-02  0.19925526212E-01  0.10226638090E+01  0.10224426709E+01 0.  0.
     999903    2    3    3    0    0  0.52886418531E-01  0.59136406421E-01  0.10752665662E+00  0.13512250259E+00  0.20050461121E-01 0.  0.
         14    1    1    2    0    0  0.15648162628E-02 -0.72646840709E-02 -0.19925526212E-01  0.21266190994E-01  0.00000000000E+00 0.  1.
     999901    1    3    3    0    0 -0.54451234794E-01 -0.51871722350E-01 -0.87601130413E-01  0.88754130642E+00  0.88000000000E+00 0. -1.
        -11    1    4    4    0    0  0.40245944185E-01  0.32678806999E-01  0.60217456983E-01  0.79460957059E-01  0.51100000000E-03 0. -1.
         11    1    4    4    0    0  0.12640474346E-01  0.26457599422E-01  0.47309199641E-01  0.55661545528E-01  0.51100000000E-03 0.  1.
</event>
<event>
 8    1  0.1122465E+005  0.1043930E+01  0.7957747E-01            NaN
         13   -1    0    0    0    0  0.00000000000E+00  0.00000000000E+00  0.74505805969E-08  0.10566000000E+00  0.10566000000E+00 0. -1.
     999900   -1    0    0    0    0 -0.00000000000E+00 -0.00000000000E+00 -0.74505805969E-08  0.93827000000E+00  0.93827000000E+00 0. -1.
     999902    2    1    2    0    0  0.17246624513E-01  0.34099783436E-02  0.15958928033E-01  0.10201863399E+01  0.10199099994E+01 0.  0.
     999903    2    3    3    0    0 -0.41351481668E-01  0.12054147616E+00 -0.13775600210E-01  0.12999665902E+00  0.21660371310E-01 0.  0.
         14    1    1    2    0    0 -0.17246624513E-01 -0.34099783436E-02 -0.15958928033E-01  0.23743660067E-01  0.00000000000E+00 0.  1.
     999901    1    3    3    0    0  0.58598106181E-01 -0.11713149782E+00  0.29734528243E-01  0.89018968091E+00  0.88000000000E+00 0.  1.
        -11    1    4    4    0    0 -0.33055950941E-01  0.65222009742E-01 -0.42009318310E-02  0.73242852188E-01  0.51100000000E-03 0. -1.
         11    1    4    4    0    0 -0.82955307273E-02  0.55319466417E-01 -0.95746683787E-02  0.56753806835E-01  0.51100000000E-03 0.  1.
</event>
<event>
 8    1  0.1122465E+005  0.1043930E+01  0.7957747E-01            NaN
         13   -1    0    0    0    0  0.00000000000E+00  0.00000000000E+00  0.74505805969E-08  0.10566000000E+00  0.10566000000E+00 0.  1.
     999900   -1    0    0    0    0 -0.00000000000E+00 -0.00000000000E+00 -0.74505805969E-08  0.93827000000E+00  0.93827000000E+00 0.  1.
     999902    2    1    2    0    0 -0.15003762240E-01 -0.19516626714E-01  0.26542115481E-02  0.10191700235E+01  0.10188692165E+01 0.  0.
     999903    2    3    3    0    0 -0.46032055617E-01 -0.46873732514E-01 -0.11139706213E+00  0.13084640041E+00  0.19884116870E-01 0.  0.
         14    1    1    2    0    0  0.15003762240E-01  0.19516626714E-01 -0.26542115481E-02  0.24759976547E-01  0.00000000000E+00 0. -1.
     999901    1    3    3    0    0  0.31028293377E-01  0.27357105800E-01  0.11405127368E+00  0.88832362304E+00  0.88000000000E+00 0. -1.
        -11    1    4    4    0    0 -0.35586641058E-01 -0.35517637383E-01 -0.99038341927E-01  0.11107099477E+00  0.51100000000E-03 0.  1.
         11    1    4    4    0    0 -0.10445414559E-01 -0.11356095131E-01 -0.12358720208E-01  0.19775405637E-01  0.51100000000E-03 0. -1.
</event>
<event>
 8    1  0.1122465E+005  0.1043930E+01  0.7957747E-01            NaN
         13   -1    0    0    0    0  0.00000000000E+00  0.00000000000E+00  0.74505805969E-08  0.10566000000E+00  0.10566000000E+00 0. -1.
     999900   -1    0    0    0    0 -0.00000000000E+00 -0.00000000000E+00 -0.74505805969E-08  0.93827000000E+00  0.93827000000E+00 0.  1.
     999902    2    1    2    0    0 -0.21449480511E-02  0.10478375158E-01  0.21629468974E-01  0.10198005351E+01  0.10195150319E+01 0.  0.
     999903    2    3    3    0    0  0.75657322595E-01  0.10493073702E+00 -0.15219955628E-02  0.13103148057E+00  0.20795249369E-01 0.  0.
         14    1    1    2    0    0  0.21449480511E-02 -0.10478375158E-01 -0.21629468974E-01  0.24129464897E-01  0.00000000000E+00 0.  1.
     999901    1    3    3    0    0 -0.77802270646E-01 -0.94452361865E-01  0.23151464537E-01  0.88876905453E+00  0.88000000000E+00 0. -1.
        -11    1    4    4    0    0  0.45368110030E-01  0.79021637203E-01 -0.25509928872E-02  0.91156202420E-01  0.51100000000E-03 0.  1.
         11    1    4    4    0    0  0.30289212565E-01  0.25909099820E-01  0.10289973244E-02  0.39875278153E-01  0.51100000000E-03 0. -1.
</event>
<event>
 8    1  0.1122465E+005  0.1043930E+01  0.7957747E-01            NaN
         13   -1    0    0    0    0  0.00000000000E+00  0.00000000000E+00  0.74505805969E-08  0.10566000000E+00  0.10566000000E+00 0. -1.
     999900   -1    0    0    0    0 -0.00000000000E+00 -0.00000000000E+00 -0.74505805969E-08  0.93827000000E+00  0.93827000000E+00 0. -1.
     999902    2    1    2    0    0 -0.16293917602E-01 -0.18031709345E-01 -0.19398188212E-02  0.10195497377E+01  0.10192581962E+01 0.  0.
     999903    2    3    3    0    0  0.47210348221E-01 -0.12061602403E+00 -0.78355942119E-02  0.13129803150E+00  0.20018349296E-01 0.  0.
         14    1    1    2    0    0  0.16293917602E-01  0.18031709345E-01  0.19398188212E-02  0.24380262299E-01  0.00000000000E+00 0.  1.
     999901    1    3    3    0    0 -0.63504265823E-01  0.10258431468E+00  0.58957753907E-02  0.88825170620E+00  0.88000000000E+00 0. -1.
        -11    1    4    4    0    0  0.22193867368E-01 -0.33561421271E-01 -0.61245979694E-02  0.40702685019E-01  0.51100000000E-03 0.  1.
         11    1    4    4    0    0  0.25016480853E-01 -0.87054602756E-01 -0.17109962425E-02  0.90595346484E-01  0.51100000000E-03 0. -1.
</event>
<event>
 8    1  0.1122465E+005  0.1043930E+01  0.7957747E-01            NaN
         13   -1    0    0    0    0  0.00000000000E+00  0.00000000000E+00  0.74505805969E-08  0.10566000000E+00  0.10566000000E+00 0.  1.
     999900   -1    0    0    0    0 -0.00000000000E+00 -0.00000000000E+00 -0.74505805969E-08  0.93827000000E+00  0.93827000000E+00 0. -1.
     999902    2    1    2    0    0 -0.17788502982E-01 -0.72128910212E-02 -0.11271059594E-01  0.10216703185E+01  0.10214277979E+01 0.  0.
     999903    2    3    3    0    0  0.12704297249E+00  0.84497186715E-02  0.12048304723E-01  0.12938938385E+00  0.19624892340E-01 0.  0.
         14    1    1    2    0    0  0.17788502982E-01  0.72128910212E-02  0.11271059594E-01  0.22259681480E-01  0.00000000000E+00 0.  1.
     999901    1    3    3    0    0 -0.14483147548E+00 -0.15662609693E-01 -0.23319364317E-01  0.89228093467E+00  0.88000000000E+00 0. -1.
        -11    1    4    4    0    0  0.27039126419E-01  0.97957652818E-02  0.11978812048E-02  0.28788320815E-01  0.51100000000E-03 0. -1.
         11    1    4    4    0    0  0.10000384608E+00 -0.13460466103E-02  0.10850423518E-01  0.10060106303E+00  0.51100000000E-03 0.  1.
</event>
<event>
 8    1  0.1122465E+005  0.1043930E+01  0.7957747E-01            NaN
         13   -1    0    0    0    0  0.00000000000E+00  0.00000000000E+00  0.74505805969E-08  0.10566000000E+00  0.10566000000E+00 0.  1.
     999900   -1    0    0    0    0 -0.00000000000E+00 -0.00000000000E+00 -0.74505805969E-08  0.93827000000E+00  0.93827000000E+00 0.  1.
     999902    2    1    2    0    0  0.12715864539E-01 -0.92890918861E-02  0.17293957644E-01  0.10205406561E+01  0.10202725956E+01 0.  0.
     999903    2    3    3    0    0  0.57046996285E-01 -0.85261266374E-01 -0.78570801664E-01  0.13097499091E+00  0.21383031595E-01 0.  0.
         14    1    1    2    0    0 -0.12715864539E-01  0.92890918861E-02 -0.17293957644E-01  0.23389343942E-01  0.00000000000E+00 0. -1.
     999901    1    3    3    0    0 -0.44331131746E-01  0.75972174488E-01  0.95864759308E-01  0.88956566515E+00  0.88000000000E+00 0. -1.
        -11    1    4    4    0    0  0.23751285176E-01 -0.23122675475E-01 -0.16435367531E-01  0.37002217440E-01  0.51100000000E-03 0. -1.
         11    1    4    4    0    0  0.33295711109E-01 -0.62138590899E-01 -0.62135434133E-01  0.93972773467E-01  0.51100000000E-03 0.  1.
</event>
<event>
 8    1  0.1122465E+005  0.1043930E+01  0.7957747E-01            NaN
         13   -1    0    0    0    0  0.00000000000E+00  0.00000000000E+00  0.74505805969E-08  0.10566000000E+00  0.10566000000E+00 0. -1.
     999900   -1    0    0    0    0 -0.00000000000E+00 -0.00000000000E+00 -0.74505805969E-08  0.93827000000E+00  0.93827000000E+00 0.  1.
     999902    2    1    2    0    0 -0.54621899812E-02  0.18184402093E-01 -0.13514413858E-01  0.10206244775E+01  0.10203583570E+01 0.  0.
     999903    2    3    3    0    0 -0.93581564202E-01  0.92344276132E-01  0.17132242381E-02  0.13298908385E+00  0.19954618334E-01 0.  0.
         14    1    1    2    0    0  0.54621899812E-02 -0.18184402093E-01  0.13514413858E-01  0.23305522539E-01  0.00000000000E+00 0. -1.
     999901    1    3    3    0    0  0.88119374221E-01 -0.74159874039E-01 -0.15227638096E-01  0.88763539361E+00  0.88000000000E+00 0.  1.
        -11    1    4    4    0    0 -0.61264817728E-01  0.65138762574E-01  0.98532120537E-02  0.89965455535E-01  0.51100000000E-03 0.  1.
         11    1    4    4    0    0 -0.32316746475E-01  0.27205513558E-01 -0.81399878157E-02  0.43023628314E-01  0.51100000000E-03 0. -1.
</event>
<event>
 8    1  0.1132603E+005  0.1043930E+01  0.7957747E-01            NaN
         13   -1    0    0    0    0  0.00000000000E+00  0.00000000000E+00  0.74505805969E-08  0.10566000000E+00  0.10566000000E+00 0. -1.
     999900   -1    0    0    0    0 -0.00000000000E+00 -0.00000000000E+00 -0.74505805969E-08  0.93827000000E+00  0.93827000000E+00 0. -1.
     999902    2    1    2    0    0 -0.10483391446E-01 -0.93666926725E-02  0.21243924026E-01  0.10184556848E+01  0.10181370444E+01 0.  0.
     999903    2    3    3    0    0 -0.34936113406E-01 -0.10983474109E+00 -0.54735442770E-01  0.12914998451E+00  0.19988682579E-01 0.  0.
         14    1    1    2    0    0  0.10483391446E-01  0.93666926725E-02 -0.21243924026E-01  0.25474315218E-01  0.00000000000E+00 0.  1.
     999901    1    3    3    0    0  0.24452721960E-01  0.10046804842E+00  0.75979366796E-01  0.88930570028E+00  0.88000000000E+00 0. -1.
        -11    1    4    4    0    0 -0.32496548666E-01 -0.71432093985E-01 -0.35723243118E-01  0.86226335572E-01  0.51100000000E-03 0.  1.
         11    1    4    4    0    0 -0.24395647397E-02 -0.38402647110E-01 -0.19012199652E-01  0.42923648934E-01  0.51100000000E-03 0. -1.
</event>
<event>
 8    1  0.1122465E+005  0.1043930E+01  0.7957747E-01            NaN
         13   -1    0    0    0    0  0.00000000000E+00  0.00000000000E+00  0.74505805969E-08  0.10566000000E+00  0.10566000000E+00 0. -1.
     999900   -1    0    0    0    0 -0.00000000000E+00 -0.00000000000E+00 -0.74505805969E-08  0.93827000000E+00  0.93827000000E+00 0. -1.
     999902    2    1    2    0    0  0.13323861630E-02  0.18751175690E-01  0.68802371636E-02  0.10239120204E+01  0.10237163211E+01 0.  0.
     999903    2    3    3    0    0 -0.97240393277E-01  0.58977856835E-01  0.70439422176E-01  0.13521941400E+00  0.19710303005E-01 0.  0.
         14    1    1    2    0    0 -0.13323861630E-02 -0.18751175690E-01 -0.68802371636E-02  0.20017979571E-01  0.00000000000E+00 0. -1.
     999901    1    3    3    0    0  0.98572779440E-01 -0.40226681145E-01 -0.63559185012E-01  0.88869260643E+00  0.88000000000E+00 0. -1.
        -11    1    4    4    0    0 -0.31945316201E-01  0.30470178742E-01  0.25586522096E-01  0.51028092789E-01  0.51100000000E-03 0.  1.
         11    1    4    4    0    0 -0.65295077076E-01  0.28507678093E-01  0.44852900079E-01  0.84191321211E-01  0.51100000000E-03 0. -1.
</event>
<event>
 8    1  0.1122465E+005  0.1043930E+01  0.7957747E-01            NaN
         13   -1    0    0    0    0  0.00000000000E+00  0.00000000000E+00  0.74505805969E-08  0.10566000000E+00  0.10566000000E+00 0. -1.
     999900   -1    0    0    0    0 -0.00000000000E+00 -0.00000000000E+00 -0.74505805969E-08  0.93827000000E+00  0.93827000000E+00 0. -1.
     999902    2    1    2    0    0  0.18171826263E-01  0.15079096677E-01 -0.45765851022E-02  0.10198771507E+01  0.10195934793E+01 0.  0.
     999903    2    3    3    0    0  0.35649116175E-01 -0.21983983599E-01  0.12122173912E+00  0.12998707553E+00  0.21160688793E-01 0.  0.
         14    1    1    2    0    0 -0.18171826263E-01 -0.15079096677E-01  0.45765851022E-02  0.24052849260E-01  0.00000000000E+00 0. -1.
     999901    1    3    3    0    0 -0.17477289912E-01  0.37063080276E-01 -0.12579832422E+00  0.88989007521E+00  0.88000000000E+00 0. -1.
        -11    1    4    4    0    0  0.11975962940E-01  0.16158872343E-02  0.19846997956E-01  0.23242186403E-01  0.51100000000E-03 0.  1.
         11    1    4    4    0    0  0.23673153235E-01 -0.23599870833E-01  0.10137474116E+00  0.10674488913E+00  0.51100000000E-03 0. -1.
</event>
<event>
 8    1  0.1122465E+005  0.1043930E+01  0.7957747E-01            NaN
         13   -1    0    0    0    0  0.00000000000E+00  0.00000000000E+00  0.74505805969E-08  0.10566000000E+00  0.10566000000E+00 0.  1.
     999900   -1    0    0    0    0 -0.00000000000E+00 -0.00000000000E+00 -0.74505805969E-08  0.93827000000E+00  0.93827000000E+00 0. -1.
     999902    2    1    2    0    0 -0.92926957662E-02  0.15715752737E-01 -0.14474755338E-01  0.10206306948E+01  0.10203647179E+01 0.  0.
     999903    2    3    3    0    0  0.10325785546E+00 -0.98064321459E-02 -0.77025425794E-01  0.13089388270E+00  0.21022404332E-01 0.  0.
         14    1    1    2    0    0  0.92926957662E-02 -0.15715752737E-01  0.14474755338E-01  0.23299305156E-01  0.00000000000E+00 0. -1.
     999901    1    3    3    0    0 -0.11255055123E+00  0.25522184883E-01  0.62550670456E-01  0.88973681214E+00  0.88000000000E+00 0. -1.
        -11    1    4    4    0    0  0.71516853646E-01  0.18141620155E-02 -0.46337897087E-01  0.85237394181E-01  0.51100000000E-03 0. -1.
         11    1    4    4    0    0  0.31741001818E-01 -0.11620594161E-01 -0.30687528706E-01  0.45656488522E-01  0.51100000000E-03 0.  1.
</event>
<event>
 8    1  0.1122465E+005  0.1043930E+01  0.7957747E-01            NaN
         13   -1    0    0    0    0  0.00000000000E+00  0.00000000000E+00  0.74505805969E-08  0.10566000000E+00  0.10566000000E+00 0.  1.
     999900   -1    0    0    0    0 -0.00000000000E+00 -0.00000000000E+00 -0.74505805969E-08  0.93827000000E+00  0.93827000000E+00 0. -1.
     999902    2    1    2    0    0 -0.25481200750E-01 -0.33956216704E-02 -0.44659241312E-03  0.10182196658E+01  0.10178950175E+01 0.  0.
     999903    2    3    3    0    0  0.21608479057E-01 -0.91186249926E-01  0.85546266166E-01  0.12843350946E+00  0.19878233160E-01 0.  0.
         14    1    1    2    0    0  0.25481200750E-01  0.33956216704E-02  0.44659241312E-03  0.25710334167E-01  0.00000000000E+00 0. -1.
     999901    1    3    3    0    0 -0.47089679807E-01  0.87790628255E-01 -0.85992858579E-01  0.88978615638E+00  0.88000000000E+00 0. -1.
        -11    1    4    4    0    0  0.24791185093E-01 -0.77258785747E-01  0.76494030288E-01  0.11151287201E+00  0.51100000000E-03 0. -1.
         11    1    4    4    0    0 -0.31827060358E-02 -0.13927464179E-01  0.90522358784E-02  0.16920637445E-01  0.51100000000E-03 0.  1.
</event>
<event>
 8    1  0.1122465E+005  0.1043930E+01  0.7957747E-01            NaN
         13   -1    0    0    0    0  0.00000000000E+00  0.00000000000E+00  0.74505805969E-08  0.10566000000E+00  0.10566000000E+00 0.  1.
     999900   -1    0    0    0    0 -0.00000000000E+00 -0.00000000000E+00 -0.74505805969E-08  0.93827000000E+00  0.93827000000E+00 0.  1.
     999902    2    1    2    0    0 -0.20943870906E-01 -0.79162513557E-02  0.75101959990E-02  0.10203139925E+01  0.10200406500E+01 0.  0.
     999903    2    3    3    0    0  0.79037704682E-01  0.75327475353E-02  0.10055495814E+00  0.12964440466E+00  0.19815928090E-01 0.  0.
         14    1    1    2    0    0  0.20943870906E-01  0.79162513557E-02 -0.75101959990E-02  0.23616007452E-01  0.00000000000E+00 0. -1.
     999901    1    3    3    0    0 -0.99981575588E-01 -0.15448998891E-01 -0.93044762143E-01  0.89066958789E+00  0.88000000000E+00 0.  1.
        -11    1    4    4    0    0  0.64771868613E-01  0.84270835835E-02  0.69080698490E-01  0.95072681283E-01  0.51100000000E-03 0.  1.
         11    1    4    4    0    0  0.14265836069E-01 -0.89433604824E-03  0.31474259652E-01  0.34571723378E-01  0.51100000000E-03 0. -1.
</event>
<event>
 8    1  0.1122465E+005  0.1043930E+01  0.7957747E-01            NaN
         13   -1    0    0    0    0  0.00000000000E+00  0.00000000000E+00  0.74505805969E-08  0.10566000000E+00  0.10566000000E+00 0.  1.
     999900   -1    0    0    0    0 -0.00000000000E+00 -0.00000000000E+00 -0.74505805969E-08  0.93827000000E+00  0.93827000000E+00 0. -1.
     999902    2    1    2    0    0 -0.46905255722E-02 -0.21504653848E-01  0.88028774289E-02  0.10202246880E+01  0.10199492498E+01 0.  0.
     999903    2    3    3    0    0  0.28204389503E-01 -0.15207874558E-01 -0.12409090613E+00  0.12961675932E+00  0.19369674173E-01 0.  0.
         14    1    1    2    0    0  0.46905255722E-02  0.21504653848E-01 -0.88028774289E-02  0.23705312027E-01  0.00000000000E+00 0. -1.
     999901    1    3    3    0    0 -0.32894915075E-01 -0.62967792905E-02  0.13289378356E+00  0.89060792865E+00  0.88000000000E+00 0.  1.
        -11    1    4    4    0    0  0.25170506628E-01 -0.14000327926E-01 -0.73883279374E-01  0.79300464551E-01  0.51100000000E-03 0.  1.
         11    1    4    4    0    0  0.30338828747E-02 -0.12075466319E-02 -0.50207626755E-01  0.50316294771E-01  0.51100000000E-03 0. -1.
</event>
<event>
 8    1  0.1122465E+005  0.1043930E+01  0.7957747E-01            NaN
         13   -1    0    0    0    0  0.00000000000E+00  0.00000000000E+00  0.74505805969E-08  0.10566000000E+00  0.10566000000E+00 0.  1.
     999900   -1    0    0    0    0 -0.00000000000E+00 -0.00000000000E+00 -0.74505805969E-08  0.93827000000E+00  0.93827000000E+00 0. -1.
     999902    2    1    2    0    0 -0.23168048976E-01 -0.44545601220E-02  0.29303194918E-02  0.10201563093E+01  0.10198792610E+01 0.  0.
     999903    2    3    3    0    0 -0.10267840009E+00  0.79422928646E-01 -0.16372658776E-01  0.13238948513E+00  0.20200405335E-01 0.  0.
         14    1    1    2    0    0  0.23168048976E-01  0.44545601220E-02 -0.29303194918E-02  0.23773690743E-01  0.00000000000E+00 0. -1.
     999901    1    3    3    0    0  0.79510351119E-01 -0.83877488768E-01  0.19302978267E-01  0.88776682413E+00  0.88000000000E+00 0.  1.
        -11    1    4    4    0    0 -0.77563587608E-01  0.49115734328E-01 -0.14804232529E-01  0.92994042299E-01  0.51100000000E-03 0.  1.
         11    1    4    4    0    0 -0.25114812487E-01  0.30307194318E-01 -0.15684262469E-02  0.39395442827E-01  0.51100000000E-03 0. -1.
</event>
<event>
 8    1  0.1122465E+005  0.1043930E+01  0.7957747E-01            NaN
         13   -1    0    0    0    0  0.00000000000E+00  0.00000000000E+00  0.74505805969E-08  0.10566000000E+00  0.10566000000E+00 0.  1.
     999900   -1    0    0    0    0 -0.00000000000E+00 -0.00000000000E+00 -0.74505805969E-08  0.93827000000E+00  0.93827000000E+00 0. -1.
     999902    2    1    2    0    0 -0.96026360732E-02 -0.24935965194E-01 -0.44161948866E-02  0.10168465040E+01  0.10164857583E+01 0.  0.
     999903    2    3    3    0    0 -0.53982379733E-01  0.34068906212E-01 -0.10858055303E+00  0.12763260957E+00  0.20629077431E-01 0.  0.
         14    1    1    2    0    0  0.96026360732E-02  0.24935965194E-01  0.44161948866E-02  0.27083496026E-01  0.00000000000E+00 0. -1.
     999901    1    3    3    0    0  0.44379743660E-01 -0.59004871406E-01  0.10416435815E+00  0.88921389441E+00  0.88000000000E+00 0.  1.
        -11    1    4    4    0    0 -0.18539385023E-01  0.14437852255E-01 -0.22713301575E-01  0.32685096974E-01  0.51100000000E-03 0.  1.
         11    1    4    4    0    0 -0.35442994710E-01  0.19631053957E-01 -0.85867251460E-01  0.94947512594E-01  0.51100000000E-03 0. -1.
</event>
<event>
 8    1  0.1122465E+005  0.1043930E+01  0.7957747E-01            NaN
         13   -1    0    0    0    0  0.00000000000E+00  0.00000000000E+00  0.74505805969E-08  0.10566000000E+00  0.10566000000E+00 0.  1.
     999900   -1    0    0    0    0 -0.00000000000E+00 -0.00000000000E+00 -0.74505805969E-08  0.93827000000E+00  0.93827000000E+00 0. -1.
     999902    2    1    2    0    0  0.21984861359E-01  0.44413746129E-02  0.30518351239E-02  0.10212943283E+01  0.10210434522E+01 0.  0.
     999903    2    3    3    0    0  0.12427123985E+00 -0.12726110448E-01  0.45151389437E-01  0.13420380400E+00  0.19149885083E-01 0.  0.
         14    1    1    2    0    0 -0.21984861359E-01 -0.44413746129E-02 -0.30518351239E-02  0.22635671739E-01  0.00000000000E+00 0.  1.
     999901    1    3    3    0    0 -0.10228637849E+00  0.17167485061E-01 -0.42099554313E-01  0.88709052427E+00  0.88000000000E+00 0. -1.
        -11    1    4    4    0    0  0.19253122577E-01  0.42431285147E-02  0.10362401093E-01  0.22278405373E-01  0.51100000000E-03 0. -1.
         11    1    4    4    0    0  0.10501811727E+00 -0.16969238963E-01  0.34788988344E-01  0.11192539862E+00  0.51100000000E-03 0.  1.
</event>
<event>
 8    1  0.1122465E+005  0.1043930E+01  0.7957747E-01            NaN
         13   -1    0    0    0    0  0.00000000000E+00  0.00000000000E+00  0.74505805969E-08  0.10566000000E+00  0.10566000000E+00 0. -1.
     999900   -1    0    0    0    0 -0.00000000000E+00 -0.00000000000E+00 -0.74505805969E-08  0.93827000000E+00  0.93827000000E+00 0. -1.
     999902    2    1    2    0    0 -0.25329512393E-02  0.29733858391E-03 -0.23881653186E-01  0.10199125561E+01  0.10196297291E+01 0.  0.
     999903    2    3    3    0    0 -0.12559542491E+00 -0.20851477503E-01 -0.24125014927E-01  0.13109778121E+00  0.19890123709E-01 0.  0.
         14    1    1    2    0    0  0.25329512393E-02 -0.29733858391E-03  0.23881653186E-01  0.24017443892E-01  0.00000000000E+00 0. -1.
     999901    1    3    3    0    0  0.12306247367E+00  0.21148816086E-01  0.24336174106E-03  0.88881477490E+00  0.88000000000E+00 0.  1.
        -11    1    4    4    0    0 -0.18127406693E-01 -0.51778793866E-02 -0.10650627632E-01  0.21658954229E-01  0.51100000000E-03 0. -1.
         11    1    4    4    0    0 -0.10746801822E+00 -0.15673598116E-01 -0.13474387295E-01  0.10943882698E+00  0.51100000000E-03 0.  1.
</event>
<event>
 8    1  0.1122465E+005  0.1043930E+01  0.7957747E-01            NaN
         13   -1    0    0    0    0  0.00000000000E+00  0.00000000000E+00  0.74505805969E-08  0.10566000000E+00  0.10566000000E+00 0.  1.
     999900   -1    0    0    0    0 -0.00000000000E+00 -0.00000000000E+00 -0.74505805969E-08  0.93827000000E+00  0.93827000000E+00 0. -1.
     999902    2    1    2    0    0 -0.18486935093E-01 -0.13962473843E-01  0.39929821493E-02  0.10204212495E+01  0.10201504129E+01 0.  0.
     999903    2    3    3    0    0  0.15260023549E-02  0.68098477972E-01 -0.10803006146E+00  0.12930751948E+00  0.20253617716E-01 0.  0.
         14    1    1    2    0    0  0.18486935093E-01  0.13962473843E-01 -0.39929821493E-02  0.23508750528E-01  0.00000000000E+00 0.  1.
     999901    1    3    3    0    0 -0.20012937448E-01 -0.82060951815E-01  0.11202304361E+00  0.89111372999E+00  0.88000000000E+00 0.  1.
        -11    1    4    4    0    0 -0.26885105147E-02  0.66440030321E-01 -0.10158614852E+00  0.12141463013E+00  0.51100000000E-03 0. -1.
         11    1    4    4    0    0  0.42145128695E-02  0.16584476506E-02 -0.64439129359E-02  0.78928893482E-02  0.51100000000E-03 0.  1.
</event>
<event>
 8    1  0.1122465E+005  0.1043930E+01  0.7957747E-01            NaN
         13   -1    0    0    0    0  0.00000000000E+00  0.00000000000E+00  0.74505805969E-08  0.10566000000E+00  0.10566000000E+00 0.  1.
     999900   -1    0    0    0    0 -0.00000000000E+00 -0.00000000000E+00 -0.74505805969E-08  0.93827000000E+00  0.93827000000E+00 0.  1.
     999902    2    1    2    0    0 -0.23467303792E-01 -0.28701436434E-02  0.17057681317E-02  0.10202263776E+01  0.10199509791E+01 0.  0.
     999903    2    3    3    0    0  0.10480651254E+00 -0.67436034291E-01 -0.22791725015E-01  0.12824933001E+00  0.19909900238E-01 0.  0.
         14    1    1    2    0    0  0.23467303792E-01  0.28701436434E-02 -0.17057681317E-02  0.23703622439E-01  0.00000000000E+00 0. -1.
     999901    1    3    3    0    0 -0.12827381633E+00  0.64565890647E-01  0.24497493147E-01  0.89197704755E+00  0.88000000000E+00 0. -1.
        -11    1    4    4    0    0  0.39496588277E-01 -0.35201971620E-01 -0.15034484368E-01  0.55004146504E-01  0.51100000000E-03 0.  1.
         11    1    4    4    0    0  0.65309924260E-01 -0.32234062670E-01 -0.77572406471E-02  0.73245183504E-01  0.51100000000E-03 0. -1.
</event>
<event>
 8    1  0.1122465E+005  0.1043930E+01  0.7957747E-01            NaN
         13   -1    0    0    0    0  0.00000000000E+00  0.00000000000E+00  0.74505805969E-08  0.10566000000E+00  0.10566000000E+00 0.  1.
     999900   -1    0    0    0    0 -0.00000000000E+00 -0.00000000000E+00 -0.74505805969E-08  0.93827000000E+00  0.93827000000E+00 0. -1.
     999902    2    1    2    0    0  0.14332515353E-01  0.12573674062E-01  0.13758883670E-01  0.10204177658E+01  0.10201468481E+01 0.  0.
     999903    2    3    3    0    0  0.11748786316E-02 -0.12686516648E+00  0.13255200222E-01  0.12934169312E+00  0.21387436545E-01 0.  0.
         14    1    1    2    0    0 -0.14332515353E-01 -0.12573674062E-01 -0.13758883670E-01  0.23512234168E-01  0.00000000000E+00 0. -1.
     999901    1    3    3    0    0  0.13157636721E-01  0.13943884054E+00  0.50368344754E-03  0.89107607271E+00  0.88000000000E+00 0.  1.
        -11    1    4    4    0    0  0.31690388025E-02 -0.68550988520E-01 -0.32460335641E-02  0.68702828828E-01  0.51100000000E-03 0. -1.
         11    1    4    4    0    0 -0.19941601710E-02 -0.58314177958E-01  0.16501233786E-01  0.60638864297E-01  0.51100000000E-03 0.  1.
</event>
<event>
 8    1  0.1122465E+005  0.1043930E+01  0.7957747E-01            NaN
         13   -1    0    0    0    0  0.00000000000E+00  0.00000000000E+00  0.74505805969E-08  0.10566000000E+00  0.10566000000E+00 0.  1.
     999900   -1    0    0    0    0 -0.00000000000E+00 -0.00000000000E+00 -0.74505805969E-08  0.93827000000E+00  0.93827000000E+00 0.  1.
     999902    2    1    2    0    0  0.28117578788E-02  0.22971140807E-01 -0.37416858931E-02  0.10204868879E+01  0.10202175792E+01 0.  0.
     999903    2    3    3    0    0  0.35044535462E-01 -0.16363780965E-01  0.12243325730E+00  0.13003402315E+00  0.20568225281E-01 0.  0.
         14    1    1    2    0    0 -0.28117578788E-02 -0.22971140807E-01  0.37416858931E-02  0.23443112115E-01  0.00000000000E+00 0. -1.
     999901    1    3    3    0    0 -0.32232777583E-01  0.39334921771E-01 -0.12617494319E+00  0.89045286473E+00  0.88000000000E+00 0.  1.
        -11    1    4    4    0    0  0.24802923293E-02  0.41373132710E-02  0.20816849910E-01  0.21374554319E-01  0.51100000000E-03 0. -1.
         11    1    4    4    0    0  0.32564243133E-01 -0.20501094236E-01  0.10161640739E+00  0.10865946883E+00  0.51100000000E-03 0.  1.
</event>
<event>
 8    1  0.1122465E+005  0.1043930E+01  0.7957747E-01            NaN
         13   -1    0    0    0    0  0.00000000000E+00  0.00000000000E+00  0.74505805969E-08  0.10566000000E+00  0.10566000000E+00 0.  1.
     999900   -1    0    0    0    0 -0.00000000000E+00 -0.00000000000E+00 -0.74505805969E-08  0.93827000000E+00  0.93827000000E+00 0. -1.
     999902    2    1    2    0    0  0.25496989719E-02 -0.80025167244E-02 -0.21242905781E-01  0.10210870080E+01  0.10208314629E+01 0.  0.
     999903    2    3    3    0    0 -0.10089502483E-02 -0.12381058673E+00 -0.44804468366E-01  0.13317973787E+00  0.19983063542E-01 0.  0.
         14    1    1    2    0    0 -0.25496989719E-02  0.80025167244E-02  0.21242905781E-01  0.22842992028E-01  0.00000000000E+00 0.  1.
     999901    1    3    3    0    0  0.35586492202E-02  0.11580807000E+00  0.23561562585E-01  0.88790727010E+00  0.88000000000E+00 0.  1.
        -11    1    4    4    0    0  0.70001398957E-02 -0.26443064669E-01 -0.56971067067E-02  0.27945585939E-01  0.51100000000E-03 0. -1.
         11    1    4    4    0    0 -0.80090901440E-02 -0.97367522057E-01 -0.39107361659E-01  0.10523415193E+00  0.51100000000E-03 0.  1.
</event>
<event>
 8    1  0.1122465E+005  0.1043930E+01  0.7957747E-01            NaN
         13   -1    0    0    0    0  0.00000000000E+00  0.00000000000E+00  0.74505805969E-08  0.10566000000E+00  0.10566000000E+00 0.  1.
     999900   -1    0    0    0    0 -0.00000000000E+00 -0.00000000000E+00 -0.74505805969E-08  0.93827000000E+00  0.93827000000E+00 0. -1.
     999902    2    1    2    0    0 -0.12565249087E-01  0.12045500620E-01  0.15757213624E-01  0.10204508741E+01  0.10201807277E+01 0.  0.
     999903    2    3    3    0    0  0.31672146691E-01 -0.48414502467E-01  0.11642764565E+00  0.13154880134E+00  0.20064933007E-01 0.  0.
         14    1    1    2    0    0  0.12565249087E-01 -0.12045500620E-01 -0.15757213624E-01  0.23479125857E-01  0.00000000000E+00 0. -1.
     999901    1    3    3    0    0 -0.44237395779E-01  0.60460003087E-01 -0.10067043202E+00  0.88890207281E+00  0.88000000000E+00 0. -1.
        -11    1    4    4    0    0  0.10190092398E-01 -0.29087516276E-01  0.45494896404E-01  0.54954238289E-01  0.51100000000E-03 0.  1.
         11    1    4    4    0    0  0.21482054294E-01 -0.19326986190E-01  0.70932749244E-01  0.76594563046E-01  0.51100000000E-03 0. -1.
</event>
<event>
 8    1  0.1122465E+005  0.1043930E+01  0.7957747E-01            NaN
         13   -1    0    0    0    0  0.00000000000E+00  0.00000000000E+00  0.74505805969E-08  0.10566000000E+00  0.10566000000E+00 0. -1.
     999900   -1    0    0    0    0 -0.00000000000E+00 -0.00000000000E+00 -0.74505805969E-08  0.93827000000E+00  0.93827000000E+00 0.  1.
     999902    2    1    2    0    0 -0.94915334291E-02 -0.18399587018E-01  0.93995172631E-02  0.10211926973E+01  0.10209395379E+01 0.  0.
     999903    2    3    3    0    0  0.43199384779E-01  0.97033196493E-01  0.71677058398E-01  0.12991296989E+00  0.21404461614E-01 0.  0.
         14    1    1    2    0    0  0.94915334291E-02  0.18399587018E-01 -0.93995172631E-02  0.22737302700E-01  0.00000000000E+00 0. -1.
     999901    1    3    3    0    0 -0.52690918208E-01 -0.11543278351E+00 -0.62277541135E-01  0.89127972741E+00  0.88000000000E+00 0.  1.
        -11    1    4    4    0    0 -0.25633730011E-03  0.19170661965E-01  0.12938440429E-01  0.23135348511E-01  0.51100000000E-03 0. -1.
         11    1    4    4    0    0  0.43455722079E-01  0.77862534528E-01  0.58738617969E-01  0.10677762137E+00  0.51100000000E-03 0.  1.
</event>
<event>
 8    1  0.1122465E+005  0.1043930E+01  0.7957747E-01            NaN
         13   -1    0    0    0    0  0.00000000000E+00  0.00000000000E+00  0.74505805969E-08  0.10566000000E+00  0.10566000000E+00 0.  1.
     999900   -1    0    0    0    0 -0.00000000000E+00 -0.00000000000E+00 -0.74505805969E-08  0.93827000000E+00  0.93827000000E+00 0. -1.
     999902    2    1    2    0    0 -0.15094929194E-01  0.11819063702E-01  0.13373998361E-01  0.10205545645E+01  0.10202868264E+01 0.  0.
     999903    2    3    3    0    0 -0.13028052619E-02  0.82347067532E-01  0.10271555330E+00  0.13311649032E+00  0.19666679235E-01 0.  0.
         14    1    1    2    0    0  0.15094929194E-01 -0.11819063702E-01 -0.13373998361E-01  0.23375435532E-01  0.00000000000E+00 0. -1.
     999901    1    3    3    0    0 -0.13792123932E-01 -0.70528003830E-01 -0.89341554942E-01  0.88743807415E+00  0.88000000000E+00 0. -1.
        -11    1    4    4    0    0  0.21305511351E-02  0.80770263963E-01  0.96973477574E-01  0.12622397261E+00  0.51100000000E-03 0.  1.
         11    1    4    4    0    0 -0.34333563970E-02  0.15768035690E-02  0.57420757292E-02  0.68925177058E-02  0.51100000000E-03 0. -1.
</event>
<event>
 8    1  0.1122465E+005  0.1043930E+01  0.7957747E-01            NaN
         13   -1    0    0    0    0  0.00000000000E+00  0.00000000000E+00  0.74505805969E-08  0.10566000000E+00  0.10566000000E+00 0. -1.
     999900   -1    0    0    0    0 -0.00000000000E+00 -0.00000000000E+00 -0.74505805969E-08  0.93827000000E+00  0.93827000000E+00 0. -1.
     999902    2    1    2    0    0  0.20804194067E-01  0.96973951274E-02 -0.51760022629E-02  0.10204003387E+01  0.10201290145E+01 0.  0.
     999903    2    3    3    0    0 -0.36894782500E-01  0.12337310557E+00 -0.15289338254E-01  0.13115705440E+00  0.19653521380E-01 0.  0.
         14    1    1    2    0    0 -0.20804194067E-01 -0.96973951274E-02  0.51760022629E-02  0.23529661333E-01  0.00000000000E+00 0.  1.
     999901    1    3    3    0    0  0.57698976567E-01 -0.11367571044E+00  0.10113335991E-01  0.88924328426E+00  0.88000000000E+00 0. -1.
        -11    1    4    4    0    0 -0.16233998937E-01  0.33842733992E-01 -0.11231636560E-01  0.39182702132E-01  0.51100000000E-03 0. -1.
         11    1    4    4    0    0 -0.20660783563E-01  0.89530371576E-01 -0.40577016943E-02  0.91974352273E-01  0.51100000000E-03 0.  1.
</event>
<event>
 8    1  0.1122465E+005  0.1043930E+01  0.7957747E-01            NaN
         13   -1    0    0    0    0  0.00000000000E+00  0.00000000000E+00  0.74505805969E-08  0.10566000000E+00  0.10566000000E+00 0. -1.
     999900   -1    0    0    0    0 -0.00000000000E+00 -0.00000000000E+00 -0.74505805969E-08  0.93827000000E+00  0.93827000000E+00 0. -1.
     999902    2    1    2    0    0 -0.14338855246E-01  0.18221534115E-01 -0.70922170292E-02  0.10196828019E+01  0.10193944721E+01 0.  0.
     999903    2    3    3    0    0  0.10262719735E+00  0.78570987990E-01  0.12726059312E-02  0.12985524311E+00  0.12450817185E-01 0.  0.
         14    1    1    2    0    0  0.14338855246E-01 -0.18221534115E-01  0.70922170292E-02  0.24247198141E-01  0.00000000000E+00 0. -1.
     999901    1    3    3    0    0 -0.11696605259E+00 -0.60349453875E-01 -0.83648229604E-02  0.88982755875E+00  0.88000000000E+00 0. -1.
        -11    1    4    4    0    0  0.64773917423E-01  0.52418478307E-01 -0.46816152884E-02  0.83459786059E-01  0.51100000000E-03 0.  1.
         11    1    4    4    0    0  0.37853279925E-01  0.26152509683E-01  0.59542212195E-02  0.46395457053E-01  0.51100000000E-03 0. -1.
</event>
<event>
 8    1  0.1122465E+005  0.1043930E+01  0.7957747E-01            NaN
         13   -1    0    0    0    0  0.00000000000E+00  0.00000000000E+00  0.74505805969E-08  0.10566000000E+00  0.10566000000E+00 0. -1.
     999900   -1    0    0    0    0 -0.00000000000E+00 -0.00000000000E+00 -0.74505805969E-08  0.93827000000E+00  0.93827000000E+00 0.  1.
     999902    2    1    2    0    0 -0.14562731463E-01  0.16590496470E-01  0.14514299138E-02  0.10218070624E+01  0.10215675447E+01 0.  0.
     999903    2    3    3    0    0 -0.37194706956E-01  0.90916993612E-01 -0.88819030999E-01  0.13378375715E+00  0.18971754175E-01 0.  0.
         14    1    1    2    0    0  0.14562731463E-01 -0.16590496470E-01 -0.14514299138E-02  0.22122937635E-01  0.00000000000E+00 0. -1.
     999901    1    3    3    0    0  0.22631975492E-01 -0.74326497142E-01  0.90270460913E-01  0.88802330522E+00  0.88000000000E+00 0. -1.
        -11    1    4    4    0    0 -0.71229228603E-02  0.35300266332E-01 -0.40565646992E-01  0.54246453064E-01  0.51100000000E-03 0. -1.
         11    1    4    4    0    0 -0.30071784095E-01  0.55616727281E-01 -0.48253384007E-01  0.79537304086E-01  0.51100000000E-03 0.  1.
</event>
<event>
 8    1  0.1122465E+005  0.1043930E+01  0.7957747E-01            NaN
         13   -1    0    0    0    0  0.00000000000E+00  0.00000000000E+00  0.74505805969E-08  0.10566000000E+00  0.10566000000E+00 0.  1.
     999900   -1    0    0    0    0 -0.00000000000E+00 -0.00000000000E+00 -0.74505805969E-08  0.93827000000E+00  0.93827000000E+00 0. -1.
     999902    2    1    2    0    0 -0.91318787207E-02  0.21348177605E-01  0.11216874437E-04  0.10207106972E+01  0.10204465647E+01 0.  0.
     999903    2    3    3    0    0 -0.12405757935E+00 -0.19383046665E-01  0.34825928473E-01  0.13162183020E+00  0.18586968542E-01 0.  0.
         14    1    1    2    0    0  0.91318787207E-02 -0.21348177605E-01 -0.11216874437E-04  0.23219302786E-01  0.00000000000E+00 0. -1.
     999901    1    3    3    0    0  0.11492570063E+00  0.40731224270E-01 -0.34814711599E-01  0.88908886701E+00  0.88000000000E+00 0. -1.
        -11    1    4    4    0    0 -0.91585932496E-01 -0.14453508197E-01  0.34018003470E-01  0.98764227387E-01  0.51100000000E-03 0.  1.
         11    1    4    4    0    0 -0.32471646857E-01 -0.49295384679E-02  0.80792500313E-03  0.32857602818E-01  0.51100000000E-03 0. -1.
</event>
<event>
 8    1  0.1122465E+005  0.1043930E+01  0.7957747E-01            NaN
         13   -1    0    0    0    0  0.00000000000E+00  0.00000000000E+00  0.74505805969E-08  0.10566000000E+00  0.10566000000E+00 0.  1.
     999900   -1    0    0    0    0 -0.00000000000E+00 -0.00000000000E+00 -0.74505805969E-08  0.93827000000E+00  0.93827000000E+00 0. -1.
     999902    2    1    2    0    0  0.23598749614E-01  0.26680705752E-02 -0.95281433926E-02  0.10183408402E+01  0.10180192835E+01 0.  0.
     999903    2    3    3    0    0  0.12756906402E-01  0.11446787545E+00 -0.57246110599E-01  0.12991878601E+00  0.18334137787E-01 0.  0.
         14    1    1    2    0    0 -0.23598749614E-01 -0.26680705752E-02  0.95281433926E-02  0.25589159823E-01  0.00000000000E+00 0. -1.
     999901    1    3    3    0    0  0.10841843212E-01 -0.11179980488E+00  0.47717967206E-01  0.88842205417E+00  0.88000000000E+00 0. -1.
        -11    1    4    4    0    0  0.63467892513E-02  0.55216930871E-01 -0.17461966218E-01  0.58261244184E-01  0.51100000000E-03 0. -1.
         11    1    4    4    0    0  0.64101171508E-02  0.59250944581E-01 -0.39784144381E-01  0.71657541827E-01  0.51100000000E-03 0.  1.
</event>
<event>
 8    1  0.1122465E+005  0.1043930E+01  0.7957747E-01            NaN
         13   -1    0    0    0    0  0.00000000000E+00  0.00000000000E+00  0.74505805969E-08  0.10566000000E+00  0.10566000000E+00 0.  1.
     999900   -1    0    0    0    0 -0.00000000000E+00 -0.00000000000E+00 -0.74505805969E-08  0.93827000000E+00  0.93827000000E+00 0.  1.
     999902    2    1    2    0    0  0.10476822982E-01  0.15415279019E-01 -0.11994026588E-01  0.10217658099E+01  0.10215253884E+01 0.  0.
     999903    2    3    3    0    0 -0.17640405511E-01  0.52454922678E-01 -0.12028233436E+00  0.13390947509E+00  0.20030095887E-01 0.  0.
         14    1    1    2    0    0 -0.10476822982E-01 -0.15415279019E-01  0.11994026588E-01  0.22164190055E-01  0.00000000000E+00 0.  1.
     999901    1    3    3    0    0  0.28117228492E-01 -0.37039643660E-01  0.10828830777E+00  0.88785633485E+00  0.88000000000E+00 0. -1.
        -11    1    4    4    0    0 -0.14973242445E-03  0.29494674611E-01 -0.69380988939E-01  0.75391915995E-01  0.51100000000E-03 0. -1.
         11    1    4    4    0    0 -0.17490673086E-01  0.22960248068E-01 -0.50901345417E-01  0.58517559096E-01  0.51100000000E-03 0.  1.
</event>
<event>
 8    1  0.1122465E+005  0.1043930E+01  0.7957747E-01            NaN
         13   -1    0    0    0    0  0.00000000000E+00  0.00000000000E+00  0.74505805969E-08  0.10566000000E+00  0.10566000000E+00 0.  1.
     999900   -1    0    0    0    0 -0.00000000000E+00 -0.00000000000E+00 -0.74505805969E-08  0.93827000000E+00  0.93827000000E+00 0.  1.
     999902    2    1    2    0    0 -0.14107587763E-01  0.19290335153E-01  0.26425612916E-02  0.10198857867E+01  0.10196023214E+01 0.  0.
     999903    2    3    3    0    0  0.82646275497E-01 -0.50885973267E-01 -0.80920558264E-01  0.12788308532E+00  0.19650893961E-01 0.  0.
         14    1    1    2    0    0  0.14107587763E-01 -0.19290335153E-01 -0.26425612916E-02  0.24044213295E-01  0.00000000000E+00 0.  1.
     999901    1    3    3    0    0 -0.96753863260E-01  0.70176308420E-01  0.83563119556E-01  0.89200270138E+00  0.88000000000E+00 0. -1.
        -11    1    4    4    0    0  0.53152389184E-01 -0.21395871340E-01 -0.45748894506E-01  0.73322453969E-01  0.51100000000E-03 0. -1.
         11    1    4    4    0    0  0.29493886313E-01 -0.29490101927E-01 -0.35171663758E-01  0.54560631356E-01  0.51100000000E-03 0.  1.
</event>
<event>
 8    1  0.1122465E+005  0.1043930E+01  0.7957747E-01            NaN
         13   -1    0    0    0    0  0.00000000000E+00  0.00000000000E+00  0.74505805969E-08  0.10566000000E+00  0.10566000000E+00 0.  1.
     999900   -1    0    0    0    0 -0.00000000000E+00 -0.00000000000E+00 -0.74505805969E-08  0.93827000000E+00  0.93827000000E+00 0. -1.
     999902    2    1    2    0    0 -0.35057787073E-02  0.49085604210E-03 -0.26929787404E-01  0.10167685407E+01  0.10164056869E+01 0.  0.
     999903    2    3    3    0    0 -0.11463757533E+00 -0.98758705015E-02  0.50380592450E-01  0.12635591717E+00  0.13722507462E-01 0.  0.
         14    1    1    2    0    0  0.35057787073E-02 -0.49085604210E-03  0.26929787404E-01  0.27161459343E-01  0.00000000000E+00 0.  1.
     999901    1    3    3    0    0  0.11113179662E+00  0.10366726544E-01 -0.77310379853E-01  0.89041262349E+00  0.88000000000E+00 0.  1.
        -11    1    4    4    0    0 -0.64949185233E-01 -0.40681376190E-02  0.21231202153E-01  0.68454155987E-01  0.51100000000E-03 0. -1.
         11    1    4    4    0    0 -0.49688390100E-01 -0.58077328825E-02  0.29149390296E-01  0.57901761178E-01  0.51100000000E-03 0.  1.
</event>
<event>
 8    1  0.1122465E+005  0.1043930E+01  0.7957747E-01            NaN
         13   -1    0    0    0    0  0.00000000000E+00  0.00000000000E+00  0.74505805969E-08  0.10566000000E+00  0.10566000000E+00 0.  1.
     999900   -1    0    0    0    0 -0.00000000000E+00 -0.00000000000E+00 -0.74505805969E-08  0.93827000000E+00  0.93827000000E+00 0.  1.
     999902    2    1    2    0    0  0.21681338427E-01 -0.64757578674E-02 -0.49693805312E-03  0.10212967761E+01  0.10210459549E+01 0.  0.
     999903    2    3    3    0    0  0.94030219620E-01  0.57829916943E-01 -0.71535161714E-01  0.13314363074E+00  0.20590423728E-01 0.  0.
         14    1    1    2    0    0 -0.21681338427E-01  0.64757578674E-02  0.49693805312E-03  0.22633223884E-01  0.00000000000E+00 0. -1.
     999901    1    3    3    0    0 -0.72348881193E-01 -0.64305674810E-01  0.71038223661E-01  0.88815314538E+00  0.88000000000E+00 0.  1.
        -11    1    4    4    0    0  0.41895784197E-01  0.34784009267E-01 -0.43062641336E-01  0.69425040396E-01  0.51100000000E-03 0. -1.
         11    1    4    4    0    0  0.52134435424E-01  0.23045907676E-01 -0.28472520378E-01  0.63718590342E-01  0.51100000000E-03 0.  1.
</event>
<event>
 8    1  0.1122465E+005  0.1043930E+01  0.7957747E-01            NaN
         13   -1    0    0    0    0  0.00000000000E+00  0.00000000000E+00  0.74505805969E-08  0.10566000000E+00  0.10566000000E+00 0.  1.
     999900   -1    0    0    0    0 -0.00000000000E+00 -0.00000000000E+00 -0.74505805969E-08  0.93827000000E+00  0.93827000000E+00 0. -1.
     999902    2    1    2    0    0 -0.37902248673E-02  0.42010717603E-02  0.22700832101E-01  0.10205346460E+01  0.10202664462E+01 0.  0.
     999903    2    3    3    0    0  0.68993054253E-01 -0.10768803830E+00  0.16191985871E-01  0.13044535629E+00  0.19926250079E-01 0.  0.
         14    1    1    2    0    0  0.37902248673E-02 -0.42010717603E-02 -0.22700832101E-01  0.23395353953E-01  0.00000000000E+00 0. -1.
     999901    1    3    3    0    0 -0.72783279121E-01  0.11188911006E+00  0.65088462304E-02  0.89008928976E+00  0.88000000000E+00 0. -1.
        -11    1    4    4    0    0  0.63911494003E-01 -0.99870181221E-01  0.94874868486E-02  0.11894959307E+00  0.51100000000E-03 0.  1.
         11    1    4    4    0    0  0.50815602506E-02 -0.78178570775E-02  0.67044990224E-02  0.11495763220E-01  0.51100000000E-03 0. -1.
</event>
<event>
 8    1  0.1122465E+005  0.1043930E+01  0.7957747E-01            NaN
         13   -1    0    0    0    0  0.00000000000E+00  0.00000000000E+00  0.74505805969E-08  0.10566000000E+00  0.10566000000E+00 0.  1.
     999900   -1    0    0    0    0 -0.00000000000E+00 -0.00000000000E+00 -0.74505805969E-08  0.93827000000E+00  0.93827000000E+00 0. -1.
     999902    2    1    2    0    0 -0.20188743909E-01 -0.13064418260E-01  0.18211383792E-02  0.10198140105E+01  0.10195288299E+01 0.  0.
     999903    2    3    3    0    0  0.84593794304E-01  0.75324558325E-01 -0.54783861423E-01  0.12740372508E+00  0.20013459739E-01 0.  0.
         14    1    1    2    0    0  0.20188743909E-01  0.13064418260E-01 -0.18211383792E-02  0.24115989511E-01  0.00000000000E+00 0. -1.
     999901    1    3    3    0    0 -0.10478253821E+00 -0.88388976585E-01  0.56604999802E-01  0.89241028541E+00  0.88000000000E+00 0.  1.
        -11    1    4    4    0    0  0.34181417432E-01  0.23020811103E-01 -0.11285791123E-01  0.42731220949E-01  0.51100000000E-03 0. -1.
         11    1    4    4    0    0  0.50412376872E-01  0.52303747223E-01 -0.43498070300E-01  0.84672504133E-01  0.51100000000E-03 0.  1.
</event>
<event>
 8    1  0.1122465E+005  0.1043930E+01  0.7957747E-01            NaN
         13   -1    0    0    0    0  0.00000000000E+00  0.00000000000E+00  0.74505805969E-08  0.10566000000E+00  0.10566000000E+00 0. -1.
     999900   -1    0    0    0    0 -0.00000000000E+00 -0.00000000000E+00 -0.74505805969E-08  0.93827000000E+00  0.93827000000E+00 0.  1.
     999902    2    1    2    0    0 -0.21894743583E-01  0.37367913073E-02  0.66781723367E-02  0.10207364364E+01  0.10204728959E+01 0.  0.
     999903    2    3    3    0    0 -0.57757228857E-01  0.22925617531E-01 -0.11421992282E+00  0.13153978870E+00  0.19875709223E-01 0.  0.
         14    1    1    2    0    0  0.21894743583E-01 -0.37367913073E-02 -0.66781723367E-02  0.23193563582E-01  0.00000000000E+00 0.  1.
     999901    1    3    3    0    0  0.35862485274E-01 -0.19188826224E-01  0.12089809516E+00  0.88919664772E+00  0.88000000000E+00 0. -1.
        -11    1    4    4    0    0 -0.34400379867E-01  0.10773644007E-01 -0.46210385627E-01  0.58609883134E-01  0.51100000000E-03 0. -1.
         11    1    4    4    0    0 -0.23356848990E-01  0.12151973524E-01 -0.68009537195E-01  0.72929905565E-01  0.51100000000E-03 0.  1.
</event>
<event>
 8    1  0.1122465E+005  0.1043930E+01  0.7957747E-01            NaN
         13   -1    0    0    0    0  0.00000000000E+00  0.00000000000E+00  0.74505805969E-08  0.10566000000E+00  0.10566000000E+00 0.  1.
     999900   -1    0    0    0    0 -0.00000000000E+00 -0.00000000000E+00 -0.74505805969E-08  0.93827000000E+00  0.93827000000E+00 0.  1.
     999902    2    1    2    0    0  0.82308089125E-02  0.16456048460E-01  0.10398690246E-01  0.10227951826E+01  0.10225767967E+01 0.  0.
     999903    2    3    3    0    0  0.36240266081E-01 -0.11727449352E+00  0.42869775704E-01  0.13165952577E+00  0.20730396545E-01 0.  0.
         14    1    1    2    0    0 -0.82308089125E-02 -0.16456048460E-01 -0.10398690246E-01  0.21134817366E-01  0.00000000000E+00 0. -1.
     999901    1    3    3    0    0 -0.28009457169E-01  0.13373054198E+00 -0.32471085458E-01  0.89113565687E+00  0.88000000000E+00 0. -1.
        -11    1    4    4    0    0  0.19333930954E-01 -0.92188135645E-01  0.31126413509E-01  0.99204677202E-01  0.51100000000E-03 0.  1.
         11    1    4    4    0    0  0.16906335128E-01 -0.25086357872E-01  0.11743362195E-01  0.32454848565E-01  0.51100000000E-03 0. -1.
</event>
<event>
 8    1  0.1122465E+005  0.1043930E+01  0.7957747E-01            NaN
         13   -1    0    0    0    0  0.00000000000E+00  0.00000000000E+00  0.74505805969E-08  0.10566000000E+00  0.10566000000E+00 0. -1.
     999900   -1    0    0    0    0 -0.00000000000E+00 -0.00000000000E+00 -0.74505805969E-08  0.93827000000E+00  0.93827000000E+00 0. -1.
     999902    2    1    2    0    0 -0.97363904027E-02  0.17378507918E-01  0.11480127643E-01  0.10209386284E+01  0.10206797146E+01 0.  0.
     999903    2    3    3    0    0 -0.12834817245E+00  0.25480737372E-01  0.11271616463E-01  0.13294400884E+00  0.20604339347E-01 0.  0.
         14    1    1    2    0    0  0.97363904027E-02 -0.17378507918E-01 -0.11480127643E-01  0.22991371560E-01  0.00000000000E+00 0.  1.
     999901    1    3    3    0    0  0.11861178205E+00 -0.81022294548E-02  0.20851117988E-03  0.88799461960E+00  0.88000000000E+00 0.  1.
        -11    1    4    4    0    0 -0.28485623893E-01 -0.41506609200E-03 -0.35667685656E-02  0.28715605643E-01  0.51100000000E-03 0.  1.
         11    1    4    4    0    0 -0.99862548558E-01  0.25895803464E-01  0.14838385028E-01  0.10422840320E+00  0.51100000000E-03 0. -1.
</event>
<event>
 8    1  0.1122465E+005  0.1043930E+01  0.7957747E-01            NaN
         13   -1    0    0    0    0  0.00000000000E+00  0.00000000000E+00  0.74505805969E-08  0.10566000000E+00  0.10566000000E+00 0. -1.
     999900   -1    0    0    0    0 -0.00000000000E+00 -0.00000000000E+00 -0.74505805969E-08  0.93827000000E+00  0.93827000000E+00 0. -1.
     999902    2    1    2    0    0  0.57214448852E-02 -0.65772044900E-02 -0.20669583961E-01  0.10214972950E+01  0.10212509474E+01 0.  0.
     999903    2    3    3    0    0 -0.32682214715E-01  0.69643018231E-02 -0.12802998087E+00  0.13403773637E+00  0.21396497607E-01 0.  0.
         14    1    1    2    0    0 -0.57214448852E-02  0.65772044900E-02  0.20669583961E-01  0.22432704955E-01  0.00000000000E+00 0. -1.
     999901    1    3    3    0    0  0.38403659600E-01 -0.13541506313E-01  0.10736039691E+00  0.88745955868E+00  0.88000000000E+00 0.  1.
        -11    1    4    4    0    0 -0.20702716270E-01 -0.49055932646E-02 -0.52568433186E-01  0.56713037256E-01  0.51100000000E-03 0. -1.
         11    1    4    4    0    0 -0.11979498444E-01  0.11869895088E-01 -0.75461547686E-01  0.77324699111E-01  0.51100000000E-03 0.  1.
</event>
<event>
 8    1  0.1122465E+005  0.1043930E+01  0.7957747E-01            NaN
         13   -1    0    0    0    0  0.00000000000E+00  0.00000000000E+00  0.74505805969E-08  0.10566000000E+00  0.10566000000E+00 0.  1.
     999900   -1    0    0    0    0 -0.00000000000E+00 -0.00000000000E+00 -0.74505805969E-08  0.93827000000E+00  0.93827000000E+00 0. -1.
     999902    2    1    2    0    0  0.17730150135E-01 -0.11574540979E-01 -0.89568191042E-02  0.10209397231E+01  0.10206808343E+01 0.  0.
     999903    2    3    3    0    0  0.37688065756E-01  0.10100786656E+00 -0.71947385925E-01  0.13131006512E+00  0.21045841712E-01 0.  0.
         14    1    1    2    0    0 -0.17730150135E-01  0.11574540979E-01  0.89568191042E-02  0.22990276883E-01  0.00000000000E+00 0.  1.
     999901    1    3    3    0    0 -0.19957915620E-01 -0.11258240753E+00  0.62990566821E-01  0.88962965800E+00  0.88000000000E+00 0. -1.
        -11    1    4    4    0    0  0.23759975462E-01  0.81244268771E-01 -0.48168725420E-01  0.97394326692E-01  0.51100000000E-03 0. -1.
         11    1    4    4    0    0  0.13928090293E-01  0.19763597785E-01 -0.23778660505E-01  0.33915738426E-01  0.51100000000E-03 0.  1.
</event>
<event>
 8    1  0.1122465E+005  0.1043930E+01  0.7957747E-01            NaN
         13   -1    0    0    0    0  0.00000000000E+00  0.00000000000E+00  0.74505805969E-08  0.10566000000E+00  0.10566000000E+00 0.  1.
     999900   -1    0    0    0    0 -0.00000000000E+00 -0.00000000000E+00 -0.74505805969E-08  0.93827000000E+00  0.93827000000E+00 0.  1.
     999902    2    1    2    0    0  0.39054196132E-02  0.19793580990E-01  0.12522871471E-01  0.10201842538E+01  0.10199078641E+01 0.  0.
     999903    2    3    3    0    0 -0.25104774629E-01 -0.10186827467E+00 -0.69982254289E-01  0.12751953836E+00  0.18876484184E-01 0.  0.
         14    1    1    2    0    0 -0.39054196132E-02 -0.19793580990E-01 -0.12522871471E-01  0.23745746159E-01  0.00000000000E+00 0.  1.
     999901    1    3    3    0    0  0.29010194242E-01  0.12166185566E+00  0.82505125759E-01  0.89266471548E+00  0.88000000000E+00 0. -1.
        -11    1    4    4    0    0 -0.11532511749E-01 -0.75223116235E-01 -0.44034036186E-01  0.87924817357E-01  0.51100000000E-03 0.  1.
         11    1    4    4    0    0 -0.13572262879E-01 -0.26645158431E-01 -0.25948218103E-01  0.39594721001E-01  0.51100000000E-03 0. -1.
</event>
<event>
 8    1  0.1122465E+005  0.1043930E+01  0.7957747E-01            NaN
         13   -1    0    0    0    0  0.00000000000E+00  0.00000000000E+00  0.74505805969E-08  0.10566000000E+00  0.10566000000E+00 0.  1.
     999900   -1    0    0    0    0 -0.00000000000E+00 -0.00000000000E+00 -0.74505805969E-08  0.93827000000E+00  0.93827000000E+00 0. -1.
     999902    2    1    2    0    0 -0.14636778676E-01  0.18500529184E-01  0.54779376714E-02  0.10197119763E+01  0.10194243483E+01 0.  0.
     999903    2    3    3    0    0  0.20121552361E-01 -0.12049499516E+00  0.31293695130E-01  0.12775101826E+00  0.20423187400E-01 0.  0.
         14    1    1    2    0    0  0.14636778676E-01 -0.18500529184E-01 -0.54779376714E-02  0.24218023685E-01  0.00000000000E+00 0.  1.
     999901    1    3    3    0    0 -0.34758331037E-01  0.13899552434E+00 -0.25815757459E-01  0.89196095806E+00  0.88000000000E+00 0.  1.
        -11    1    4    4    0    0  0.95247669845E-02 -0.85451781279E-01  0.30162852879E-01  0.91119629744E-01  0.51100000000E-03 0. -1.
         11    1    4    4    0    0  0.10596785377E-01 -0.35043213879E-01  0.11308422511E-02  0.36631388514E-01  0.51100000000E-03 0.  1.
</event>
<event>
 8    1  0.1122465E+005  0.1043930E+01  0.7957747E-01            NaN
         13   -1    0    0    0    0  0.00000000000E+00  0.00000000000E+00  0.74505805969E-08  0.10566000000E+00  0.10566000000E+00 0. -1.
     999900   -1    0    0    0    0 -0.00000000000E+00 -0.00000000000E+00 -0.74505805969E-08  0.93827000000E+00  0.93827000000E+00 0. -1.
     999902    2    1    2    0    0 -0.11321411160E-01 -0.17414822082E-01  0.11624448943E-01  0.10201270970E+01  0.10198493594E+01 0.  0.
     999903    2    3    3    0    0 -0.74058935365E-01  0.96597166424E-01  0.41155427020E-01  0.13006709388E+00  0.20197555977E-01 0.  0.
         14    1    1    2    0    0  0.11321411160E-01  0.17414822082E-01 -0.11624448943E-01  0.23802903017E-01  0.00000000000E+00 0.  1.
     999901    1    3    3    0    0  0.62737524205E-01 -0.11401198851E+00 -0.29530978078E-01  0.89006000311E+00  0.88000000000E+00 0. -1.
        -11    1    4    4    0    0 -0.13735855294E-01  0.32877950898E-01  0.12311283733E-01  0.37702283804E-01  0.51100000000E-03 0. -1.
         11    1    4    4    0    0 -0.60323080071E-01  0.63719215526E-01  0.28844143287E-01  0.92364810071E-01  0.51100000000E-03 0.  1.
</event>
<event>
 8    1  0.1122465E+005  0.1043930E+01  0.7957747E-01            NaN
         13   -1    0    0    0    0  0.00000000000E+00  0.00000000000E+00  0.74505805969E-08  0.10566000000E+00  0.10566000000E+00 0. -1.
     999900   -1    0    0    0    0 -0.00000000000E+00 -0.00000000000E+00 -0.74505805969E-08  0.93827000000E+00  0.93827000000E+00 0. -1.
     999902    2    1    2    0    0  0.82339830372E-02 -0.24381228608E-02 -0.21556173881E-01  0.10207263031E+01  0.10204625295E+01 0.  0.
     999903    2    3    3    0    0  0.65916608788E-01  0.62402743117E-01 -0.95636906609E-01  0.13335964931E+00  0.19981904185E-01 0.  0.
         14    1    1    2    0    0 -0.82339830372E-02  0.24381228608E-02  0.21556173881E-01  0.23203696950E-01  0.00000000000E+00 0. -1.
     999901    1    3    3    0    0 -0.57682625751E-01 -0.64840865978E-01  0.74080732728E-01  0.88736665374E+00  0.88000000000E+00 0.  1.
        -11    1    4    4    0    0  0.37880727643E-01  0.47876062700E-01 -0.68100033515E-01  0.91460060093E-01  0.51100000000E-03 0.  1.
         11    1    4    4    0    0  0.28035881145E-01  0.14526680417E-01 -0.27536873094E-01  0.41899589214E-01  0.51100000000E-03 0. -1.
</event>
<event>
 8    1  0.1122465E+005  0.1043930E+01  0.7957747E-01            NaN
         13   -1    0    0    0    0  0.00000000000E+00  0.00000000000E+00  0.74505805969E-08  0.10566000000E+00  0.10566000000E+00 0.  1.
     999900   -1    0    0    0    0 -0.00000000000E+00 -0.00000000000E+00 -0.74505805969E-08  0.93827000000E+00  0.93827000000E+00 0.  1.
     999902    2    1    2    0    0 -0.15200984619E-01  0.15200653442E-01 -0.85214851453E-02  0.10208054350E+01  0.10205434780E+01 0.  0.
     999903    2    3    3    0    0  0.50172174363E-01 -0.11621515960E+00 -0.11153026354E-01  0.12864474831E+00  0.20046717164E-01 0.  0.
         14    1    1    2    0    0  0.15200984619E-01 -0.15200653442E-01  0.85214851453E-02  0.23124565024E-01  0.00000000000E+00 0.  1.
     999901    1    3    3    0    0 -0.65373158982E-01  0.13141581304E+00  0.26315412090E-02  0.89216068667E+00  0.88000000000E+00 0.  1.
        -11    1    4    4    0    0  0.31868040679E-01 -0.66557321234E-01 -0.15957693261E-01  0.75500716035E-01  0.51100000000E-03 0. -1.
         11    1    4    4    0    0  0.18304133684E-01 -0.49657838363E-01  0.48046669070E-02  0.53144032270E-01  0.51100000000E-03 0.  1.
</event>
<event>
 8    1  0.1122465E+005  0.1043930E+01  0.7957747E-01            NaN
         13   -1    0    0    0    0  0.00000000000E+00  0.00000000000E+00  0.74505805969E-08  0.10566000000E+00  0.10566000000E+00 0.  1.
     999900   -1    0    0    0    0 -0.00000000000E+00 -0.00000000000E+00 -0.74505805969E-08  0.93827000000E+00  0.93827000000E+00 0. -1.
     999902    2    1    2    0    0  0.20672955618E-01 -0.31007725612E-02 -0.12292991338E-01  0.10196791542E+01  0.10193907367E+01 0.  0.
     999903    2    3    3    0    0  0.94549334376E-03 -0.10267164797E+00 -0.79394709996E-01  0.13130638751E+00  0.19886834156E-01 0.  0.
         14    1    1    2    0    0 -0.20672955618E-01  0.31007725612E-02  0.12292991338E-01  0.24250845769E-01  0.00000000000E+00 0.  1.
     999901    1    3    3    0    0  0.19727462274E-01  0.99570875406E-01  0.67101718658E-01  0.88837276672E+00  0.88000000000E+00 0.  1.
        -11    1    4    4    0    0  0.96500856443E-02 -0.71545652530E-01 -0.56954324599E-01  0.91956298101E-01  0.51100000000E-03 0.  1.
         11    1    4    4    0    0 -0.87045923006E-02 -0.31125995437E-01 -0.22440385396E-01  0.39350089413E-01  0.51100000000E-03 0. -1.
</event>
<event>
 8    1  0.1122465E+005  0.1043930E+01  0.7957747E-01            NaN
         13   -1    0    0    0    0  0.00000000000E+00  0.00000000000E+00  0.74505805969E-08  0.10566000000E+00  0.10566000000E+00 0.  1.
     999900   -1    0    0    0    0 -0.00000000000E+00 -0.00000000000E+00 -0.74505805969E-08  0.93827000000E+00  0.93827000000E+00 0.  1.
     999902    2    1    2    0    0 -0.21633267288E-01  0.11463991413E-01 -0.12349112085E-01  0.10165088052E+01  0.10161388828E+01 0.  0.
     999903    2    3    3    0    0  0.88279154796E-01  0.47792252841E-01 -0.74735633652E-01  0.12673773290E+00  0.19993233844E-01 0.  0.
         14    1    1    2    0    0  0.21633267288E-01 -0.11463991413E-01  0.12349112085E-01  0.27421194759E-01  0.00000000000E+00 0.  1.
     999901    1    3    3    0    0 -0.10991242208E+00 -0.36328261428E-01  0.62386521566E-01  0.88977107234E+00  0.88000000000E+00 0.  1.
        -11    1    4    4    0    0  0.77052063553E-01  0.47038567867E-01 -0.60904701671E-01  0.10890037269E+00  0.51100000000E-03 0. -1.
         11    1    4    4    0    0  0.11227091243E-01  0.75368497411E-03 -0.13830931980E-01  0.17837360210E-01  0.51100000000E-03 0.  1.
</event>
<event>
 8    1  0.1122465E+005  0.1043930E+01  0.7957747E-01            NaN
         13   -1    0    0    0    0  0.00000000000E+00  0.00000000000E+00  0.74505805969E-08  0.10566000000E+00  0.10566000000E+00 0. -1.
     999900   -1    0    0    0    0 -0.00000000000E+00 -0.00000000000E+00 -0.74505805969E-08  0.93827000000E+00  0.93827000000E+00 0.  1.
     999902    2    1    2    0    0  0.33377404121E-02  0.20210541008E-01  0.11376292593E-01  0.10204986852E+01  0.10202296506E+01 0.  0.
     999903    2    3    3    0    0  0.82851529164E-01 -0.71312338575E-01 -0.65255193255E-01  0.12888707431E+00  0.20095078018E-01 0.  0.
         14    1    1    2    0    0 -0.33377404121E-02 -0.20210541008E-01 -0.11376292593E-01  0.23431314774E-01  0.00000000000E+00 0. -1.
     999901    1    3    3    0    0 -0.79513788752E-01  0.91522879583E-01  0.76631485849E-01  0.89161161091E+00  0.88000000000E+00 0. -1.
        -11    1    4    4    0    0  0.40523565692E-01 -0.21997892240E-01 -0.28870145059E-01  0.54404163775E-01  0.51100000000E-03 0.  1.
         11    1    4    4    0    0  0.42327963473E-01 -0.49314446335E-01 -0.36385048197E-01  0.74482910539E-01  0.51100000000E-03 0. -1.
</event>
<event>
 7    1  0.1122465E+005  0.1043930E+01  0.7957747E-01            NaN
         13   -1    0    0    0    0  0.00000000000E+00  0.00000000000E+00  0.74505805969E-08  0.10566000000E+00  0.10566000000E+00 0.  1.
     999900   -1    0    0    0    0 -0.00000000000E+00 -0.00000000000E+00 -0.74505805969E-08  0.93827000000E+00  0.93827000000E+00 0. -1.
     999902    2    1    2    0    0  0.12142210202E-02 -0.24604058918E-01 -0.37258371993E-02  0.10190158291E+01  0.10187112172E+01 0.  0.
         14    1    1    2    0    0 -0.12142210202E-02  0.24604058918E-01  0.37258371993E-02  0.24914170883E-01  0.00000000000E+00 0.  1.
     999901    1    3    3    0    0  0.34481168360E-01  0.61172664257E-01 -0.85921185845E-01  0.88696871196E+00  0.88000000000E+00 0.  1.
        -11    1    3    3    0    0 -0.18256709281E-01 -0.11432906406E-01  0.39539209075E-01  0.45029201169E-01  0.51100000000E-03 0. -1.
         11    1    3    3    0    0 -0.15010238059E-01 -0.74343816769E-01  0.42656139570E-01  0.87017915986E-01  0.51100000000E-03 0.  1.
</event>
<event>
 8    1  0.1122465E+005  0.1043930E+01  0.7957747E-01            NaN
         13   -1    0    0    0    0  0.00000000000E+00  0.00000000000E+00  0.74505805969E-08  0.10566000000E+00  0.10566000000E+00 0. -1.
     999900   -1    0    0    0    0 -0.00000000000E+00 -0.00000000000E+00 -0.74505805969E-08  0.93827000000E+00  0.93827000000E+00 0.  1.
     999902    2    1    2    0    0  0.86623279300E-02 -0.62997619657E-02  0.21454549102E-01  0.10199504128E+01  0.10196684873E+01 0.  0.
     999903    2    3    3    0    0  0.53546497386E-01  0.10530617007E+00 -0.47794770113E-01  0.12907110505E+00  0.20454663833E-01 0.  0.
         14    1    1    2    0    0 -0.86623279300E-02  0.62997619657E-02 -0.21454549102E-01  0.23979587218E-01  0.00000000000E+00 0.  1.
     999901    1    3    3    0    0 -0.44884169456E-01 -0.11160593203E+00  0.69249319215E-01  0.89087930773E+00  0.88000000000E+00 0. -1.
        -11    1    4    4    0    0  0.17688004801E-01  0.34072931619E-01 -0.54608397700E-02  0.38780305246E-01  0.51100000000E-03 0. -1.
         11    1    4    4    0    0  0.35858492585E-01  0.71233238447E-01 -0.42333930343E-01  0.90290799805E-01  0.51100000000E-03 0.  1.
</event>
<event>
 8    1  0.1122465E+005  0.1043930E+01  0.7957747E-01            NaN
         13   -1    0    0    0    0  0.00000000000E+00  0.00000000000E+00  0.74505805969E-08  0.10566000000E+00  0.10566000000E+00 0. -1.
     999900   -1    0    0    0    0 -0.00000000000E+00 -0.00000000000E+00 -0.74505805969E-08  0.93827000000E+00  0.93827000000E+00 0. -1.
     999902    2    1    2    0    0  0.11062097526E-01 -0.11911139885E-01  0.17753292568E-01  0.10198587588E+01  0.10195746482E+01 0.  0.
     999903    2    3    3    0    0  0.10167513209E+00 -0.13489679586E-01 -0.77347416556E-01  0.13010746846E+00  0.20628295129E-01 0.  0.
         14    1    1    2    0    0 -0.11062097526E-01  0.11911139885E-01 -0.17753292568E-01  0.24071241182E-01  0.00000000000E+00 0.  1.
     999901    1    3    3    0    0 -0.90613034565E-01  0.15785397006E-02  0.95100709123E-01  0.88975129036E+00  0.88000000000E+00 0.  1.
        -11    1    4    4    0    0  0.67082048135E-02  0.12403256941E-02 -0.12252464652E-01  0.14032905283E-01  0.51100000000E-03 0.  1.
         11    1    4    4    0    0  0.94966927277E-01 -0.14730005280E-01 -0.65094951904E-01  0.11607456318E+00  0.51100000000E-03 0. -1.
</event>
<event>
 8    1  0.1122465E+005  0.1043930E+01  0.7957747E-01            NaN
         13   -1    0    0    0    0  0.00000000000E+00  0.00000000000E+00  0.74505805969E-08  0.10566000000E+00  0.10566000000E+00 0. -1.
     999900   -1    0    0    0    0 -0.00000000000E+00 -0.00000000000E+00 -0.74505805969E-08  0.93827000000E+00  0.93827000000E+00 0.  1.
     999902    2    1    2    0    0 -0.67095116074E-02  0.22324570906E-01  0.50334739974E-02  0.10200817323E+01  0.10198029225E+01 0.  0.
     999903    2    3    3    0    0  0.86449864806E-01  0.74612699005E-01 -0.61721441728E-01  0.13111101482E+00  0.18437132641E-01 0.  0.
         14    1    1    2    0    0  0.67095116074E-02 -0.22324570906E-01 -0.50334739974E-02  0.23848267707E-01  0.00000000000E+00 0.  1.
     999901    1    3    3    0    0 -0.93159376413E-01 -0.52288128099E-01  0.66754915726E-01  0.88897071747E+00  0.88000000000E+00 0. -1.
        -11    1    4    4    0    0  0.56276209955E-01  0.46317951889E-01 -0.49015131565E-01  0.87835691591E-01  0.51100000000E-03 0. -1.
         11    1    4    4    0    0  0.30173654851E-01  0.28294747116E-01 -0.12706310163E-01  0.43275323227E-01  0.51100000000E-03 0.  1.
</event>
<event>
 8    1  0.1122465E+005  0.1043930E+01  0.7957747E-01            NaN
         13   -1    0    0    0    0  0.00000000000E+00  0.00000000000E+00  0.74505805969E-08  0.10566000000E+00  0.10566000000E+00 0. -1.
     999900   -1    0    0    0    0 -0.00000000000E+00 -0.00000000000E+00 -0.74505805969E-08  0.93827000000E+00  0.93827000000E+00 0. -1.
     999902    2    1    2    0    0 -0.20381162656E-01 -0.13017242964E-01 -0.14126182368E-02  0.10197053040E+01  0.10194175156E+01 0.  0.
     999903    2    3    3    0    0  0.10073241780E+00  0.69402318445E-01 -0.29729514972E-01  0.12714531716E+00  0.17843368943E-01 0.  0.
         14    1    1    2    0    0  0.20381162656E-01  0.13017242964E-01  0.14126182368E-02  0.24224695992E-01  0.00000000000E+00 0. -1.
     999901    1    3    3    0    0 -0.12111358046E+00 -0.82419561410E-01  0.28316896735E-01  0.89255998684E+00  0.88000000000E+00 0. -1.
        -11    1    4    4    0    0  0.12781965393E-01  0.12014220977E-01  0.14133478028E-02  0.17606215323E-01  0.51100000000E-03 0. -1.
         11    1    4    4    0    0  0.87950452406E-01  0.57388097468E-01 -0.31142862775E-01  0.10953910184E+00  0.51100000000E-03 0.  1.
</event>
<event>
 8    1  0.1122465E+005  0.1043930E+01  0.7957747E-01            NaN
         13   -1    0    0    0    0  0.00000000000E+00  0.00000000000E+00  0.74505805969E-08  0.10566000000E+00  0.10566000000E+00 0.  1.
     999900   -1    0    0    0    0 -0.00000000000E+00 -0.00000000000E+00 -0.74505805969E-08  0.93827000000E+00  0.93827000000E+00 0. -1.
     999902    2    1    2    0    0 -0.22330485739E-01 -0.17017449217E-02 -0.47332313201E-02  0.10210400457E+01  0.10207834368E+01 0.  0.
     999903    2    3    3    0    0  0.22624034354E-01 -0.92196943170E-01 -0.88411466701E-01  0.13131405594E+00  0.20363461940E-01 0.  0.
         14    1    1    2    0    0  0.22330485739E-01  0.17017449217E-02  0.47332313201E-02  0.22889954300E-01  0.00000000000E+00 0. -1.
     999901    1    3    3    0    0 -0.44954520093E-01  0.90495198248E-01  0.83678235381E-01  0.88972598976E+00  0.88000000000E+00 0. -1.
        -11    1    4    4    0    0  0.11603169852E-01 -0.37383374618E-01 -0.23567512462E-01  0.45692877050E-01  0.51100000000E-03 0. -1.
         11    1    4    4    0    0  0.11020864502E-01 -0.54813568553E-01 -0.64843954239E-01  0.85621178888E-01  0.51100000000E-03 0.  1.
</event>
<event>
 8    1  0.1122465E+005  0.1043930E+01  0.7957747E-01            NaN
         13   -1    0    0    0    0  0.00000000000E+00  0.00000000000E+00  0.74505805969E-08  0.10566000000E+00  0.10566000000E+00 0.  1.
     999900   -1    0    0    0    0 -0.00000000000E+00 -0.00000000000E+00 -0.74505805969E-08  0.93827000000E+00  0.93827000000E+00 0.  1.
     999902    2    1    2    0    0  0.84805767560E-02  0.16119175799E-01 -0.13978861545E-01  0.10209701093E+01  0.10207119121E+01 0.  0.
     999903    2    3    3    0    0 -0.52779107344E-05  0.10848121902E-01 -0.13118101140E+00  0.13314347214E+00  0.20026099094E-01 0.  0.
         14    1    1    2    0    0 -0.84805767560E-02 -0.16119175799E-01  0.13978861545E-01  0.22959890693E-01  0.00000000000E+00 0.  1.
     999901    1    3    3    0    0  0.84858546668E-02  0.52710538966E-02  0.11720214985E+00  0.88782663717E+00  0.88000000000E+00 0. -1.
        -11    1    4    4    0    0  0.18740111328E-02 -0.23295209500E-02 -0.85654513451E-01  0.85708199031E-01  0.51100000000E-03 0.  1.
         11    1    4    4    0    0 -0.18792890435E-02  0.13177642852E-01 -0.45526497946E-01  0.47435273106E-01  0.51100000000E-03 0. -1.
</event>
<event>
 8    1  0.1122465E+005  0.1043930E+01  0.7957747E-01            NaN
         13   -1    0    0    0    0  0.00000000000E+00  0.00000000000E+00  0.74505805969E-08  0.10566000000E+00  0.10566000000E+00 0. -1.
     999900   -1    0    0    0    0 -0.00000000000E+00 -0.00000000000E+00 -0.74505805969E-08  0.93827000000E+00  0.93827000000E+00 0.  1.
     999902    2    1    2    0    0  0.12612220828E-01 -0.14330929701E-01  0.14336317562E-01  0.10200558788E+01  0.10197764570E+01 0.  0.
     999903    2    3    3    0    0  0.65171912045E-01  0.29969469776E-01  0.10942435615E+00  0.13226830198E+00  0.19382124496E-01 0.  0.
         14    1    1    2    0    0 -0.12612220828E-01  0.14330929701E-01 -0.14336317562E-01  0.23874121168E-01  0.00000000000E+00 0.  1.
     999901    1    3    3    0    0 -0.52559691217E-01 -0.44300399477E-01 -0.95088038592E-01  0.88778757685E+00  0.88000000000E+00 0.  1.
        -11    1    4    4    0    0  0.15649741920E-01  0.58900409751E-02  0.12842799233E-01  0.21090415311E-01  0.51100000000E-03 0.  1.
         11    1    4    4    0    0  0.49522170125E-01  0.24079428801E-01  0.96581556921E-01  0.11117788667E+00  0.51100000000E-03 0. -1.
</event>
<event>
 8    1  0.1122465E+005  0.1043930E+01  0.7957747E-01            NaN
         13   -1    0    0    0    0  0.00000000000E+00  0.00000000000E+00  0.74505805969E-08  0.10566000000E+00  0.10566000000E+00 0. -1.
     999900   -1    0    0    0    0 -0.00000000000E+00 -0.00000000000E+00 -0.74505805969E-08  0.93827000000E+00  0.93827000000E+00 0. -1.
     999902    2    1    2    0    0  0.19619415633E-01 -0.10719916980E-01  0.81576099705E-02  0.10201311620E+01  0.10198535204E+01 0.  0.
     999903    2    3    3    0    0 -0.84677546249E-01  0.37678858943E-01 -0.85499490972E-01  0.12772321138E+00  0.20324185564E-01 0.  0.
         14    1    1    2    0    0 -0.19619415633E-01  0.10719916980E-01 -0.81576099705E-02  0.23798838002E-01  0.00000000000E+00 0. -1.
     999901    1    3    3    0    0  0.10429696188E+00 -0.48398775923E-01  0.93657100942E-01  0.89240795062E+00  0.88000000000E+00 0.  1.
        -11    1    4    4    0    0 -0.75035488893E-01  0.31975974747E-01 -0.64769206069E-01  0.10415420649E+00  0.51100000000E-03 0.  1.
         11    1    4    4    0    0 -0.96420573559E-02  0.57028841959E-02 -0.20730284902E-01  0.23569004886E-01  0.51100000000E-03 0. -1.
</event>
<event>
 8    1  0.1122465E+005  0.1043930E+01  0.7957747E-01            NaN
         13   -1    0    0    0    0  0.00000000000E+00  0.00000000000E+00  0.74505805969E-08  0.10566000000E+00  0.10566000000E+00 0. -1.
     999900   -1    0    0    0    0 -0.00000000000E+00 -0.00000000000E+00 -0.74505805969E-08  0.93827000000E+00  0.93827000000E+00 0. -1.
     999902    2    1    2    0    0  0.16566300108E-01 -0.12983004112E-01  0.89251061376E-02  0.10210682806E+01  0.10208123115E+01 0.  0.
     999903    2    3    3    0    0 -0.12317524631E+00 -0.22410041518E-01  0.27958842526E-01  0.12978894617E+00  0.19726185847E-01 0.  0.
         14    1    1    2    0    0 -0.16566300108E-01  0.12983004112E-01 -0.89251061376E-02  0.22861719415E-01  0.00000000000E+00 0.  1.
     999901    1    3    3    0    0  0.13974154642E+00  0.94270374060E-02 -0.19033736389E-01  0.89127933441E+00  0.88000000000E+00 0.  1.
        -11    1    4    4    0    0 -0.10221494797E+00 -0.16253016153E-01  0.15556726396E-01  0.10466293030E+00  0.51100000000E-03 0.  1.
         11    1    4    4    0    0 -0.20960298346E-01 -0.61570253646E-02  0.12402116130E-01  0.25126015872E-01  0.51100000000E-03 0. -1.
</event>
<event>
 8    1  0.1122465E+005  0.1043930E+01  0.7957747E-01            NaN
         13   -1    0    0    0    0  0.00000000000E+00  0.00000000000E+00  0.74505805969E-08  0.10566000000E+00  0.10566000000E+00 0. -1.
     999900   -1    0    0    0    0 -0.00000000000E+00 -0.00000000000E+00 -0.74505805969E-08  0.93827000000E+00  0.93827000000E+00 0. -1.
     999902    2    1    2    0    0 -0.24665992386E-01  0.27168744481E-01 -0.64041235541E-02  0.10066799711E+01  0.10059905564E+01 0.  0.
     999903    2    3    3    0    0 -0.95278920730E-01 -0.66516754635E-01 -0.17001279145E-01  0.11883118997E+00  0.18145435619E-01 0.  0.
         14    1    1    2    0    0  0.24665992386E-01 -0.27168744481E-01  0.64041235541E-02  0.37250028933E-01  0.00000000000E+00 0.  1.
     999901    1    3    3    0    0  0.70612928344E-01  0.93685499116E-01  0.10597155591E-01  0.88784878110E+00  0.88000000000E+00 0.  1.
        -11    1    4    4    0    0 -0.61601069099E-01 -0.32182539019E-01 -0.10768420480E-01  0.70332265231E-01  0.51100000000E-03 0. -1.
         11    1    4    4    0    0 -0.33677851630E-01 -0.34334215616E-01 -0.62328586650E-02  0.48498924736E-01  0.51100000000E-03 0.  1.
</event>
<event>
 8    1  0.1122465E+005  0.1043930E+01  0.7957747E-01            NaN
         13   -1    0    0    0    0  0.00000000000E+00  0.00000000000E+00  0.74505805969E-08  0.10566000000E+00  0.10566000000E+00 0.  1.
     999900   -1    0    0    0    0 -0.00000000000E+00 -0.00000000000E+00 -0.74505805969E-08  0.93827000000E+00  0.93827000000E+00 0. -1.
     999902    2    1    2    0    0  0.25522444389E-01  0.55921521294E-02  0.62381010033E-02  0.10170677358E+01  0.10167129379E+01 0.  0.
     999903    2    3    3    0    0  0.24321011535E-01 -0.41875429938E-01  0.11766689262E+00  0.12877105655E+00  0.19784442182E-01 0.  0.
         14    1    1    2    0    0 -0.25522444389E-01 -0.55921521294E-02 -0.62381010033E-02  0.26862264185E-01  0.00000000000E+00 0. -1.
     999901    1    3    3    0    0  0.12014328543E-02  0.47467582068E-01 -0.11142879162E+00  0.88829667926E+00  0.88000000000E+00 0. -1.
        -11    1    4    4    0    0  0.22249993968E-01 -0.36862212133E-01  0.81307406679E-01  0.92005654266E-01  0.51100000000E-03 0.  1.
         11    1    4    4    0    0  0.20710175671E-02 -0.50132178050E-02  0.36359485939E-01  0.36765402286E-01  0.51100000000E-03 0. -1.
</event>
<event>
 8    1  0.1122465E+005  0.1043930E+01  0.7957747E-01            NaN
         13   -1    0    0    0    0  0.00000000000E+00  0.00000000000E+00  0.74505805969E-08  0.10566000000E+00  0.10566000000E+00 0.  1.
     999900   -1    0    0    0    0 -0.00000000000E+00 -0.00000000000E+00 -0.74505805969E-08  0.93827000000E+00  0.93827000000E+00 0.  1.
     999902    2    1    2    0    0 -0.23362788208E-01 -0.80381686242E-02  0.76896710087E-02  0.10180540832E+01  0.10177251856E+01 0.  0.
     999903    2    3    3    0    0  0.11422731249E+00 -0.50218389626E-01  0.19499509815E-02  0.12634608662E+00  0.19742485173E-01 0.  0.
         14    1    1    2    0    0  0.23362788208E-01  0.80381686242E-02 -0.76896710087E-02  0.25875916755E-01  0.00000000000E+00 0. -1.
     999901    1    3    3    0    0 -0.13759010070E+00  0.42180221002E-01  0.57397200273E-02  0.89170799662E+00  0.88000000000E+00 0. -1.
        -11    1    4    4    0    0  0.17044198736E-01 -0.24306119339E-02  0.52223016434E-02  0.17998503837E-01  0.51100000000E-03 0.  1.
         11    1    4    4    0    0  0.97183113754E-01 -0.47787777692E-01 -0.32723506620E-02  0.10834758279E+00  0.51100000000E-03 0. -1.
</event>
<event>
 8    1  0.1122465E+005  0.1043930E+01  0.7957747E-01            NaN
         13   -1    0    0    0    0  0.00000000000E+00  0.00000000000E+00  0.74505805969E-08  0.10566000000E+00  0.10566000000E+00 0. -1.
     999900   -1    0    0    0    0 -0.00000000000E+00 -0.00000000000E+00 -0.74505805969E-08  0.93827000000E+00  0.93827000000E+00 0.  1.
     999902    2    1    2    0    0  0.91311816705E-02  0.19109600330E-01  0.99007567497E-02  0.10205509434E+01  0.10202831214E+01 0.  0.
     999903    2    3    3    0    0 -0.50939047030E-01 -0.10250118877E+00  0.55975252062E-01  0.12896781462E+00  0.19954652406E-01 0.  0.
         14    1    1    2    0    0 -0.91311816705E-02 -0.19109600330E-01 -0.99007567497E-02  0.23379056604E-01  0.00000000000E+00 0.  1.
     999901    1    3    3    0    0  0.60070228700E-01  0.12161078910E+00 -0.46074495312E-01  0.89158312878E+00  0.88000000000E+00 0. -1.
        -11    1    4    4    0    0 -0.40599495031E-01 -0.78810262915E-01  0.52085604993E-01  0.10282289583E+00  0.51100000000E-03 0. -1.
         11    1    4    4    0    0 -0.10339551999E-01 -0.23690925854E-01  0.38896470692E-02  0.26144918793E-01  0.51100000000E-03 0.  1.
</event>
<event>
 8    1  0.1122465E+005  0.1043930E+01  0.7957747E-01            NaN
         13   -1    0    0    0    0  0.00000000000E+00  0.00000000000E+00  0.74505805969E-08  0.10566000000E+00  0.10566000000E+00 0. -1.
     999900   -1    0    0    0    0 -0.00000000000E+00 -0.00000000000E+00 -0.74505805969E-08  0.93827000000E+00  0.93827000000E+00 0.  1.
     999902    2    1    2    0    0  0.41272972023E-02  0.40903613219E-02 -0.22473899723E-01  0.10207170337E+01  0.10204530469E+01 0.  0.
     999903    2    3    3    0    0 -0.44318080345E-01 -0.95559841266E-01 -0.77818892099E-01  0.13204376092E+00  0.16852279451E-01 0.  0.
         14    1    1    2    0    0 -0.41272972023E-02 -0.40903613219E-02  0.22473899723E-01  0.23212966349E-01  0.00000000000E+00 0. -1.
     999901    1    3    3    0    0  0.48445377548E-01  0.99650202588E-01  0.55344992375E-01  0.88867327273E+00  0.88000000000E+00 0.  1.
        -11    1    4    4    0    0 -0.17915350692E-01 -0.28422381244E-01 -0.33086357869E-01  0.47156757141E-01  0.51100000000E-03 0. -1.
         11    1    4    4    0    0 -0.26402729654E-01 -0.67137460022E-01 -0.44732534230E-01  0.84887003782E-01  0.51100000000E-03 0.  1.
</event>
<event>
 8    1  0.1122465E+005  0.1043930E+01  0.7957747E-01            NaN
         13   -1    0    0    0    0  0.00000000000E+00  0.00000000000E+00  0.74505805969E-08  0.10566000000E+00  0.10566000000E+00 0.  1.
     999900   -1    0    0    0    0 -0.00000000000E+00 -0.00000000000E+00 -0.74505805969E-08  0.93827000000E+00  0.93827000000E+00 0. -1.
     999902    2    1    2    0    0 -0.19893695593E-01  0.17229697968E-02 -0.12446532189E-01  0.10204003610E+01  0.10201290373E+01 0.  0.
     999903    2    3    3    0    0 -0.66049247376E-01  0.10782640212E+00 -0.33920241649E-01  0.13256625850E+00  0.20837322919E-01 0.  0.
         14    1    1    2    0    0  0.19893695593E-01 -0.17229697968E-02  0.12446532189E-01  0.23529639028E-01  0.00000000000E+00 0. -1.
     999901    1    3    3    0    0  0.46155551783E-01 -0.10610343232E+00  0.21473709460E-01  0.88783410247E+00  0.88000000000E+00 0.  1.
        -11    1    4    4    0    0 -0.36018856073E-01  0.47761963156E-01 -0.24937934661E-01  0.64812998877E-01  0.51100000000E-03 0. -1.
         11    1    4    4    0    0 -0.30030391303E-01  0.60064438964E-01 -0.89823069889E-02  0.67753259624E-01  0.51100000000E-03 0.  1.
</event>
<event>
 8    1  0.1122465E+005  0.1043930E+01  0.7957747E-01            NaN
         13   -1    0    0    0    0  0.00000000000E+00  0.00000000000E+00  0.74505805969E-08  0.10566000000E+00  0.10566000000E+00 0. -1.
     999900   -1    0    0    0    0 -0.00000000000E+00 -0.00000000000E+00 -0.74505805969E-08  0.93827000000E+00  0.93827000000E+00 0. -1.
     999902    2    1    2    0    0 -0.46189171934E-02  0.97695342043E-02  0.21088774981E-01  0.10202337002E+01  0.10199584738E+01 0.  0.
     999903    2    3    3    0    0  0.10544083418E+00 -0.70641278327E-01  0.17993936872E-01  0.12973461222E+00  0.19983196119E-01 0.  0.
         14    1    1    2    0    0  0.46189171934E-02 -0.97695342043E-02 -0.21088774981E-01  0.23696299813E-01  0.00000000000E+00 0.  1.
     999901    1    3    3    0    0 -0.11005975138E+00  0.80410812531E-01  0.30948381089E-02  0.89049908797E+00  0.88000000000E+00 0.  1.
        -11    1    4    4    0    0  0.65670419868E-01 -0.46563974529E-01  0.18778884469E-02  0.80526985263E-01  0.51100000000E-03 0.  1.
         11    1    4    4    0    0  0.39770414316E-01 -0.24077303797E-01  0.16116048426E-01  0.49207626958E-01  0.51100000000E-03 0. -1.
</event>
<event>
 8    1  0.1122465E+005  0.1043930E+01  0.7957747E-01            NaN
         13   -1    0    0    0    0  0.00000000000E+00  0.00000000000E+00  0.74505805969E-08  0.10566000000E+00  0.10566000000E+00 0.  1.
     999900   -1    0    0    0    0 -0.00000000000E+00 -0.00000000000E+00 -0.74505805969E-08  0.93827000000E+00  0.93827000000E+00 0.  1.
     999902    2    1    2    0    0 -0.13084963988E-01 -0.10448127169E-01  0.17009029515E-01  0.10200618889E+01  0.10197826094E+01 0.  0.
     999903    2    3    3    0    0  0.93517272158E-01  0.36836832238E-01 -0.75868339184E-01  0.12752275261E+00  0.20090175248E-01 0.  0.
         14    1    1    2    0    0  0.13084963988E-01  0.10448127169E-01 -0.17009029515E-01  0.23868111130E-01  0.00000000000E+00 0. -1.
     999901    1    3    3    0    0 -0.10660223615E+00 -0.47284959407E-01  0.92877368699E-01  0.89253913626E+00  0.88000000000E+00 0. -1.
        -11    1    4    4    0    0  0.44578323259E-01  0.87389613555E-02 -0.26838513380E-01  0.52765171009E-01  0.51100000000E-03 0.  1.
         11    1    4    4    0    0  0.48938948900E-01  0.28097870883E-01 -0.49029825805E-01  0.74757581602E-01  0.51100000000E-03 0. -1.
</event>
<event>
 8    1  0.1122465E+005  0.1043930E+01  0.7957747E-01            NaN
         13   -1    0    0    0    0  0.00000000000E+00  0.00000000000E+00  0.74505805969E-08  0.10566000000E+00  0.10566000000E+00 0. -1.
     999900   -1    0    0    0    0 -0.00000000000E+00 -0.00000000000E+00 -0.74505805969E-08  0.93827000000E+00  0.93827000000E+00 0.  1.
     999902    2    1    2    0    0 -0.13435023369E-01 -0.45315545915E-02 -0.18047702981E-01  0.10209788688E+01  0.10207208708E+01 0.  0.
     999903    2    3    3    0    0  0.57373732240E-02  0.40922534841E-01 -0.12487133005E+00  0.13314727310E+00  0.20682745407E-01 0.  0.
         14    1    1    2    0    0  0.13435023369E-01  0.45315545915E-02  0.18047702981E-01  0.22951131188E-01  0.00000000000E+00 0. -1.
     999901    1    3    3    0    0 -0.19172396593E-01 -0.45454089433E-01  0.10682362707E+00  0.88783159571E+00  0.88000000000E+00 0. -1.
        -11    1    4    4    0    0  0.52116214385E-02  0.30970191636E-01 -0.62141125880E-01  0.69628258736E-01  0.51100000000E-03 0.  1.
         11    1    4    4    0    0  0.52575178555E-03  0.99523432050E-02 -0.62730204169E-01  0.63519014368E-01  0.51100000000E-03 0. -1.
</event>
<event>
 8    1  0.1122465E+005  0.1043930E+01  0.7957747E-01            NaN
         13   -1    0    0    0    0  0.00000000000E+00  0.00000000000E+00  0.74505805969E-08  0.10566000000E+00  0.10566000000E+00 0. -1.
     999900   -1    0    0    0    0 -0.00000000000E+00 -0.00000000000E+00 -0.74505805969E-08  0.93827000000E+00  0.93827000000E+00 0. -1.
     999902    2    1    2    0    0 -0.11257862813E-01  0.18348023439E-01  0.10300789267E-01  0.10200658910E+01  0.10197867063E+01 0.  0.
     999903    2    3    3    0    0 -0.71668914055E-01  0.22919963329E-01 -0.10533158413E+00  0.13043605588E+00  0.16033218528E-01 0.  0.
         14    1    1    2    0    0  0.11257862813E-01 -0.18348023439E-01 -0.10300789267E-01  0.23864109008E-01  0.00000000000E+00 0.  1.
     999901    1    3    3    0    0  0.60411051242E-01 -0.45719398899E-02  0.11563237340E+00  0.88962983511E+00  0.88000000000E+00 0.  1.
        -11    1    4    4    0    0 -0.47430085776E-01  0.75515220762E-02 -0.61325785441E-01  0.77895773976E-01  0.51100000000E-03 0.  1.
         11    1    4    4    0    0 -0.24238828279E-01  0.15368441253E-01 -0.44005798691E-01  0.52540281901E-01  0.51100000000E-03 0. -1.
</event>
<event>
 8    1  0.1122465E+005  0.1043930E+01  0.7957747E-01            NaN
         13   -1    0    0    0    0  0.00000000000E+00  0.00000000000E+00  0.74505805969E-08  0.10566000000E+00  0.10566000000E+00 0. -1.
     999900   -1    0    0    0    0 -0.00000000000E+00 -0.00000000000E+00 -0.74505805969E-08  0.93827000000E+00  0.93827000000E+00 0. -1.
     999902    2    1    2    0    0  0.12933556782E-02  0.12892487355E-01 -0.19508328786E-01  0.10205106941E+01  0.10202419384E+01 0.  0.
     999903    2    3    3    0    0 -0.82387315308E-01 -0.91384122021E-01  0.32571193947E-01  0.12888950619E+00  0.20319809277E-01 0.  0.
         14    1    1    2    0    0 -0.12933556782E-02 -0.12892487355E-01  0.19508328786E-01  0.23419305949E-01  0.00000000000E+00 0. -1.
     999901    1    3    3    0    0  0.83680670986E-01  0.10427660938E+00 -0.52079522732E-01  0.89162118786E+00  0.88000000000E+00 0. -1.
        -11    1    4    4    0    0 -0.54840819692E-01 -0.47318887613E-01  0.14533188136E-01  0.73878733799E-01  0.51100000000E-03 0. -1.
         11    1    4    4    0    0 -0.27546495616E-01 -0.44065234408E-01  0.18038005810E-01  0.55010772389E-01  0.51100000000E-03 0.  1.
</event>
<event>
 8    1  0.1122465E+005  0.1043930E+01  0.7957747E-01            NaN
         13   -1    0    0    0    0  0.00000000000E+00  0.00000000000E+00  0.74505805969E-08  0.10566000000E+00  0.10566000000E+00 0.  1.
     999900   -1    0    0    0    0 -0.00000000000E+00 -0.00000000000E+00 -0.74505805969E-08  0.93827000000E+00  0.93827000000E+00 0.  1.
     999902    2    1    2    0    0  0.97120659204E-02  0.19933547339E-01 -0.81189002708E-02  0.10203167182E+01  0.10200434395E+01 0.  0.
     999903    2    3    3    0    0 -0.70752351423E-01 -0.20223352709E-01  0.10366615291E+00  0.12869852798E+00  0.20043967123E-01 0.  0.
         14    1    1    2    0    0 -0.97120659204E-02 -0.19933547339E-01  0.81189002708E-02  0.23613281762E-01  0.00000000000E+00 0. -1.
     999901    1    3    3    0    0  0.80464417343E-01  0.40156900048E-01 -0.11178505319E+00  0.89161819026E+00  0.88000000000E+00 0.  1.
        -11    1    4    4    0    0 -0.58941174517E-01 -0.11412347190E-01  0.71851884340E-01  0.93633637792E-01  0.51100000000E-03 0. -1.
         11    1    4    4    0    0 -0.11811176905E-01 -0.88110055190E-02  0.31814268574E-01  0.35064890190E-01  0.51100000000E-03 0.  1.
</event>
<event>
 8    1  0.1122465E+005  0.1043930E+01  0.7957747E-01            NaN
         13   -1    0    0    0    0  0.00000000000E+00  0.00000000000E+00  0.74505805969E-08  0.10566000000E+00  0.10566000000E+00 0. -1.
     999900   -1    0    0    0    0 -0.00000000000E+00 -0.00000000000E+00 -0.74505805969E-08  0.93827000000E+00  0.93827000000E+00 0.  1.
     999902    2    1    2    0    0  0.94737434177E-02  0.21559903882E-01 -0.81052224818E-02  0.10190246612E+01  0.10187202679E+01 0.  0.
     999903    2    3    3    0    0  0.57327928717E-02 -0.40454625863E-01 -0.12132875312E+00  0.12959823675E+00  0.20139388431E-01 0.  0.
         14    1    1    2    0    0 -0.94737434177E-02 -0.21559903882E-01  0.81052224818E-02  0.24905338810E-01  0.00000000000E+00 0. -1.
     999901    1    3    3    0    0  0.37409505460E-02  0.62014529745E-01  0.11322353064E+00  0.88942642444E+00  0.88000000000E+00 0. -1.
        -11    1    4    4    0    0 -0.61675818748E-02 -0.15996949124E-01 -0.33240817287E-01  0.37405273724E-01  0.51100000000E-03 0.  1.
         11    1    4    4    0    0  0.11900374746E-01 -0.24457676738E-01 -0.88087935831E-01  0.92192963021E-01  0.51100000000E-03 0. -1.
</event>
<event>
 8    1  0.1122465E+005  0.1043930E+01  0.7957747E-01            NaN
         13   -1    0    0    0    0  0.00000000000E+00  0.00000000000E+00  0.74505805969E-08  0.10566000000E+00  0.10566000000E+00 0. -1.
     999900   -1    0    0    0    0 -0.00000000000E+00 -0.00000000000E+00 -0.74505805969E-08  0.93827000000E+00  0.93827000000E+00 0. -1.
     999902    2    1    2    0    0 -0.63194305519E-02  0.76319949480E-02  0.21505867978E-01  0.10202512140E+01  0.10199763991E+01 0.  0.
     999903    2    3    3    0    0  0.72552624093E-03 -0.12808464048E+00 -0.30337208984E-03  0.12955245487E+00  0.19430517531E-01 0.  0.
         14    1    1    2    0    0  0.63194305519E-02 -0.76319949480E-02 -0.21505867978E-01  0.23678786010E-01  0.00000000000E+00 0.  1.
     999901    1    3    3    0    0 -0.70449567928E-02  0.13571663543E+00  0.21809240068E-01  0.89069875912E+00  0.88000000000E+00 0.  1.
        -11    1    4    4    0    0 -0.55155407931E-02 -0.35481410084E-01  0.64762276412E-02  0.36490468580E-01  0.51100000000E-03 0. -1.
         11    1    4    4    0    0  0.62410670340E-02 -0.92603230401E-01 -0.67795997310E-02  0.93061986288E-01  0.51100000000E-03 0.  1.
</event>
<event>
 8    1  0.1122465E+005  0.1043930E+01  0.7957747E-01            NaN
         13   -1    0    0    0    0  0.00000000000E+00  0.00000000000E+00  0.74505805969E-08  0.10566000000E+00  0.10566000000E+00 0. -1.
     999900   -1    0    0    0    0 -0.00000000000E+00 -0.00000000000E+00 -0.74505805969E-08  0.93827000000E+00  0.93827000000E+00 0.  1.
     999902    2    1    2    0    0  0.20973948814E-01  0.76159358995E-02 -0.62694057423E-02  0.10207521128E+01  0.10204889324E+01 0.  0.
     999903    2    3    3    0    0 -0.46837290598E-01  0.10524473041E+00 -0.59368804913E-01  0.13117395886E+00  0.20292053010E-01 0.  0.
         14    1    1    2    0    0 -0.20973948814E-01 -0.76159358995E-02  0.62694057423E-02  0.23177887238E-01  0.00000000000E+00 0.  1.
     999901    1    3    3    0    0  0.67811239412E-01 -0.97628794515E-01  0.53099399171E-01  0.88957815390E+00  0.88000000000E+00 0. -1.
        -11    1    4    4    0    0 -0.14439929813E-01  0.51991561355E-01 -0.34574405062E-01  0.64088100546E-01  0.51100000000E-03 0.  1.
         11    1    4    4    0    0 -0.32397360785E-01  0.53253169059E-01 -0.24794399852E-01  0.67085858314E-01  0.51100000000E-03 0. -1.
</event>
<event>
 8    1  0.1122465E+005  0.1043930E+01  0.7957747E-01            NaN
         13   -1    0    0    0    0  0.00000000000E+00  0.00000000000E+00  0.74505805969E-08  0.10566000000E+00  0.10566000000E+00 0.  1.
     999900   -1    0    0    0    0 -0.00000000000E+00 -0.00000000000E+00 -0.74505805969E-08  0.93827000000E+00  0.93827000000E+00 0. -1.
     999902    2    1    2    0    0 -0.89011378583E-02  0.29169329856E-01  0.71796204262E-02  0.10125990726E+01  0.10121142499E+01 0.  0.
     999903    2    3    3    0    0 -0.72009597511E-01 -0.72917673279E-01  0.64124454209E-01  0.12262876529E+00  0.20579097107E-01 0.  0.
         14    1    1    2    0    0  0.89011378583E-02 -0.29169329856E-01 -0.71796204262E-02  0.31330927354E-01  0.00000000000E+00 0. -1.
     999901    1    3    3    0    0  0.63108459652E-01  0.10208700313E+00 -0.56944833783E-01  0.88997030736E+00  0.88000000000E+00 0.  1.
        -11    1    4    4    0    0 -0.26596411393E-01 -0.24509130039E-01  0.11605964422E-01  0.37987183173E-01  0.51100000000E-03 0.  1.
         11    1    4    4    0    0 -0.45413186118E-01 -0.48408543240E-01  0.52518489787E-01  0.84641582113E-01  0.51100000000E-03 0. -1.
</event>
<event>
 8    1  0.1122465E+005  0.1043930E+01  0.7957747E-01            NaN
         13   -1    0    0    0    0  0.00000000000E+00  0.00000000000E+00  0.74505805969E-08  0.10566000000E+00  0.10566000000E+00 0.  1.
     999900   -1    0    0    0    0 -0.00000000000E+00 -0.00000000000E+00 -0.74505805969E-08  0.93827000000E+00  0.93827000000E+00 0. -1.
     999902    2    1    2    0    0 -0.35998530453E-02 -0.14527361668E-03  0.23033199925E-01  0.10206167346E+01  0.10203504352E+01 0.  0.
     999903    2    3    3    0    0  0.38297691141E-02 -0.11590375213E+00  0.60386333843E-01  0.13221903013E+00  0.19672715194E-01 0.  0.
         14    1    1    2    0    0  0.35998530453E-02  0.14527361668E-03 -0.23033199925E-01  0.23313265433E-01  0.00000000000E+00 0. -1.
     999901    1    3    3    0    0 -0.74296221593E-02  0.11575847852E+00 -0.37353133918E-01  0.88839770444E+00  0.88000000000E+00 0.  1.
        -11    1    4    4    0    0  0.15753428753E-02 -0.76713548870E-01  0.50087720028E-01  0.91632369303E-01  0.51100000000E-03 0. -1.
         11    1    4    4    0    0  0.22544262387E-02 -0.39190203265E-01  0.10298613815E-01  0.40586660827E-01  0.51100000000E-03 0.  1.
</event>
<event>
 8    1  0.1122465E+005  0.1043930E+01  0.7957747E-01            NaN
         13   -1    0    0    0    0  0.00000000000E+00  0.00000000000E+00  0.74505805969E-08  0.10566000000E+00  0.10566000000E+00 0.  1.
     999900   -1    0    0    0    0 -0.00000000000E+00 -0.00000000000E+00 -0.74505805969E-08  0.93827000000E+00  0.93827000000E+00 0. -1.
     999902    2    1    2    0    0 -0.38523626785E-02  0.22565129570E-01 -0.19841590221E-02  0.10209525620E+01  0.10206939655E+01 0.  0.
     999903    2    3    3    0    0 -0.35954486981E-01  0.83771913757E-01  0.94918376044E-01  0.13293965773E+00  0.18788182954E-01 0.  0.
         14    1    1    2    0    0  0.38523626785E-02 -0.22565129570E-01  0.19841590221E-02  0.22977438015E-01  0.00000000000E+00 0.  1.
     999901    1    3    3    0    0  0.32102124303E-01 -0.61206784187E-01 -0.96902535066E-01  0.88801290425E+00  0.88000000000E+00 0. -1.
        -11    1    4    4    0    0 -0.51040968742E-03  0.20307005983E-01  0.22816369621E-01  0.30552951636E-01  0.51100000000E-03 0.  1.
         11    1    4    4    0    0 -0.35444077294E-01  0.63464907775E-01  0.72102006424E-01  0.10238670610E+00  0.51100000000E-03 0. -1.
</event>
<event>
 8    1  0.1122465E+005  0.1043930E+01  0.7957747E-01            NaN
         13   -1    0    0    0    0  0.00000000000E+00  0.00000000000E+00  0.74505805969E-08  0.10566000000E+00  0.10566000000E+00 0. -1.
     999900   -1    0    0    0    0 -0.00000000000E+00 -0.00000000000E+00 -0.74505805969E-08  0.93827000000E+00  0.93827000000E+00 0. -1.
     999902    2    1    2    0    0  0.31950061522E-02  0.13720761238E-02  0.23207451594E-01  0.10204635033E+01  0.10201936508E+01 0.  0.
     999903    2    3    3    0    0  0.10826530260E+00  0.18798172728E-01 -0.65779711734E-01  0.12958632251E+00  0.19771126962E-01 0.  0.
         14    1    1    2    0    0 -0.31950061522E-02 -0.13720761238E-02 -0.23207451594E-01  0.23466496686E-01  0.00000000000E+00 0.  1.
     999901    1    3    3    0    0 -0.10507029645E+00 -0.17426096604E-01  0.88987163328E-01  0.89087718080E+00  0.88000000000E+00 0. -1.
        -11    1    4    4    0    0  0.80194510324E-01  0.54995829204E-02 -0.50864614443E-01  0.95125575014E-01  0.51100000000E-03 0.  1.
         11    1    4    4    0    0  0.28070792276E-01  0.13298589807E-01 -0.14915097291E-01  0.34460747497E-01  0.51100000000E-03 0. -1.
</event>
<event>
 8    1  0.1122465E+005  0.1043930E+01  0.7957747E-01            NaN
         13   -1    0    0    0    0  0.00000000000E+00  0.00000000000E+00  0.74505805969E-08  0.10566000000E+00  0.10566000000E+00 0. -1.
     999900   -1    0    0    0    0 -0.00000000000E+00 -0.00000000000E+00 -0.74505805969E-08  0.93827000000E+00  0.93827000000E+00 0. -1.
     999902    2    1    2    0    0 -0.50079345792E-02 -0.21474434846E-01 -0.77248461268E-02  0.10205654112E+01  0.10202979244E+01 0.  0.
     999903    2    3    3    0    0  0.11301362650E+00 -0.49639731956E-01  0.39286905384E-01  0.13099670808E+00  0.19506251026E-01 0.  0.
         14    1    1    2    0    0  0.50079345792E-02  0.21474434846E-01  0.77248461268E-02  0.23364588770E-01  0.00000000000E+00 0.  1.
     999901    1    3    3    0    0 -0.11802156108E+00  0.28165297110E-01 -0.47011751511E-01  0.88956870315E+00  0.88000000000E+00 0. -1.
        -11    1    4    4    0    0  0.53837440457E-01 -0.22834201494E-01  0.28802551208E-01  0.65189867540E-01  0.51100000000E-03 0.  1.
         11    1    4    4    0    0  0.59176186048E-01 -0.26805530462E-01  0.10484354176E-01  0.65806840541E-01  0.51100000000E-03 0. -1.
</event>
<event>
 8    1  0.1122465E+005  0.1043930E+01  0.7957747E-01            NaN
         13   -1    0    0    0    0  0.00000000000E+00  0.00000000000E+00  0.74505805969E-08  0.10566000000E+00  0.10566000000E+00 0. -1.
     999900   -1    0    0    0    0 -0.00000000000E+00 -0.00000000000E+00 -0.74505805969E-08  0.93827000000E+00  0.93827000000E+00 0. -1.
     999902    2    1    2    0    0  0.10845495713E-01  0.12044787530E-01 -0.17064343653E-01  0.10203950577E+01  0.10201236103E+01 0.  0.
     999903    2    3    3    0    0 -0.10191941337E+00  0.12641248748E-02 -0.79579669941E-01  0.13093437088E+00  0.20535841262E-01 0.  0.
         14    1    1    2    0    0 -0.10845495713E-01 -0.12044787530E-01  0.17064343653E-01  0.23534942282E-01  0.00000000000E+00 0. -1.
     999901    1    3    3    0    0  0.11276490908E+00  0.10780662656E-01  0.62515326288E-01  0.88946068684E+00  0.88000000000E+00 0.  1.
        -11    1    4    4    0    0 -0.79829493352E-01 -0.22704203454E-02 -0.71346597983E-01  0.10709108731E+00  0.51100000000E-03 0. -1.
         11    1    4    4    0    0 -0.22089920019E-01  0.35345452202E-02 -0.82330719583E-02  0.23843283566E-01  0.51100000000E-03 0.  1.
</event>
<event>
 8    1  0.1122465E+005  0.1043930E+01  0.7957747E-01            NaN
         13   -1    0    0    0    0  0.00000000000E+00  0.00000000000E+00  0.74505805969E-08  0.10566000000E+00  0.10566000000E+00 0.  1.
     999900   -1    0    0    0    0 -0.00000000000E+00 -0.00000000000E+00 -0.74505805969E-08  0.93827000000E+00  0.93827000000E+00 0. -1.
     999902    2    1    2    0    0  0.11509010380E-01  0.20206427002E-01  0.63076555292E-02  0.10198355290E+01  0.10195508633E+01 0.  0.
     999903    2    3    3    0    0  0.33700872506E-02  0.97913291803E-01 -0.84453094354E-01  0.13172398615E+00  0.24910102016E-01 0.  0.
         14    1    1    2    0    0 -0.11509010380E-01 -0.20206427002E-01 -0.63076555292E-02  0.24094470950E-01  0.00000000000E+00 0.  1.
     999901    1    3    3    0    0  0.81389231289E-02 -0.77706864801E-01  0.90760749883E-01  0.88811154290E+00  0.88000000000E+00 0.  1.
        -11    1    4    4    0    0 -0.47148832628E-02  0.73249867848E-01 -0.72405712738E-01  0.10310490591E+00  0.51100000000E-03 0. -1.
         11    1    4    4    0    0  0.80849705134E-02  0.24663423954E-01 -0.12047381616E-01  0.28619080247E-01  0.51100000000E-03 0.  1.
</event>
<event>
 8    1  0.1122465E+005  0.1043930E+01  0.7957747E-01            NaN
         13   -1    0    0    0    0  0.00000000000E+00  0.00000000000E+00  0.74505805969E-08  0.10566000000E+00  0.10566000000E+00 0. -1.
     999900   -1    0    0    0    0 -0.00000000000E+00 -0.00000000000E+00 -0.74505805969E-08  0.93827000000E+00  0.93827000000E+00 0.  1.
     999902    2    1    2    0    0  0.23111196775E-02 -0.24039525711E-01  0.29354601207E-02  0.10196018888E+01  0.10193116082E+01 0.  0.
     999903    2    3    3    0    0  0.97166747038E-01 -0.76139374390E-02  0.83212742150E-01  0.13071953883E+00  0.25766035857E-01 0.  0.
         14    1    1    2    0    0 -0.23111196775E-02  0.24039525711E-01 -0.29354601207E-02  0.24328111244E-01  0.00000000000E+00 0.  1.
     999901    1    3    3    0    0 -0.94855627360E-01 -0.16425588272E-01 -0.80277282029E-01  0.88888234992E+00  0.88000000000E+00 0.  1.
        -11    1    4    4    0    0  0.79513658219E-01 -0.95668974167E-02  0.78922122116E-01  0.11244069481E+00  0.51100000000E-03 0. -1.
         11    1    4    4    0    0  0.17653088819E-01  0.19529599777E-02  0.42906200338E-02  0.18278844022E-01  0.51100000000E-03 0.  1.
</event>
<event>
 8    1  0.1122465E+005  0.1043930E+01  0.7957747E-01            NaN
         13   -1    0    0    0    0  0.00000000000E+00  0.00000000000E+00  0.74505805969E-08  0.10566000000E+00  0.10566000000E+00 0.  1.
     999900   -1    0    0    0    0 -0.00000000000E+00 -0.00000000000E+00 -0.74505805969E-08  0.93827000000E+00  0.93827000000E+00 0.  1.
     999902    2    1    2    0    0 -0.28463605360E-01  0.22291624082E-02  0.38119112780E-02  0.10151258916E+01  0.10147171522E+01 0.  0.
     999903    2    3    3    0    0  0.76583404446E-01  0.95407247121E-01  0.28641237350E-02  0.12399294523E+00  0.19962129710E-01 0.  0.
         14    1    1    2    0    0  0.28463605360E-01 -0.22291624082E-02 -0.38119112780E-02  0.28804108435E-01  0.00000000000E+00 0.  1.
     999901    1    3    3    0    0 -0.10504700981E+00 -0.93178084713E-01  0.94778754299E-03  0.89113294633E+00  0.88000000000E+00 0.  1.
        -11    1    4    4    0    0  0.41309065218E-01  0.58392217157E-01 -0.71594705983E-02  0.71886083729E-01  0.51100000000E-03 0.  1.
         11    1    4    4    0    0  0.35274339228E-01  0.37015029964E-01  0.10023594333E-01  0.52106861502E-01  0.51100000000E-03 0. -1.
</event>
<event>
 8    1  0.1122465E+005  0.1043930E+01  0.7957747E-01            NaN
         13   -1    0    0    0    0  0.00000000000E+00  0.00000000000E+00  0.74505805969E-08  0.10566000000E+00  0.10566000000E+00 0.  1.
     999900   -1    0    0    0    0 -0.00000000000E+00 -0.00000000000E+00 -0.74505805969E-08  0.93827000000E+00  0.93827000000E+00 0. -1.
     999902    2    1    2    0    0  0.18808149410E-01  0.99362367813E-02  0.93041974920E-02  0.10207126923E+01  0.10204486057E+01 0.  0.
     999903    2    3    3    0    0 -0.71188848098E-01 -0.65323119871E-01  0.84210767003E-01  0.12977250100E+00  0.20358945304E-01 0.  0.
         14    1    1    2    0    0 -0.18808149410E-01 -0.99362367813E-02 -0.93041974920E-02  0.23217307694E-01  0.00000000000E+00 0. -1.
     999901    1    3    3    0    0  0.89996997508E-01  0.75259356653E-01 -0.74906569511E-01  0.89094019130E+00  0.88000000000E+00 0.  1.
        -11    1    4    4    0    0 -0.67709775258E-01 -0.53293184826E-01  0.72305675320E-01  0.11248621702E+00  0.51100000000E-03 0.  1.
         11    1    4    4    0    0 -0.34790728394E-02 -0.12029935045E-01  0.11905091683E-01  0.17286283985E-01  0.51100000000E-03 0. -1.
</event>
<event>
 8    1  0.1122465E+005  0.1043930E+01  0.7957747E-01            NaN
         13   -1    0    0    0    0  0.00000000000E+00  0.00000000000E+00  0.74505805969E-08  0.10566000000E+00  0.10566000000E+00 0.  1.
     999900   -1    0    0    0    0 -0.00000000000E+00 -0.00000000000E+00 -0.74505805969E-08  0.93827000000E+00  0.93827000000E+00 0. -1.
     999902    2    1    2    0    0 -0.21095482477E-01 -0.15591696321E-01  0.20859476192E-02  0.10176151458E+01  0.10172748465E+01 0.  0.
     999903    2    3    3    0    0 -0.62715398123E-01 -0.14640940487E-01 -0.11054307224E+00  0.12946064490E+00  0.19816898285E-01 0.  0.
         14    1    1    2    0    0  0.21095482477E-01  0.15591696321E-01 -0.20859476192E-02  0.26314854220E-01  0.00000000000E+00 0. -1.
     999901    1    3    3    0    0  0.41619915646E-01 -0.95075583478E-03  0.11262901986E+00  0.88815450088E+00  0.88000000000E+00 0.  1.
        -11    1    4    4    0    0 -0.58844901751E-01 -0.10747322986E-01 -0.89090323631E-01  0.10731064392E+00  0.51100000000E-03 0. -1.
         11    1    4    4    0    0 -0.38704963725E-02 -0.38936175010E-02 -0.21452748611E-01  0.22150000980E-01  0.51100000000E-03 0.  1.
</event>
<event>
 8    1  0.1122465E+005  0.1043930E+01  0.7957747E-01            NaN
         13   -1    0    0    0    0  0.00000000000E+00  0.00000000000E+00  0.74505805969E-08  0.10566000000E+00  0.10566000000E+00 0.  1.
     999900   -1    0    0    0    0 -0.00000000000E+00 -0.00000000000E+00 -0.74505805969E-08  0.93827000000E+00  0.93827000000E+00 0. -1.
     999902    2    1    2    0    0 -0.10933848781E-01 -0.35899387909E-02 -0.20502225126E-01  0.10204187698E+01  0.10201478755E+01 0.  0.
     999903    2    3    3    0    0 -0.59084071642E-01 -0.77758900781E-01  0.83365223458E-01  0.12990884524E+00  0.19727478753E-01 0.  0.
         14    1    1    2    0    0  0.10933848781E-01  0.35899387909E-02  0.20502225126E-01  0.23511230185E-01  0.00000000000E+00 0.  1.
     999901    1    3    3    0    0  0.48150222861E-01  0.74168961990E-01 -0.10386744858E+00  0.89050992457E+00  0.88000000000E+00 0. -1.
        -11    1    4    4    0    0 -0.49452926367E-02 -0.18250249631E-01  0.19726727534E-01  0.27330064600E-01  0.51100000000E-03 0. -1.
         11    1    4    4    0    0 -0.54138779005E-01 -0.59508651150E-01  0.63638495925E-01  0.10257878064E+00  0.51100000000E-03 0.  1.
</event>
<event>
 8    1  0.1122465E+005  0.1043930E+01  0.7957747E-01            NaN
         13   -1    0    0    0    0  0.00000000000E+00  0.00000000000E+00  0.74505805969E-08  0.10566000000E+00  0.10566000000E+00 0.  1.
     999900   -1    0    0    0    0 -0.00000000000E+00 -0.00000000000E+00 -0.74505805969E-08  0.93827000000E+00  0.93827000000E+00 0.  1.
     999902    2    1    2    0    0 -0.33564774121E-02  0.91995516604E-02 -0.20952264285E-01  0.10208022014E+01  0.10205401703E+01 0.  0.
     999903    2    3    3    0    0 -0.10789451797E+00  0.73378682036E-01  0.53864440727E-03  0.13203394030E+00  0.20174569882E-01 0.  0.
         14    1    1    2    0    0  0.33564774121E-02 -0.91995516604E-02  0.20952264285E-01  0.23127798642E-01  0.00000000000E+00 0.  1.
     999901    1    3    3    0    0  0.10453804055E+00 -0.64179130376E-01 -0.21490908692E-01  0.88876826105E+00  0.88000000000E+00 0. -1.
        -11    1    4    4    0    0 -0.13467806349E-01  0.28222444957E-02 -0.30468984671E-02  0.14102892722E-01  0.51100000000E-03 0. -1.
         11    1    4    4    0    0 -0.94426711618E-01  0.70556437540E-01  0.35855428743E-02  0.11793104758E+00  0.51100000000E-03 0.  1.
</event>
<event>
 8    1  0.1122465E+005  0.1043930E+01  0.7957747E-01            NaN
         13   -1    0    0    0    0  0.00000000000E+00  0.00000000000E+00  0.74505805969E-08  0.10566000000E+00  0.10566000000E+00 0.  1.
     999900   -1    0    0    0    0 -0.00000000000E+00 -0.00000000000E+00 -0.74505805969E-08  0.93827000000E+00  0.93827000000E+00 0. -1.
     999902    2    1    2    0    0  0.10978929904E-01 -0.22848117468E-01  0.51847830384E-02  0.10180561648E+01  0.10177273207E+01 0.  0.
     999903    2    3    3    0    0  0.92850382356E-01  0.24993087200E-01  0.83776095430E-01  0.12947960085E+00  0.22375990677E-01 0.  0.
         14    1    1    2    0    0 -0.10978929904E-01  0.22848117468E-01 -0.51847830384E-02  0.25873835217E-01  0.00000000000E+00 0.  1.
     999901    1    3    3    0    0 -0.81871452453E-01 -0.47841204668E-01 -0.78591312392E-01  0.88857656393E+00  0.88000000000E+00 0. -1.
        -11    1    4    4    0    0  0.79120693680E-01  0.19366696771E-01  0.58943429045E-01  0.10054721309E+00  0.51100000000E-03 0. -1.
         11    1    4    4    0    0  0.13729688676E-01  0.56263904293E-02  0.24832666385E-01  0.28932387755E-01  0.51100000000E-03 0.  1.
</event>
<event>
 8    1  0.1122465E+005  0.1043930E+01  0.7957747E-01            NaN
         13   -1    0    0    0    0  0.00000000000E+00  0.00000000000E+00  0.74505805969E-08  0.10566000000E+00  0.10566000000E+00 0. -1.
     999900   -1    0    0    0    0 -0.00000000000E+00 -0.00000000000E+00 -0.74505805969E-08  0.93827000000E+00  0.93827000000E+00 0. -1.
     999902    2    1    2    0    0  0.17715704246E-01 -0.14640878021E-01  0.89480517109E-02  0.10192668876E+01  0.10189684583E+01 0.  0.
     999903    2    3    3    0    0 -0.17218790228E-01 -0.53676523908E-01  0.11689530260E+00  0.13112455125E+00  0.18747805603E-01 0.  0.
         14    1    1    2    0    0 -0.17715704246E-01  0.14640878021E-01 -0.89480517109E-02  0.24663112447E-01  0.00000000000E+00 0.  1.
     999901    1    3    3    0    0  0.34934494474E-01  0.39035645887E-01 -0.10794725089E+00  0.88814233630E+00  0.88000000000E+00 0. -1.
        -11    1    4    4    0    0  0.47831203525E-03 -0.22841011564E-01  0.34466959258E-01  0.41354237910E-01  0.51100000000E-03 0. -1.
         11    1    4    4    0    0 -0.17697102263E-01 -0.30835512344E-01  0.82428343345E-01  0.89770313342E-01  0.51100000000E-03 0.  1.
</event>
<event>
 8    1  0.1122465E+005  0.1043930E+01  0.7957747E-01            NaN
         13   -1    0    0    0    0  0.00000000000E+00  0.00000000000E+00  0.74505805969E-08  0.10566000000E+00  0.10566000000E+00 0.  1.
     999900   -1    0    0    0    0 -0.00000000000E+00 -0.00000000000E+00 -0.74505805969E-08  0.93827000000E+00  0.93827000000E+00 0.  1.
     999902    2    1    2    0    0  0.73695201648E-02  0.19255225378E-01  0.12295531100E-01  0.10199247169E+01  0.10196421796E+01 0.  0.
     999903    2    3    3    0    0 -0.91470052116E-01 -0.17477639197E-01 -0.85751488639E-01  0.12822309501E+00  0.20386416682E-01 0.  0.
         14    1    1    2    0    0 -0.73695201648E-02 -0.19255225378E-01 -0.12295531100E-01  0.24005283103E-01  0.00000000000E+00 0. -1.
     999901    1    3    3    0    0  0.98839572281E-01  0.36732864575E-01  0.98047019739E-01  0.89170162188E+00  0.88000000000E+00 0. -1.
        -11    1    4    4    0    0 -0.68370167931E-01 -0.46416966254E-02 -0.56679017193E-01  0.88931419203E-01  0.51100000000E-03 0. -1.
         11    1    4    4    0    0 -0.23099884185E-01 -0.12835942571E-01 -0.29072471446E-01  0.39291675811E-01  0.51100000000E-03 0.  1.
</event>
<event>
 8    1  0.1122465E+005  0.1043930E+01  0.7957747E-01            NaN
         13   -1    0    0    0    0  0.00000000000E+00  0.00000000000E+00  0.74505805969E-08  0.10566000000E+00  0.10566000000E+00 0.  1.
     999900   -1    0    0    0    0 -0.00000000000E+00 -0.00000000000E+00 -0.74505805969E-08  0.93827000000E+00  0.93827000000E+00 0. -1.
     999902    2    1    2    0    0  0.11261330860E-01  0.14475597333E-01  0.15061390147E-01  0.10201980392E+01  0.10199219741E+01 0.  0.
     999903    2    3    3    0    0 -0.83505685185E-01 -0.93608275419E-01 -0.15651753319E-01  0.12800623914E+00  0.20122405248E-01 0.  0.
         14    1    1    2    0    0 -0.11261330860E-01 -0.14475597333E-01 -0.15061390147E-01  0.23731960814E-01  0.00000000000E+00 0. -1.
     999901    1    3    3    0    0  0.94767016045E-01  0.10808387275E+00  0.30713143466E-01  0.89219180004E+00  0.88000000000E+00 0.  1.
        -11    1    4    4    0    0 -0.42180607378E-01 -0.39573076050E-01  0.14611810405E-02  0.57858691291E-01  0.51100000000E-03 0. -1.
         11    1    4    4    0    0 -0.41325077807E-01 -0.54035199369E-01 -0.17112934359E-01  0.70147547854E-01  0.51100000000E-03 0.  1.
</event>
<event>
 8    1  0.1122465E+005  0.1043930E+01  0.7957747E-01            NaN
         13   -1    0    0    0    0  0.00000000000E+00  0.00000000000E+00  0.74505805969E-08  0.10566000000E+00  0.10566000000E+00 0.  1.
     999900   -1    0    0    0    0 -0.00000000000E+00 -0.00000000000E+00 -0.74505805969E-08  0.93827000000E+00  0.93827000000E+00 0. -1.
     999902    2    1    2    0    0 -0.13219821880E-01 -0.32926153192E-02 -0.13836233375E-01  0.10245123184E+01  0.10243282892E+01 0.  0.
     999903    2    3    3    0    0 -0.58062018702E-02 -0.13313369094E+00  0.69819496623E-02  0.13471061943E+00  0.18436695013E-01 0.  0.
         14    1    1    2    0    0  0.13219821880E-01  0.32926153192E-02  0.13836233375E-01  0.19417681637E-01  0.00000000000E+00 0.  1.
     999901    1    3    3    0    0 -0.74136200096E-02  0.12984107562E+00 -0.20818183037E-01  0.88980169893E+00  0.88000000000E+00 0.  1.
        -11    1    4    4    0    0  0.67443925417E-02 -0.46237500830E-01  0.26202329194E-02  0.46802991948E-01  0.51100000000E-03 0.  1.
         11    1    4    4    0    0 -0.12550594412E-01 -0.86896190109E-01  0.43617167429E-02  0.87907627481E-01  0.51100000000E-03 0. -1.
</event>
<event>
 8    1  0.1122465E+005  0.1043930E+01  0.7957747E-01            NaN
         13   -1    0    0    0    0  0.00000000000E+00  0.00000000000E+00  0.74505805969E-08  0.10566000000E+00  0.10566000000E+00 0.  1.
     999900   -1    0    0    0    0 -0.00000000000E+00 -0.00000000000E+00 -0.74505805969E-08  0.93827000000E+00  0.93827000000E+00 0.  1.
     999902    2    1    2    0    0 -0.16738709099E-01 -0.18787551652E-01 -0.10402186607E-02  0.10187459071E+01  0.10184345756E+01 0.  0.
     999903    2    3    3    0    0 -0.75097689949E-01  0.80831196971E-01  0.63981246917E-01  0.12882599122E+00  0.18143610943E-01 0.  0.
         14    1    1    2    0    0  0.16738709099E-01  0.18787551652E-01  0.10402186607E-02  0.25184092881E-01  0.00000000000E+00 0. -1.
     999901    1    3    3    0    0  0.58358980850E-01 -0.99618748622E-01 -0.65021465578E-01  0.88991991590E+00  0.88000000000E+00 0.  1.
        -11    1    4    4    0    0 -0.34891286366E-01  0.49073419929E-01  0.29394020821E-01  0.67006507064E-01  0.51100000000E-03 0.  1.
         11    1    4    4    0    0 -0.40206403583E-01  0.31757777041E-01  0.34587226096E-01  0.61819484159E-01  0.51100000000E-03 0. -1.
</event>
<event>
 8    1  0.1122465E+005  0.1043930E+01  0.7957747E-01            NaN
         13   -1    0    0    0    0  0.00000000000E+00  0.00000000000E+00  0.74505805969E-08  0.10566000000E+00  0.10566000000E+00 0.  1.
     999900   -1    0    0    0    0 -0.00000000000E+00 -0.00000000000E+00 -0.74505805969E-08  0.93827000000E+00  0.93827000000E+00 0. -1.
     999902    2    1    2    0    0 -0.18909652385E-01 -0.12577498685E-01  0.96225705989E-02  0.10192649987E+01  0.10189665231E+01 0.  0.
     999903    2    3    3    0    0 -0.78597174190E-01  0.58142378680E-01  0.85180336674E-01  0.13119243556E+00  0.19942753112E-01 0.  0.
         14    1    1    2    0    0  0.18909652385E-01  0.12577498685E-01 -0.96225705989E-02  0.24665001347E-01  0.00000000000E+00 0. -1.
     999901    1    3    3    0    0  0.59687521804E-01 -0.70719877365E-01 -0.75557766076E-01  0.88807256310E+00  0.88000000000E+00 0. -1.
        -11    1    4    4    0    0 -0.33650996368E-01  0.37176773396E-01  0.41137229072E-01  0.64861658732E-01  0.51100000000E-03 0.  1.
         11    1    4    4    0    0 -0.44946177822E-01  0.20965605284E-01  0.44043107602E-01  0.66330776823E-01  0.51100000000E-03 0. -1.
</event>
<event>
 8    1  0.1122465E+005  0.1043930E+01  0.7957747E-01            NaN
         13   -1    0    0    0    0  0.00000000000E+00  0.00000000000E+00  0.74505805969E-08  0.10566000000E+00  0.10566000000E+00 0. -1.
     999900   -1    0    0    0    0 -0.00000000000E+00 -0.00000000000E+00 -0.74505805969E-08  0.93827000000E+00  0.93827000000E+00 0. -1.
     999902    2    1    2    0    0 -0.10478833538E-01  0.78287377754E-02 -0.20092634355E-01  0.10199548244E+01  0.10196730039E+01 0.  0.
     999903    2    3    3    0    0  0.11444631375E+00  0.52731439452E-01 -0.24725899635E-01  0.12998627883E+00  0.20161823667E-01 0.  0.
         14    1    1    2    0    0  0.10478833538E-01 -0.78287377754E-02  0.20092634355E-01  0.23975175553E-01  0.00000000000E+00 0. -1.
     999901    1    3    3    0    0 -0.12492514729E+00 -0.44902701676E-01  0.46332652798E-02  0.88996854562E+00  0.88000000000E+00 0.  1.
        -11    1    4    4    0    0  0.77857897902E-01  0.32783454280E-01 -0.72369707915E-02  0.84789397966E-01  0.51100000000E-03 0. -1.
         11    1    4    4    0    0  0.36588415847E-01  0.19947985171E-01 -0.17488928843E-01  0.45196880862E-01  0.51100000000E-03 0.  1.
</event>
<event>
 8    1  0.1122465E+005  0.1043930E+01  0.7957747E-01            NaN
         13   -1    0    0    0    0  0.00000000000E+00  0.00000000000E+00  0.74505805969E-08  0.10566000000E+00  0.10566000000E+00 0.  1.
     999900   -1    0    0    0    0 -0.00000000000E+00 -0.00000000000E+00 -0.74505805969E-08  0.93827000000E+00  0.93827000000E+00 0.  1.
     999902    2    1    2    0    0 -0.11468274147E-01  0.15622002852E-01  0.12732211928E-01  0.10207421259E+01  0.10204787161E+01 0.  0.
     999903    2    3    3    0    0 -0.13735909033E-01 -0.12680184679E+00  0.85538037524E-02  0.12927863578E+00  0.19298045577E-01 0.  0.
         14    1    1    2    0    0  0.11468274147E-01 -0.15622002852E-01 -0.12732211928E-01  0.23187874107E-01  0.00000000000E+00 0. -1.
     999901    1    3    3    0    0  0.22676348852E-02  0.14242384964E+00  0.41784081759E-02  0.89146349012E+00  0.88000000000E+00 0. -1.
        -11    1    4    4    0    0 -0.45531988964E-02 -0.61196808186E-01  0.13542296613E-01  0.62844537319E-01  0.51100000000E-03 0.  1.
         11    1    4    4    0    0 -0.91827101363E-02 -0.65605038605E-01 -0.49884928604E-02  0.66434098457E-01  0.51100000000E-03 0. -1.
</event>
<event>
 8    1  0.1122465E+005  0.1043930E+01  0.7957747E-01            NaN
         13   -1    0    0    0    0  0.00000000000E+00  0.00000000000E+00  0.74505805969E-08  0.10566000000E+00  0.10566000000E+00 0. -1.
     999900   -1    0    0    0    0 -0.00000000000E+00 -0.00000000000E+00 -0.74505805969E-08  0.93827000000E+00  0.93827000000E+00 0.  1.
     999902    2    1    2    0    0 -0.71925023893E-02  0.16967186507E-01  0.15210027334E-01  0.10200351796E+01  0.10197552673E+01 0.  0.
     999903    2    3    3    0    0 -0.10450234594E+00 -0.33632038452E-01 -0.65810198522E-01  0.12953320647E+00  0.19900126425E-01 0.  0.
         14    1    1    2    0    0  0.71925023893E-02 -0.16967186507E-01 -0.15210027334E-01  0.23894820361E-01  0.00000000000E+00 0.  1.
     999901    1    3    3    0    0  0.97309843551E-01  0.50599224958E-01  0.81020225857E-01  0.89050197317E+00  0.88000000000E+00 0. -1.
        -11    1    4    4    0    0 -0.92795619390E-01 -0.33768957630E-01 -0.52640767429E-01  0.11190478539E+00  0.51100000000E-03 0.  1.
         11    1    4    4    0    0 -0.11706726551E-01  0.13691917823E-03 -0.13169431093E-01  0.17628421078E-01  0.51100000000E-03 0. -1.
</event>
<event>
 8    1  0.1122465E+005  0.1043930E+01  0.7957747E-01            NaN
         13   -1    0    0    0    0  0.00000000000E+00  0.00000000000E+00  0.74505805969E-08  0.10566000000E+00  0.10566000000E+00 0.  1.
     999900   -1    0    0    0    0 -0.00000000000E+00 -0.00000000000E+00 -0.74505805969E-08  0.93827000000E+00  0.93827000000E+00 0.  1.
     999902    2    1    2    0    0  0.31793325404E-02 -0.24030815678E-01 -0.38072457837E-02  0.10193926126E+01  0.10190972551E+01 0.  0.
     999903    2    3    3    0    0  0.28997026557E-01 -0.18692308682E-02 -0.12545512947E+00  0.13037298588E+00  0.20342181884E-01 0.  0.
         14    1    1    2    0    0 -0.31793325404E-02  0.24030815678E-01  0.38072457837E-02  0.24537387351E-01  0.00000000000E+00 0.  1.
     999901    1    3    3    0    0 -0.25817694017E-01 -0.22161584810E-01  0.12164788369E+00  0.88901962676E+00  0.88000000000E+00 0. -1.
        -11    1    4    4    0    0  0.97449267544E-02 -0.81372403994E-02 -0.73863661784E-01  0.74948515208E-01  0.51100000000E-03 0.  1.
         11    1    4    4    0    0  0.19252099803E-01  0.62680095313E-02 -0.51591467690E-01  0.55424470676E-01  0.51100000000E-03 0. -1.
</event>
<event>
 8    1  0.1122465E+005  0.1043930E+01  0.7957747E-01            NaN
         13   -1    0    0    0    0  0.00000000000E+00  0.00000000000E+00  0.74505805969E-08  0.10566000000E+00  0.10566000000E+00 0. -1.
     999900   -1    0    0    0    0 -0.00000000000E+00 -0.00000000000E+00 -0.74505805969E-08  0.93827000000E+00  0.93827000000E+00 0. -1.
     999902    2    1    2    0    0 -0.53454409922E-02 -0.59007785188E-02 -0.22252629107E-01  0.10202958631E+01  0.10200220957E+01 0.  0.
     999903    2    3    3    0    0 -0.86826106728E-02  0.12400118141E+00 -0.34675165640E-01  0.13066674073E+00  0.20487784199E-01 0.  0.
         14    1    1    2    0    0  0.53454409922E-02  0.59007785188E-02  0.22252629107E-01  0.23634136936E-01  0.00000000000E+00 0. -1.
     999901    1    3    3    0    0  0.33371696806E-02 -0.12990195993E+00  0.12422536533E-01  0.88962912234E+00  0.88000000000E+00 0. -1.
        -11    1    4    4    0    0 -0.25286858503E-03  0.31866490554E-01 -0.29009144949E-04  0.31871603745E-01  0.51100000000E-03 0. -1.
         11    1    4    4    0    0 -0.84297420877E-02  0.92134690855E-01 -0.34646156495E-01  0.98795136983E-01  0.51100000000E-03 0.  1.
</event>
<event>
 8    1  0.1122465E+005  0.1043930E+01  0.7957747E-01            NaN
         13   -1    0    0    0    0  0.00000000000E+00  0.00000000000E+00  0.74505805969E-08  0.10566000000E+00  0.10566000000E+00 0. -1.
     999900   -1    0    0    0    0 -0.00000000000E+00 -0.00000000000E+00 -0.74505805969E-08  0.93827000000E+00  0.93827000000E+00 0. -1.
     999902    2    1    2    0    0 -0.12582491674E-01  0.11667289246E-01  0.16817816963E-01  0.10199032711E+01  0.10196202228E+01 0.  0.
     999903    2    3    3    0    0  0.57249213847E-02  0.11742065262E+00  0.57505176765E-01  0.13244938694E+00  0.20386523918E-01 0.  0.
         14    1    1    2    0    0  0.12582491674E-01 -0.11667289246E-01 -0.16817816963E-01  0.24026728918E-01  0.00000000000E+00 0.  1.
     999901    1    3    3    0    0 -0.18307413059E-01 -0.10575336338E+00 -0.40687359801E-01  0.88745388415E+00  0.88000000000E+00 0. -1.
        -11    1    4    4    0    0 -0.55617448594E-02  0.80133601914E-01  0.37434991897E-01  0.88622609423E-01  0.51100000000E-03 0. -1.
         11    1    4    4    0    0  0.11286666244E-01  0.37287050710E-01  0.20070184868E-01  0.43826777513E-01  0.51100000000E-03 0.  1.
</event>
<event>
 8    1  0.1122465E+005  0.1043930E+01  0.7957747E-01            NaN
         13   -1    0    0    0    0  0.00000000000E+00  0.00000000000E+00  0.74505805969E-08  0.10566000000E+00  0.10566000000E+00 0.  1.
     999900   -1    0    0    0    0 -0.00000000000E+00 -0.00000000000E+00 -0.74505805969E-08  0.93827000000E+00  0.93827000000E+00 0. -1.
     999902    2    1    2    0    0 -0.45584797016E-02 -0.20399734923E-01 -0.10372781012E-01  0.10205949725E+01  0.10203281700E+01 0.  0.
     999903    2    3    3    0    0 -0.52147538592E-01 -0.11115365114E+00  0.46526129974E-01  0.13282333638E+00  0.20071322216E-01 0.  0.
         14    1    1    2    0    0  0.45584797016E-02  0.20399734923E-01  0.10372781012E-01  0.23335027492E-01  0.00000000000E+00 0.  1.
     999901    1    3    3    0    0  0.47589058890E-01  0.90753916215E-01 -0.56898910986E-01  0.88777163612E+00  0.88000000000E+00 0. -1.
        -11    1    4    4    0    0 -0.15242619420E-01 -0.18301511049E-01  0.14539757407E-01  0.27909647434E-01  0.51100000000E-03 0. -1.
         11    1    4    4    0    0 -0.36904919172E-01 -0.92852140089E-01  0.31986372568E-01  0.10491368895E+00  0.51100000000E-03 0.  1.
</event>
<event>
 8    1  0.1122465E+005  0.1043930E+01  0.7957747E-01            NaN
         13   -1    0    0    0    0  0.00000000000E+00  0.00000000000E+00  0.74505805969E-08  0.10566000000E+00  0.10566000000E+00 0. -1.
     999900   -1    0    0    0    0 -0.00000000000E+00 -0.00000000000E+00 -0.74505805969E-08  0.93827000000E+00  0.93827000000E+00 0.  1.
     999902    2    1    2    0    0  0.31422667080E-02 -0.64936447523E-02  0.22684764215E-01  0.10201258031E+01  0.10198480349E+01 0.  0.
     999903    2    3    3    0    0 -0.19209679735E-01  0.39338323798E-01 -0.11828463933E+00  0.12744862093E+00  0.18313371065E-01 0.  0.
         14    1    1    2    0    0 -0.31422667080E-02  0.64936447523E-02 -0.22684764215E-01  0.23804196893E-01  0.00000000000E+00 0.  1.
     999901    1    3    3    0    0  0.22351946443E-01 -0.45831968550E-01  0.14096940354E+00  0.89267718218E+00  0.88000000000E+00 0. -1.
        -11    1    4    4    0    0 -0.14318884436E-01  0.20123588291E-01 -0.42956877634E-01  0.49553443011E-01  0.51100000000E-03 0.  1.
         11    1    4    4    0    0 -0.48907952985E-02  0.19214735507E-01 -0.75327761696E-01  0.77895177915E-01  0.51100000000E-03 0. -1.
</event>
<event>
 8    1  0.1122465E+005  0.1043930E+01  0.7957747E-01            NaN
         13   -1    0    0    0    0  0.00000000000E+00  0.00000000000E+00  0.74505805969E-08  0.10566000000E+00  0.10566000000E+00 0. -1.
     999900   -1    0    0    0    0 -0.00000000000E+00 -0.00000000000E+00 -0.74505805969E-08  0.93827000000E+00  0.93827000000E+00 0.  1.
     999902    2    1    2    0    0  0.17531865102E-01 -0.53553607585E-02  0.15508905507E-01  0.10199180794E+01  0.10196353840E+01 0.  0.
     999903    2    3    3    0    0  0.67801167447E-01  0.74813140016E-01 -0.77675696626E-01  0.12995327031E+00  0.25696972413E-01 0.  0.
         14    1    1    2    0    0 -0.17531865102E-01  0.53553607585E-02 -0.15508905507E-01  0.24011920640E-01  0.00000000000E+00 0.  1.
     999901    1    3    3    0    0 -0.50269302345E-01 -0.80168500775E-01  0.93184602133E-01  0.88996480905E+00  0.88000000000E+00 0. -1.
        -11    1    4    4    0    0  0.42741753705E-01  0.28154939768E-01 -0.39873431080E-01  0.64882276240E-01  0.51100000000E-03 0. -1.
         11    1    4    4    0    0  0.25059413743E-01  0.46658200249E-01 -0.37802265547E-01  0.65070994068E-01  0.51100000000E-03 0.  1.
</event>
<event>
 8    1  0.1122465E+005  0.1043930E+01  0.7957747E-01            NaN
         13   -1    0    0    0    0  0.00000000000E+00  0.00000000000E+00  0.74505805969E-08  0.10566000000E+00  0.10566000000E+00 0. -1.
     999900   -1    0    0    0    0 -0.00000000000E+00 -0.00000000000E+00 -0.74505805969E-08  0.93827000000E+00  0.93827000000E+00 0.  1.
     999902    2    1    2    0    0 -0.14093839389E-01  0.18699885983E-01  0.34460399858E-02  0.10202615139E+01  0.10199869408E+01 0.  0.
     999903    2    3    3    0    0  0.87725627167E-01 -0.59054436272E-01  0.69221091084E-01  0.12855567910E+00  0.23490233568E-01 0.  0.
         14    1    1    2    0    0  0.14093839389E-01 -0.18699885983E-01 -0.34460399858E-02  0.23668486138E-01  0.00000000000E+00 0. -1.
     999901    1    3    3    0    0 -0.10181946656E+00  0.77754322255E-01 -0.65775051098E-01  0.89170583476E+00  0.88000000000E+00 0.  1.
        -11    1    4    4    0    0  0.51534595391E-01 -0.48119459255E-01  0.44286870810E-01  0.83263947350E-01  0.51100000000E-03 0.  1.
         11    1    4    4    0    0  0.36191031776E-01 -0.10934977017E-01  0.24934220274E-01  0.45291731751E-01  0.51100000000E-03 0. -1.
</event>
<event>
 8    1  0.1122465E+005  0.1043930E+01  0.7957747E-01            NaN
         13   -1    0    0    0    0  0.00000000000E+00  0.00000000000E+00  0.74505805969E-08  0.10566000000E+00  0.10566000000E+00 0.  1.
     999900   -1    0    0    0    0 -0.00000000000E+00 -0.00000000000E+00 -0.74505805969E-08  0.93827000000E+00  0.93827000000E+00 0.  1.
     999902    2    1    2    0    0  0.64528049481E-03  0.19254114250E-01  0.13086712303E-01  0.10206405315E+01  0.10203747818E+01 0.  0.
     999903    2    3    3    0    0  0.88748771195E-01  0.19615520067E-01 -0.90979925575E-01  0.13013942496E+00  0.19945176257E-01 0.  0.
         14    1    1    2    0    0 -0.64528049481E-03 -0.19254114250E-01 -0.13086712303E-01  0.23289468465E-01  0.00000000000E+00 0. -1.
     999901    1    3    3    0    0 -0.88103490700E-01 -0.36140581685E-03  0.10406663788E+00  0.89050110657E+00  0.88000000000E+00 0. -1.
        -11    1    4    4    0    0  0.42774387715E-01  0.29468571399E-03 -0.36005207979E-01  0.55913962538E-01  0.51100000000E-03 0. -1.
         11    1    4    4    0    0  0.45974383480E-01  0.19320834353E-01 -0.54974717596E-01  0.74225462425E-01  0.51100000000E-03 0.  1.
</event>
<event>
 8    1  0.1122465E+005  0.1043930E+01  0.7957747E-01            NaN
         13   -1    0    0    0    0  0.00000000000E+00  0.00000000000E+00  0.74505805969E-08  0.10566000000E+00  0.10566000000E+00 0.  1.
     999900   -1    0    0    0    0 -0.00000000000E+00 -0.00000000000E+00 -0.74505805969E-08  0.93827000000E+00  0.93827000000E+00 0. -1.
     999902    2    1    2    0    0  0.86772618330E-02  0.97150083862E-02  0.21325457129E-01  0.10189409748E+01  0.10186345069E+01 0.  0.
     999903    2    3    3    0    0 -0.11577156084E+00 -0.46825509852E-01  0.22212561761E-01  0.12838770480E+00  0.19857546979E-01 0.  0.
         14    1    1    2    0    0 -0.86772618330E-02 -0.97150083862E-02 -0.21325457129E-01  0.24989025243E-01  0.00000000000E+00 0. -1.
     999901    1    3    3    0    0  0.12444882268E+00  0.56540518238E-01 -0.88710463212E-03  0.89055326995E+00  0.88000000000E+00 0.  1.
        -11    1    4    4    0    0 -0.16173582327E-01 -0.35727755124E-02  0.93922601016E-02  0.19047969996E-01  0.51100000000E-03 0. -1.
         11    1    4    4    0    0 -0.99597978516E-01 -0.43252734339E-01  0.12820301659E-01  0.10933973481E+00  0.51100000000E-03 0.  1.
</event>
<event>
 8    1  0.1122465E+005  0.1043930E+01  0.7957747E-01            NaN
         13   -1    0    0    0    0  0.00000000000E+00  0.00000000000E+00  0.74505805969E-08  0.10566000000E+00  0.10566000000E+00 0.  1.
     999900   -1    0    0    0    0 -0.00000000000E+00 -0.00000000000E+00 -0.74505805969E-08  0.93827000000E+00  0.93827000000E+00 0. -1.
     999902    2    1    2    0    0 -0.20606225774E-01 -0.59258811539E-02 -0.42210289082E-02  0.10220770896E+01  0.10218434456E+01 0.  0.
     999903    2    3    3    0    0  0.11184620831E+00  0.60367405994E-01  0.15045683856E-01  0.12949115343E+00  0.19692338469E-01 0.  0.
         14    1    1    2    0    0  0.20606225774E-01  0.59258811539E-02  0.42210289082E-02  0.21852910405E-01  0.00000000000E+00 0.  1.
     999901    1    3    3    0    0 -0.13245243409E+00 -0.66293287148E-01 -0.19266712764E-01  0.89258593616E+00  0.88000000000E+00 0.  1.
        -11    1    4    4    0    0  0.41865976305E-01  0.15717342562E-01  0.12513841790E-01  0.46439769450E-01  0.51100000000E-03 0.  1.
         11    1    4    4    0    0  0.69980232006E-01  0.44650063432E-01  0.25318420657E-02  0.83051383982E-01  0.51100000000E-03 0. -1.
</event>
<event>
 8    1  0.1122465E+005  0.1043930E+01  0.7957747E-01            NaN
         13   -1    0    0    0    0  0.00000000000E+00  0.00000000000E+00  0.74505805969E-08  0.10566000000E+00  0.10566000000E+00 0. -1.
     999900   -1    0    0    0    0 -0.00000000000E+00 -0.00000000000E+00 -0.74505805969E-08  0.93827000000E+00  0.93827000000E+00 0. -1.
     999902    2    1    2    0    0 -0.18037092102E-01 -0.14027485075E-01 -0.98957289860E-02  0.10190295486E+01  0.10187252762E+01 0.  0.
     999903    2    3    3    0    0 -0.12256226344E+00 -0.44417159101E-01  0.86538406371E-02  0.13212869151E+00  0.19715722667E-01 0.  0.
         14    1    1    2    0    0  0.18037092102E-01  0.14027485075E-01  0.98957289860E-02  0.24900451425E-01  0.00000000000E+00 0. -1.
     999901    1    3    3    0    0  0.10452517134E+00  0.30389674027E-01 -0.18549569623E-01  0.88690085707E+00  0.88000000000E+00 0.  1.
        -11    1    4    4    0    0 -0.61837062391E-01 -0.12042470063E-01  0.28239151669E-02  0.63064086359E-01  0.51100000000E-03 0. -1.
         11    1    4    4    0    0 -0.60725201047E-01 -0.32374689038E-01  0.58299254702E-02  0.69064605150E-01  0.51100000000E-03 0.  1.
</event>
<event>
 8    1  0.1122465E+005  0.1043930E+01  0.7957747E-01            NaN
         13   -1    0    0    0    0  0.00000000000E+00  0.00000000000E+00  0.74505805969E-08  0.10566000000E+00  0.10566000000E+00 0.  1.
     999900   -1    0    0    0    0 -0.00000000000E+00 -0.00000000000E+00 -0.74505805969E-08  0.93827000000E+00  0.93827000000E+00 0.  1.
     999902    2    1    2    0    0  0.14461184911E-01  0.12284367505E-01 -0.14711698083E-01  0.10199203017E+01  0.10196376592E+01 0.  0.
     999903    2    3    3    0    0  0.31158308074E-01 -0.11664122420E-01  0.12287151838E+00  0.12875170619E+00  0.19305437174E-01 0.  0.
         14    1    1    2    0    0 -0.14461184911E-01 -0.12284367505E-01  0.14711698083E-01  0.24009698343E-01  0.00000000000E+00 0.  1.
     999901    1    3    3    0    0 -0.16697123163E-01  0.23948489925E-01 -0.13758321646E+00  0.89116859547E+00  0.88000000000E+00 0.  1.
        -11    1    4    4    0    0 -0.74033135443E-03 -0.44474060306E-02  0.28816012775E-01  0.29171068273E-01  0.51100000000E-03 0.  1.
         11    1    4    4    0    0  0.31898639428E-01 -0.72167163892E-02  0.94055505604E-01  0.99580637919E-01  0.51100000000E-03 0. -1.
</event>
<event>
 8    1  0.1122465E+005  0.1043930E+01  0.7957747E-01            NaN
         13   -1    0    0    0    0  0.00000000000E+00  0.00000000000E+00  0.74505805969E-08  0.10566000000E+00  0.10566000000E+00 0.  1.
     999900   -1    0    0    0    0 -0.00000000000E+00 -0.00000000000E+00 -0.74505805969E-08  0.93827000000E+00  0.93827000000E+00 0.  1.
     999902    2    1    2    0    0  0.14006966459E-01 -0.10095786514E-01  0.15759636602E-01  0.10205529565E+01  0.10202851812E+01 0.  0.
     999903    2    3    3    0    0 -0.23777238587E-01  0.11111448478E+00  0.60620409234E-01  0.13031025653E+00  0.19853038504E-01 0.  0.
         14    1    1    2    0    0 -0.14006966459E-01  0.10095786514E-01 -0.15759636602E-01  0.23377043452E-01  0.00000000000E+00 0. -1.
     999901    1    3    3    0    0  0.37784205046E-01 -0.12121027129E+00 -0.44860772632E-01  0.89024270002E+00  0.88000000000E+00 0.  1.
        -11    1    4    4    0    0 -0.26574225899E-01  0.98999180769E-01  0.50497434233E-01  0.11426845260E+00  0.51100000000E-03 0. -1.
         11    1    4    4    0    0  0.27969873113E-02  0.12115304011E-01  0.10122975001E-01  0.16041803925E-01  0.51100000000E-03 0.  1.
</event>
<event>
 8    1  0.1122465E+005  0.1043930E+01  0.7957747E-01            NaN
         13   -1    0    0    0    0  0.00000000000E+00  0.00000000000E+00  0.74505805969E-08  0.10566000000E+00  0.10566000000E+00 0. -1.
     999900   -1    0    0    0    0 -0.00000000000E+00 -0.00000000000E+00 -0.74505805969E-08  0.93827000000E+00  0.93827000000E+00 0. -1.
     999902    2    1    2    0    0  0.10596048396E-01 -0.18806568132E-01  0.78803240392E-02  0.10209503840E+01  0.10206917379E+01 0.  0.
     999903    2    3    3    0    0  0.63516220258E-01 -0.63784524692E-01 -0.94860709529E-01  0.13225511496E+00  0.19750579579E-01 0.  0.
         14    1    1    2    0    0 -0.10596048396E-01  0.18806568132E-01 -0.78803240392E-02  0.22979616043E-01  0.00000000000E+00 0.  1.
     999901    1    3    3    0    0 -0.52920171862E-01  0.44977956560E-01  0.10274103357E+00  0.88869526900E+00  0.88000000000E+00 0.  1.
        -11    1    4    4    0    0  0.32329235571E-01 -0.44987768632E-01 -0.51628494839E-01  0.75728735626E-01  0.51100000000E-03 0. -1.
         11    1    4    4    0    0  0.31186984687E-01 -0.18796756060E-01 -0.43232214690E-01  0.56526379331E-01  0.51100000000E-03 0.  1.
</event>
<event>
 8    1  0.1122465E+005  0.1043930E+01  0.7957747E-01            NaN
         13   -1    0    0    0    0  0.00000000000E+00  0.00000000000E+00  0.74505805969E-08  0.10566000000E+00  0.10566000000E+00 0.  1.
     999900   -1    0    0    0    0 -0.00000000000E+00 -0.00000000000E+00 -0.74505805969E-08  0.93827000000E+00  0.93827000000E+00 0.  1.
     999902    2    1    2    0    0 -0.21353998795E-01  0.10133985201E-01 -0.13634832574E-03  0.10202929631E+01  0.10200191278E+01 0.  0.
     999903    2    3    3    0    0  0.41213069122E-01  0.79696149939E-01  0.92631672916E-01  0.13048431039E+00  0.19888062972E-01 0.  0.
         14    1    1    2    0    0  0.21353998795E-01 -0.10133985201E-01  0.13634832574E-03  0.23637036858E-01  0.00000000000E+00 0. -1.
     999901    1    3    3    0    0 -0.62567067916E-01 -0.69562164739E-01 -0.92768021241E-01  0.88980865275E+00  0.88000000000E+00 0.  1.
        -11    1    4    4    0    0  0.36475648113E-01  0.50389527936E-01  0.62624673270E-01  0.88270540125E-01  0.51100000000E-03 0. -1.
         11    1    4    4    0    0  0.47374210086E-02  0.29306622003E-01  0.30006999646E-01  0.42213770263E-01  0.51100000000E-03 0.  1.
</event>
<event>
 8    1  0.1122465E+005  0.1043930E+01  0.7957747E-01            NaN
         13   -1    0    0    0    0  0.00000000000E+00  0.00000000000E+00  0.74505805969E-08  0.10566000000E+00  0.10566000000E+00 0. -1.
     999900   -1    0    0    0    0 -0.00000000000E+00 -0.00000000000E+00 -0.74505805969E-08  0.93827000000E+00  0.93827000000E+00 0. -1.
     999902    2    1    2    0    0 -0.65872580870E-02  0.23264021183E-01  0.45822508905E-02  0.10193209839E+01  0.10190238783E+01 0.  0.
     999903    2    3    3    0    0  0.84715321196E-01  0.80091139912E-01 -0.55529067256E-01  0.13073848745E+00  0.20440118713E-01 0.  0.
         14    1    1    2    0    0  0.65872580870E-02 -0.23264021183E-01 -0.45822508905E-02  0.24609016110E-01  0.00000000000E+00 0. -1.
     999901    1    3    3    0    0 -0.91302579283E-01 -0.56827118729E-01  0.60111318146E-01  0.88858249644E+00  0.88000000000E+00 0.  1.
        -11    1    4    4    0    0  0.54937750847E-01  0.46614301931E-01 -0.23971181234E-01  0.75933709665E-01  0.51100000000E-03 0.  1.
         11    1    4    4    0    0  0.29777570349E-01  0.33476837981E-01 -0.31557886022E-01  0.54804777787E-01  0.51100000000E-03 0. -1.
</event>
<event>
 8    1  0.1122465E+005  0.1043930E+01  0.7957747E-01            NaN
         13   -1    0    0    0    0  0.00000000000E+00  0.00000000000E+00  0.74505805969E-08  0.10566000000E+00  0.10566000000E+00 0. -1.
     999900   -1    0    0    0    0 -0.00000000000E+00 -0.00000000000E+00 -0.74505805969E-08  0.93827000000E+00  0.93827000000E+00 0. -1.
     999902    2    1    2    0    0  0.15491655151E-01 -0.17246502985E-01 -0.76247626344E-02  0.10195256920E+01  0.10192335681E+01 0.  0.
     999903    2    3    3    0    0  0.12889435311E+00 -0.18780636733E-01  0.10096156694E-01  0.13207059089E+00  0.19345335874E-01 0.  0.
         14    1    1    2    0    0 -0.15491655151E-01  0.17246502985E-01  0.76247626344E-02  0.24404308017E-01  0.00000000000E+00 0.  1.
     999901    1    3    3    0    0 -0.11340269796E+00  0.15341337472E-02 -0.17720919328E-01  0.88745510109E+00  0.88000000000E+00 0.  1.
        -11    1    4    4    0    0  0.97361928967E-01 -0.87214158223E-02  0.13955975784E-01  0.98744309645E-01  0.51100000000E-03 0.  1.
         11    1    4    4    0    0  0.31532424139E-01 -0.10059220910E-01 -0.38598190906E-02  0.33326281248E-01  0.51100000000E-03 0. -1.
</event>
<event>
 8    1  0.1122465E+005  0.1043930E+01  0.7957747E-01            NaN
         13   -1    0    0    0    0  0.00000000000E+00  0.00000000000E+00  0.74505805969E-08  0.10566000000E+00  0.10566000000E+00 0.  1.
     999900   -1    0    0    0    0 -0.00000000000E+00 -0.00000000000E+00 -0.74505805969E-08  0.93827000000E+00  0.93827000000E+00 0. -1.
     999902    2    1    2    0    0  0.10261815354E-01 -0.20727041927E-01  0.36269241741E-02  0.10205191115E+01  0.10202505512E+01 0.  0.
     999903    2    3    3    0    0  0.33989630481E-01  0.49718076649E-01  0.11353971505E+00  0.13057172792E+00  0.23033174152E-01 0.  0.
         14    1    1    2    0    0 -0.10261815354E-01  0.20727041927E-01 -0.36269241741E-02  0.23410888500E-01  0.00000000000E+00 0. -1.
     999901    1    3    3    0    0 -0.23727815127E-01 -0.70445118576E-01 -0.10991279088E+00  0.88994738358E+00  0.88000000000E+00 0. -1.
        -11    1    4    4    0    0  0.34755377200E-02  0.12529849420E-01  0.44930387679E-01  0.46776889025E-01  0.51100000000E-03 0.  1.
         11    1    4    4    0    0  0.30514092761E-01  0.37188227229E-01  0.68609327375E-01  0.83794838894E-01  0.51100000000E-03 0. -1.
</event>
<event>
 8    1  0.1122465E+005  0.1043930E+01  0.7957747E-01            NaN
         13   -1    0    0    0    0  0.00000000000E+00  0.00000000000E+00  0.74505805969E-08  0.10566000000E+00  0.10566000000E+00 0.  1.
     999900   -1    0    0    0    0 -0.00000000000E+00 -0.00000000000E+00 -0.74505805969E-08  0.93827000000E+00  0.93827000000E+00 0. -1.
     999902    2    1    2    0    0  0.23183778444E-01 -0.44192080639E-02  0.33902613442E-04  0.10203287684E+01  0.10200557718E+01 0.  0.
     999903    2    3    3    0    0  0.22175608436E-01  0.47268818056E-01  0.11827301989E+00  0.13091707673E+00  0.20607643604E-01 0.  0.
         14    1    1    2    0    0 -0.23183778444E-01  0.44192080639E-02 -0.33902613442E-04  0.23601231583E-01  0.00000000000E+00 0.  1.
     999901    1    3    3    0    0  0.10081700081E-02 -0.51688026120E-01 -0.11823911728E+00  0.88941169169E+00  0.88000000000E+00 0.  1.
        -11    1    4    4    0    0  0.23233287962E-01  0.44811020578E-01  0.11778997443E+00  0.12815050695E+00  0.51100000000E-03 0. -1.
         11    1    4    4    0    0 -0.10576795254E-02  0.24577974777E-02  0.48304546390E-03  0.27665697786E-02  0.51100000000E-03 0.  1.
</event>
<event>
 8    1  0.1122465E+005  0.1043930E+01  0.7957747E-01            NaN
         13   -1    0    0    0    0  0.00000000000E+00  0.00000000000E+00  0.74505805969E-08  0.10566000000E+00  0.10566000000E+00 0.  1.
     999900   -1    0    0    0    0 -0.00000000000E+00 -0.00000000000E+00 -0.74505805969E-08  0.93827000000E+00  0.93827000000E+00 0.  1.
     999902    2    1    2    0    0  0.28448543020E-04  0.97520768361E-02  0.18239062404E-01  0.10232474661E+01  0.10230384204E+01 0.  0.
     999903    2    3    3    0    0  0.31715134213E-01  0.12766645639E+00 -0.16523740965E-01  0.13413763065E+00  0.20378815374E-01 0.  0.
         14    1    1    2    0    0 -0.28448543020E-04 -0.97520768361E-02 -0.18239062404E-01  0.20682533919E-01  0.00000000000E+00 0. -1.
     999901    1    3    3    0    0 -0.31686685670E-01 -0.11791437956E+00  0.34762803368E-01  0.88910983543E+00  0.88000000000E+00 0. -1.
        -11    1    4    4    0    0  0.14363775016E-01  0.63797473904E-01  0.19377283406E-02  0.65425160461E-01  0.51100000000E-03 0. -1.
         11    1    4    4    0    0  0.17351359197E-01  0.63868982489E-01 -0.18461469305E-01  0.68712470193E-01  0.51100000000E-03 0.  1.
</event>
<event>
 8    1  0.1122465E+005  0.1043930E+01  0.7957747E-01            NaN
         13   -1    0    0    0    0  0.00000000000E+00  0.00000000000E+00  0.74505805969E-08  0.10566000000E+00  0.10566000000E+00 0.  1.
     999900   -1    0    0    0    0 -0.00000000000E+00 -0.00000000000E+00 -0.74505805969E-08  0.93827000000E+00  0.93827000000E+00 0. -1.
     999902    2    1    2    0    0  0.20887343946E-01 -0.83323319485E-02  0.65986996709E-02  0.10204938798E+01  0.10202247336E+01 0.  0.
     999903    2    3    3    0    0  0.48887174285E-01  0.16336947364E-01  0.12028904332E+00  0.13239587953E+00  0.20058995848E-01 0.  0.
         14    1    1    2    0    0 -0.20887343946E-01  0.83323319485E-02 -0.65986996709E-02  0.23436120203E-01  0.00000000000E+00 0.  1.
     999901    1    3    3    0    0 -0.27999830339E-01 -0.24669279312E-01 -0.11369034365E+00  0.88809800027E+00  0.88000000000E+00 0. -1.
        -11    1    4    4    0    0  0.41990695777E-01  0.10055965780E-01  0.78674517433E-01  0.89745650557E-01  0.51100000000E-03 0. -1.
         11    1    4    4    0    0  0.68964785077E-02  0.62809815840E-02  0.41614525888E-01  0.42650228972E-01  0.51100000000E-03 0.  1.
</event>
<event>
 8    1  0.1122465E+005  0.1043930E+01  0.7957747E-01            NaN
         13   -1    0    0    0    0  0.00000000000E+00  0.00000000000E+00  0.74505805969E-08  0.10566000000E+00  0.10566000000E+00 0. -1.
     999900   -1    0    0    0    0 -0.00000000000E+00 -0.00000000000E+00 -0.74505805969E-08  0.93827000000E+00  0.93827000000E+00 0.  1.
     999902    2    1    2    0    0 -0.10999518376E-01  0.55334208870E-02  0.19169589666E-01  0.10211466438E+01  0.10208924463E+01 0.  0.
     999903    2    3    3    0    0  0.11960098416E-01 -0.50529844369E-01 -0.11605777331E+00  0.12875845843E+00  0.20323010258E-01 0.  0.
         14    1    1    2    0    0  0.10999518376E-01 -0.55334208870E-02 -0.19169589666E-01  0.22783356188E-01  0.00000000000E+00 0.  1.
     999901    1    3    3    0    0 -0.22959616792E-01  0.56063265256E-01  0.13522736297E+00  0.89238818538E+00  0.88000000000E+00 0. -1.
        -11    1    4    4    0    0  0.14709872710E-01 -0.21601325007E-01 -0.45937570193E-01  0.52853751744E-01  0.51100000000E-03 0. -1.
         11    1    4    4    0    0 -0.27497742944E-02 -0.28928519363E-01 -0.70120203114E-01  0.75904706685E-01  0.51100000000E-03 0.  1.
</event>
<event>
 8    1  0.1122465E+005  0.1043930E+01  0.7957747E-01            NaN
         13   -1    0    0    0    0  0.00000000000E+00  0.00000000000E+00  0.74505805969E-08  0.10566000000E+00  0.10566000000E+00 0.  1.
     999900   -1    0    0    0    0 -0.00000000000E+00 -0.00000000000E+00 -0.74505805969E-08  0.93827000000E+00  0.93827000000E+00 0.  1.
     999902    2    1    2    0    0  0.20091281938E-01 -0.17680510383E-01  0.22741128598E-02  0.10170705204E+01  0.10167157969E+01 0.  0.
     999903    2    3    3    0    0 -0.10894365440E+00 -0.57670656917E-01 -0.20430330038E-01  0.12647256486E+00  0.19577711095E-01 0.  0.
         14    1    1    2    0    0 -0.20091281938E-01  0.17680510383E-01 -0.22741128598E-02  0.26859479642E-01  0.00000000000E+00 0. -1.
     999901    1    3    3    0    0  0.12903493634E+00  0.39990146533E-01  0.22704442898E-01  0.89059795550E+00  0.88000000000E+00 0. -1.
        -11    1    4    4    0    0 -0.72939955368E-01 -0.42925091939E-01 -0.55569215520E-02  0.84817103848E-01  0.51100000000E-03 0.  1.
         11    1    4    4    0    0 -0.36003699037E-01 -0.14745564978E-01 -0.14873408486E-01  0.41655461008E-01  0.51100000000E-03 0. -1.
</event>
<event>
 8    1  0.1122465E+005  0.1043930E+01  0.7957747E-01            NaN
         13   -1    0    0    0    0  0.00000000000E+00  0.00000000000E+00  0.74505805969E-08  0.10566000000E+00  0.10566000000E+00 0.  1.
     999900   -1    0    0    0    0 -0.00000000000E+00 -0.00000000000E+00 -0.74505805969E-08  0.93827000000E+00  0.93827000000E+00 0. -1.
     999902    2    1    2    0    0  0.56623921390E-02 -0.17649526409E-01  0.15657771581E-01  0.10196661529E+01  0.10193774223E+01 0.  0.
     999903    2    3    3    0    0 -0.59390685958E-02  0.52580592811E-01  0.11832095988E+00  0.13084300185E+00  0.17889949993E-01 0.  0.
         14    1    1    2    0    0 -0.56623921390E-02  0.17649526409E-01 -0.15657771581E-01  0.24263847141E-01  0.00000000000E+00 0. -1.
     999901    1    3    3    0    0  0.11601460735E-01 -0.70230119219E-01 -0.10266318830E+00  0.88882315101E+00  0.88000000000E+00 0. -1.
        -11    1    4    4    0    0 -0.65303034627E-02  0.84624819493E-02  0.14389595879E-01  0.17932653307E-01  0.51100000000E-03 0.  1.
         11    1    4    4    0    0  0.59123486693E-03  0.44118110861E-01  0.10393136400E+00  0.11291034854E+00  0.51100000000E-03 0. -1.
</event>
<event>
 8    1  0.1122465E+005  0.1043930E+01  0.7957747E-01            NaN
         13   -1    0    0    0    0  0.00000000000E+00  0.00000000000E+00  0.74505805969E-08  0.10566000000E+00  0.10566000000E+00 0.  1.
     999900   -1    0    0    0    0 -0.00000000000E+00 -0.00000000000E+00 -0.74505805969E-08  0.93827000000E+00  0.93827000000E+00 0. -1.
     999902    2    1    2    0    0  0.22200943936E-01 -0.41412432879E-02  0.36372034416E-02  0.10210550999E+01  0.10207988322E+01 0.  0.
     999903    2    3    3    0    0 -0.84582981685E-01 -0.36022339241E-01  0.89398043248E-01  0.12989061858E+00  0.20680254909E-01 0.  0.
         14    1    1    2    0    0 -0.22200943936E-01  0.41412432879E-02 -0.36372034416E-02  0.22874900142E-01  0.00000000000E+00 0. -1.
     999901    1    3    3    0    0  0.10678392562E+00  0.31881095953E-01 -0.85760839806E-01  0.89116448128E+00  0.88000000000E+00 0. -1.
        -11    1    4    4    0    0 -0.50612384271E-01 -0.25346612958E-01  0.67459892567E-01  0.88063400207E-01  0.51100000000E-03 0.  1.
         11    1    4    4    0    0 -0.33970597415E-01 -0.10675726283E-01  0.21938150681E-01  0.41827218371E-01  0.51100000000E-03 0. -1.
</event>
<event>
 8    1  0.1122465E+005  0.1043930E+01  0.7957747E-01            NaN
         13   -1    0    0    0    0  0.00000000000E+00  0.00000000000E+00  0.74505805969E-08  0.10566000000E+00  0.10566000000E+00 0. -1.
     999900   -1    0    0    0    0 -0.00000000000E+00 -0.00000000000E+00 -0.74505805969E-08  0.93827000000E+00  0.93827000000E+00 0. -1.
     999902    2    1    2    0    0 -0.22891114153E-01  0.93629913088E-03  0.62660571357E-02  0.10201783004E+01  0.10199017704E+01 0.  0.
     999903    2    3    3    0    0 -0.52051261505E-01 -0.11819577736E+00  0.16374327984E-01  0.13161488509E+00  0.19359332344E-01 0.  0.
         14    1    1    2    0    0  0.22891114153E-01 -0.93629913088E-03 -0.62660571357E-02  0.23751699629E-01  0.00000000000E+00 0.  1.
     999901    1    3    3    0    0  0.29160147352E-01  0.11913207649E+00 -0.10108270849E-01  0.88856341528E+00  0.88000000000E+00 0. -1.
        -11    1    4    4    0    0 -0.28285247104E-02 -0.20775094209E-01  0.67864840548E-02  0.22043651654E-01  0.51100000000E-03 0. -1.
         11    1    4    4    0    0 -0.49222736794E-01 -0.97420683153E-01  0.95878439297E-02  0.10957123343E+00  0.51100000000E-03 0.  1.
</event>
<event>
 8    1  0.1122465E+005  0.1043930E+01  0.7957747E-01            NaN
         13   -1    0    0    0    0  0.00000000000E+00  0.00000000000E+00  0.74505805969E-08  0.10566000000E+00  0.10566000000E+00 0.  1.
     999900   -1    0    0    0    0 -0.00000000000E+00 -0.00000000000E+00 -0.74505805969E-08  0.93827000000E+00  0.93827000000E+00 0.  1.
     999902    2    1    2    0    0  0.12744254248E-01  0.16197844065E-01  0.12606081164E-01  0.10197701273E+01  0.10194838954E+01 0.  0.
     999903    2    3    3    0    0 -0.61339843250E-01  0.55726578751E-01  0.99964142203E-01  0.13146702291E+00  0.20560166257E-01 0.  0.
         14    1    1    2    0    0 -0.12744254248E-01 -0.16197844065E-01 -0.12606081164E-01  0.24159872744E-01  0.00000000000E+00 0. -1.
     999901    1    3    3    0    0  0.74084097497E-01 -0.39528734686E-01 -0.87358061039E-01  0.88830310435E+00  0.88000000000E+00 0. -1.
        -11    1    4    4    0    0 -0.55003134801E-01  0.38850897250E-01  0.79667145448E-01  0.10431611688E+00  0.51100000000E-03 0. -1.
         11    1    4    4    0    0 -0.63367084488E-02  0.16875681501E-01  0.20296996754E-01  0.27150906032E-01  0.51100000000E-03 0.  1.
</event>
<event>
 8    1  0.1122465E+005  0.1043930E+01  0.7957747E-01            NaN
         13   -1    0    0    0    0  0.00000000000E+00  0.00000000000E+00  0.74505805969E-08  0.10566000000E+00  0.10566000000E+00 0. -1.
     999900   -1    0    0    0    0 -0.00000000000E+00 -0.00000000000E+00 -0.74505805969E-08  0.93827000000E+00  0.93827000000E+00 0. -1.
     999902    2    1    2    0    0  0.42668574243E-02  0.15094621168E-01 -0.15462196563E-01  0.10219042609E+01  0.10216668661E+01 0.  0.
     999903    2    3    3    0    0  0.91259696327E-01 -0.92134306826E-01  0.74913006026E-02  0.13084160314E+00  0.15695313289E-01 0.  0.
         14    1    1    2    0    0 -0.42668574243E-02 -0.15094621168E-01  0.15462196563E-01  0.22025739102E-01  0.00000000000E+00 0. -1.
     999901    1    3    3    0    0 -0.86992838903E-01  0.10722892799E+00 -0.22953497165E-01  0.89106265776E+00  0.88000000000E+00 0.  1.
        -11    1    4    4    0    0  0.38062217424E-01 -0.44527480424E-01 -0.31342984227E-02  0.58664417288E-01  0.51100000000E-03 0. -1.
         11    1    4    4    0    0  0.53197478903E-01 -0.47606826402E-01  0.10625599025E-01  0.72177185851E-01  0.51100000000E-03 0.  1.
</event>
<event>
 8    1  0.1122465E+005  0.1043930E+01  0.7957747E-01            NaN
         13   -1    0    0    0    0  0.00000000000E+00  0.00000000000E+00  0.74505805969E-08  0.10566000000E+00  0.10566000000E+00 0.  1.
     999900   -1    0    0    0    0 -0.00000000000E+00 -0.00000000000E+00 -0.74505805969E-08  0.93827000000E+00  0.93827000000E+00 0. -1.
     999902    2    1    2    0    0  0.16403356260E-03 -0.23262638111E-01 -0.23906044375E-03  0.10206655553E+01  0.10204003828E+01 0.  0.
     999903    2    3    3    0    0 -0.78912502650E-01  0.94394389372E-01  0.32640462565E-01  0.12871413409E+00  0.19090434774E-01 0.  0.
         14    1    1    2    0    0 -0.16403356260E-03  0.23262638111E-01  0.23906044375E-03  0.23264444735E-01  0.00000000000E+00 0. -1.
     999901    1    3    3    0    0  0.79076536213E-01 -0.11765702748E+00 -0.32879523009E-01  0.89195142117E+00  0.88000000000E+00 0.  1.
        -11    1    4    4    0    0 -0.61766802731E-01  0.71749156273E-01  0.16692229149E-01  0.96135170362E-01  0.51100000000E-03 0. -1.
         11    1    4    4    0    0 -0.17145699919E-01  0.22645233099E-01  0.15948233416E-01  0.32578963732E-01  0.51100000000E-03 0.  1.
</event>
<event>
 8    1  0.1122465E+005  0.1043930E+01  0.7957747E-01            NaN
         13   -1    0    0    0    0  0.00000000000E+00  0.00000000000E+00  0.74505805969E-08  0.10566000000E+00  0.10566000000E+00 0.  1.
     999900   -1    0    0    0    0 -0.00000000000E+00 -0.00000000000E+00 -0.74505805969E-08  0.93827000000E+00  0.93827000000E+00 0.  1.
     999902    2    1    2    0    0 -0.20727589227E-01 -0.10965157846E-01  0.39754975249E-02  0.10201461353E+01  0.10198688470E+01 0.  0.
     999903    2    3    3    0    0  0.57630789725E-01 -0.81047495487E-01 -0.81032234589E-01  0.12982154044E+00  0.19935016225E-01 0.  0.
         14    1    1    2    0    0  0.20727589227E-01  0.10965157846E-01 -0.39754975249E-02  0.23783864747E-01  0.00000000000E+00 0. -1.
     999901    1    3    3    0    0 -0.78358378952E-01  0.70082337641E-01  0.85007732114E-01  0.89032459481E+00  0.88000000000E+00 0. -1.
        -11    1    4    4    0    0  0.12761867136E-01 -0.14231573584E-01 -0.26189313984E-01  0.32427522684E-01  0.51100000000E-03 0. -1.
         11    1    4    4    0    0  0.44868922589E-01 -0.66815921903E-01 -0.54842920605E-01  0.97394017761E-01  0.51100000000E-03 0.  1.
</event>
<event>
 8    1  0.1122465E+005  0.1043930E+01  0.7957747E-01            NaN
         13   -1    0    0    0    0  0.00000000000E+00  0.00000000000E+00  0.74505805969E-08  0.10566000000E+00  0.10566000000E+00 0.  1.
     999900   -1    0    0    0    0 -0.00000000000E+00 -0.00000000000E+00 -0.74505805969E-08  0.93827000000E+00  0.93827000000E+00 0.  1.
     999902    2    1    2    0    0 -0.18403767292E-01  0.37141056496E-02 -0.14126603977E-01  0.10204341669E+01  0.10201636314E+01 0.  0.
     999903    2    3    3    0    0  0.91803086895E-01  0.86731081904E-01 -0.21607855243E-01  0.12965173661E+00  0.19813784769E-01 0.  0.
         14    1    1    2    0    0  0.18403767292E-01 -0.37141056496E-02  0.14126603977E-01  0.23495833062E-01  0.00000000000E+00 0.  1.
     999901    1    3    3    0    0 -0.11020685419E+00 -0.83016976255E-01  0.74812512655E-02  0.89078243033E+00  0.88000000000E+00 0. -1.
        -11    1    4    4    0    0  0.23308043238E-01  0.32777946284E-01 -0.11737691707E-01  0.41900992468E-01  0.51100000000E-03 0.  1.
         11    1    4    4    0    0  0.68495043657E-01  0.53953135620E-01 -0.98701635354E-02  0.87750744145E-01  0.51100000000E-03 0. -1.
</event>
<event>
 8    1  0.1122465E+005  0.1043930E+01  0.7957747E-01            NaN
         13   -1    0    0    0    0  0.00000000000E+00  0.00000000000E+00  0.74505805969E-08  0.10566000000E+00  0.10566000000E+00 0.  1.
     999900   -1    0    0    0    0 -0.00000000000E+00 -0.00000000000E+00 -0.74505805969E-08  0.93827000000E+00  0.93827000000E+00 0.  1.
     999902    2    1    2    0    0  0.10512745161E-01 -0.20617830138E-01  0.56238051632E-02  0.10201132010E+01  0.10198351352E+01 0.  0.
     999903    2    3    3    0    0 -0.35673363509E-01 -0.95004707053E-01 -0.81184349528E-01  0.13151755628E+00  0.20186276876E-01 0.  0.
         14    1    1    2    0    0 -0.10512745161E-01  0.20617830138E-01 -0.56238051632E-02  0.23816799007E-01  0.00000000000E+00 0.  1.
     999901    1    3    3    0    0  0.46186108671E-01  0.74386876915E-01  0.86808154691E-01  0.88859564472E+00  0.88000000000E+00 0. -1.
        -11    1    4    4    0    0 -0.24131555126E-01 -0.81081154798E-01 -0.60313983415E-01  0.10389669548E+00  0.51100000000E-03 0. -1.
         11    1    4    4    0    0 -0.11541808383E-01 -0.13923552255E-01 -0.20870366113E-01  0.27620860791E-01  0.51100000000E-03 0.  1.
</event>
<event>
 8    1  0.1122465E+005  0.1043930E+01  0.7957747E-01            NaN
         13   -1    0    0    0    0  0.00000000000E+00  0.00000000000E+00  0.74505805969E-08  0.10566000000E+00  0.10566000000E+00 0.  1.
     999900   -1    0    0    0    0 -0.00000000000E+00 -0.00000000000E+00 -0.74505805969E-08  0.93827000000E+00  0.93827000000E+00 0. -1.
     999902    2    1    2    0    0 -0.22131419760E-01 -0.41393849883E-02  0.39247591238E-02  0.10210752853E+01  0.10208194749E+01 0.  0.
     999903    2    3    3    0    0 -0.88680960971E-01 -0.85411672375E-01  0.48116622916E-01  0.13372701832E+00  0.20204935320E-01 0.  0.
         14    1    1    2    0    0  0.22131419760E-01  0.41393849883E-02 -0.39247591238E-02  0.22854714675E-01  0.00000000000E+00 0. -1.
     999901    1    3    3    0    0  0.66549541210E-01  0.81272287387E-01 -0.44191863792E-01  0.88734826701E+00  0.88000000000E+00 0.  1.
        -11    1    4    4    0    0 -0.76578187570E-01 -0.81622826425E-01  0.41146397686E-01  0.11924676838E+00  0.51100000000E-03 0.  1.
         11    1    4    4    0    0 -0.12102773400E-01 -0.37888459504E-02  0.69702252302E-02  0.14480249942E-01  0.51100000000E-03 0. -1.
</event>
<event>
 8    1  0.1122465E+005  0.1043930E+01  0.7957747E-01            NaN
         13   -1    0    0    0    0  0.00000000000E+00  0.00000000000E+00  0.74505805969E-08  0.10566000000E+00  0.10566000000E+00 0. -1.
     999900   -1    0    0    0    0 -0.00000000000E+00 -0.00000000000E+00 -0.74505805969E-08  0.93827000000E+00  0.93827000000E+00 0.  1.
     999902    2    1    2    0    0  0.14166015480E-01 -0.18154921543E-01 -0.57127642664E-02  0.10202042156E+01  0.10199282958E+01 0.  0.
     999903    2    3    3    0    0 -0.29330828975E-02 -0.13102693799E+00  0.72512332564E-02  0.13273560403E+00  0.19735722347E-01 0.  0.
         14    1    1    2    0    0 -0.14166015480E-01  0.18154921543E-01  0.57127642664E-02  0.23725784420E-01  0.00000000000E+00 0. -1.
     999901    1    3    3    0    0  0.17099098377E-01  0.11287201645E+00 -0.12963997523E-01  0.88746861155E+00  0.88000000000E+00 0. -1.
        -11    1    4    4    0    0  0.70800145651E-02 -0.83072757608E-01  0.13118334732E-02  0.83385800296E-01  0.51100000000E-03 0.  1.
         11    1    4    4    0    0 -0.10013097463E-01 -0.47954180387E-01  0.59393997832E-02  0.49349803730E-01  0.51100000000E-03 0. -1.
</event>
<event>
 8    1  0.1122465E+005  0.1043930E+01  0.7957747E-01            NaN
         13   -1    0    0    0    0  0.00000000000E+00  0.00000000000E+00  0.74505805969E-08  0.10566000000E+00  0.10566000000E+00 0. -1.
     999900   -1    0    0    0    0 -0.00000000000E+00 -0.00000000000E+00 -0.74505805969E-08  0.93827000000E+00  0.93827000000E+00 0. -1.
     999902    2    1    2    0    0 -0.26983316730E-02  0.20280927925E-01 -0.10142981857E-01  0.10210941266E+01  0.10208387426E+01 0.  0.
     999903    2    3    3    0    0 -0.73931514203E-01 -0.58815454904E-02 -0.10677914901E+00  0.13255758259E+00  0.25870150136E-01 0.  0.
         14    1    1    2    0    0  0.26983316730E-02 -0.20280927925E-01  0.10142981857E-01  0.22835873363E-01  0.00000000000E+00 0. -1.
     999901    1    3    3    0    0  0.71233182530E-01  0.26162473415E-01  0.96636167155E-01  0.88853654405E+00  0.88000000000E+00 0.  1.
        -11    1    4    4    0    0 -0.13778556161E-01 -0.97610325647E-02 -0.34704366233E-01  0.38597675101E-01  0.51100000000E-03 0.  1.
         11    1    4    4    0    0 -0.60152958043E-01  0.38794870743E-02 -0.72074782779E-01  0.93959907486E-01  0.51100000000E-03 0. -1.
</event>
<event>
 8    1  0.1122465E+005  0.1043930E+01  0.7957747E-01            NaN
         13   -1    0    0    0    0  0.00000000000E+00  0.00000000000E+00  0.74505805969E-08  0.10566000000E+00  0.10566000000E+00 0. -1.
     999900   -1    0    0    0    0 -0.00000000000E+00 -0.00000000000E+00 -0.74505805969E-08  0.93827000000E+00  0.93827000000E+00 0.  1.
     999902    2    1    2    0    0 -0.21381388555E-01 -0.14223099941E-01  0.57298531868E-02  0.10176185659E+01  0.10172783562E+01 0.  0.
     999903    2    3    3    0    0 -0.29612495749E-01 -0.10769309526E+00  0.64773587107E-01  0.13066278700E+00  0.20060998220E-01 0.  0.
         14    1    1    2    0    0  0.21381388555E-01  0.14223099941E-01 -0.57298531868E-02  0.26311434130E-01  0.00000000000E+00 0.  1.
     999901    1    3    3    0    0  0.82311071940E-02  0.93469995318E-01 -0.59043733920E-01  0.88695577887E+00  0.88000000000E+00 0. -1.
        -11    1    4    4    0    0 -0.14683450908E-01 -0.73613027535E-01  0.34133688548E-01  0.82461211296E-01  0.51100000000E-03 0. -1.
         11    1    4    4    0    0 -0.14929044840E-01 -0.34080067724E-01  0.30639898559E-01  0.48201575707E-01  0.51100000000E-03 0.  1.
</event>
<event>
 8    1  0.1122465E+005  0.1043930E+01  0.7957747E-01            NaN
         13   -1    0    0    0    0  0.00000000000E+00  0.00000000000E+00  0.74505805969E-08  0.10566000000E+00  0.10566000000E+00 0. -1.
     999900   -1    0    0    0    0 -0.00000000000E+00 -0.00000000000E+00 -0.74505805969E-08  0.93827000000E+00  0.93827000000E+00 0. -1.
     999902    2    1    2    0    0  0.41972841788E-02 -0.23211655369E-01 -0.30326150778E-02  0.10201477610E+01  0.10198705110E+01 0.  0.
     999903    2    3    3    0    0 -0.69966929751E-01  0.10024107560E+00  0.31917539198E-01  0.12775635541E+00  0.18955541225E-01 0.  0.
         14    1    1    2    0    0 -0.41972841788E-02  0.23211655369E-01  0.30326150778E-02  0.23782239038E-01  0.00000000000E+00 0. -1.
     999901    1    3    3    0    0  0.74164213929E-01 -0.12345273097E+00 -0.34950154276E-01  0.89239140555E+00  0.88000000000E+00 0. -1.
        -11    1    4    4    0    0 -0.49056666667E-01  0.76589678018E-01  0.15835851584E-01  0.92323185819E-01  0.51100000000E-03 0. -1.
         11    1    4    4    0    0 -0.20910263083E-01  0.23651397586E-01  0.16081687615E-01  0.35433169595E-01  0.51100000000E-03 0.  1.
</event>
<event>
 8    1  0.1122465E+005  0.1043930E+01  0.7957747E-01            NaN
         13   -1    0    0    0    0  0.00000000000E+00  0.00000000000E+00  0.74505805969E-08  0.10566000000E+00  0.10566000000E+00 0.  1.
     999900   -1    0    0    0    0 -0.00000000000E+00 -0.00000000000E+00 -0.74505805969E-08  0.93827000000E+00  0.93827000000E+00 0. -1.
     999902    2    1    2    0    0  0.27586851503E-02 -0.17664644869E-01  0.16084248885E-01  0.10198810274E+01  0.10195974485E+01 0.  0.
     999903    2    3    3    0    0  0.63152508856E-01 -0.11229159441E+00  0.26404334253E-01  0.13268985424E+00  0.17656925051E-01 0.  0.
         14    1    1    2    0    0 -0.27586851503E-02  0.17664644869E-01 -0.16084248885E-01  0.24048972625E-01  0.00000000000E+00 0. -1.
     999901    1    3    3    0    0 -0.60393823705E-01  0.94626949539E-01 -0.10320085367E-01  0.88719117313E+00  0.88000000000E+00 0. -1.
        -11    1    4    4    0    0  0.76702059460E-02 -0.18539803483E-01 -0.18207896985E-02  0.20152736007E-01  0.51100000000E-03 0. -1.
         11    1    4    4    0    0  0.55482302910E-01 -0.93751790925E-01  0.28225123951E-01  0.11253711824E+00  0.51100000000E-03 0.  1.
</event>
<event>
 8    1  0.1122465E+005  0.1043930E+01  0.7957747E-01            NaN
         13   -1    0    0    0    0  0.00000000000E+00  0.00000000000E+00  0.74505805969E-08  0.10566000000E+00  0.10566000000E+00 0. -1.
     999900   -1    0    0    0    0 -0.00000000000E+00 -0.00000000000E+00 -0.74505805969E-08  0.93827000000E+00  0.93827000000E+00 0. -1.
     999902    2    1    2    0    0 -0.93351602282E-02 -0.88070429957E-02  0.18565950513E-01  0.10213600257E+01  0.10211106200E+01 0.  0.
     999903    2    3    3    0    0  0.17322677076E-01 -0.48037457029E-02  0.13113459837E+00  0.13377996328E+00  0.19433079311E-01 0.  0.
         14    1    1    2    0    0  0.93351602282E-02  0.88070429957E-02 -0.18565950513E-01  0.22569974331E-01  0.00000000000E+00 0.  1.
     999901    1    3    3    0    0 -0.26657837304E-01 -0.40032972928E-02 -0.11256864785E+00  0.88758006239E+00  0.88000000000E+00 0. -1.
        -11    1    4    4    0    0  0.10629368932E-01  0.19980505462E-02  0.25362631103E-01  0.27577162061E-01  0.51100000000E-03 0.  1.
         11    1    4    4    0    0  0.66933081446E-02 -0.68017962491E-02  0.10577196726E+00  0.10620280121E+00  0.51100000000E-03 0. -1.
</event>
<event>
 8    1  0.1122465E+005  0.1043930E+01  0.7957747E-01            NaN
         13   -1    0    0    0    0  0.00000000000E+00  0.00000000000E+00  0.74505805969E-08  0.10566000000E+00  0.10566000000E+00 0. -1.
     999900   -1    0    0    0    0 -0.00000000000E+00 -0.00000000000E+00 -0.74505805969E-08  0.93827000000E+00  0.93827000000E+00 0.  1.
     999902    2    1    2    0    0  0.10043106946E-01 -0.81748017164E-02 -0.21567163069E-01  0.10187738098E+01  0.10184631764E+01 0.  0.
     999903    2    3    3    0    0 -0.75420005082E-01 -0.98300890166E-01 -0.34033472600E-01  0.12996445784E+00  0.19525390419E-01 0.  0.
         14    1    1    2    0    0 -0.10043106946E-01  0.81748017164E-02  0.21567163069E-01  0.25156190154E-01  0.00000000000E+00 0.  1.
     999901    1    3    3    0    0  0.85463112028E-01  0.90126088449E-01  0.12466309531E-01  0.88880935200E+00  0.88000000000E+00 0. -1.
        -11    1    4    4    0    0 -0.47296166490E-01 -0.68110789805E-01 -0.14006035796E-01  0.84097783634E-01  0.51100000000E-03 0. -1.
         11    1    4    4    0    0 -0.28123838592E-01 -0.30190100361E-01 -0.20027436803E-01  0.45866674208E-01  0.51100000000E-03 0.  1.
</event>
<event>
 8    1  0.1122465E+005  0.1043930E+01  0.7957747E-01            NaN
         13   -1    0    0    0    0  0.00000000000E+00  0.00000000000E+00  0.74505805969E-08  0.10566000000E+00  0.10566000000E+00 0.  1.
     999900   -1    0    0    0    0 -0.00000000000E+00 -0.00000000000E+00 -0.74505805969E-08  0.93827000000E+00  0.93827000000E+00 0.  1.
     999902    2    1    2    0    0 -0.18782921814E-01  0.76887819289E-02 -0.19230741898E-02  0.10235433933E+01  0.10233403462E+01 0.  0.
     999903    2    3    3    0    0 -0.56110093968E-01  0.12015897764E+00  0.18139515683E-01  0.13537371905E+00  0.20260286927E-01 0.  0.
         14    1    1    2    0    0  0.18782921814E-01 -0.76887819289E-02  0.19230741898E-02  0.20386606725E-01  0.00000000000E+00 0.  1.
     999901    1    3    3    0    0  0.37327172154E-01 -0.11247019571E+00 -0.20062589873E-01  0.88816967423E+00  0.88000000000E+00 0. -1.
        -11    1    4    4    0    0 -0.10714058805E-01  0.37588978685E-01  0.12242172530E-01  0.40961619645E-01  0.51100000000E-03 0. -1.
         11    1    4    4    0    0 -0.45396035164E-01  0.82569998957E-01  0.58973431525E-02  0.94412099402E-01  0.51100000000E-03 0.  1.
</event>
<event>
 8    1  0.1122465E+005  0.1043930E+01  0.7957747E-01            NaN
         13   -1    0    0    0    0  0.00000000000E+00  0.00000000000E+00  0.74505805969E-08  0.10566000000E+00  0.10566000000E+00 0. -1.
     999900   -1    0    0    0    0 -0.00000000000E+00 -0.00000000000E+00 -0.74505805969E-08  0.93827000000E+00  0.93827000000E+00 0.  1.
     999902    2    1    2    0    0  0.19906454303E-02  0.17240510612E-01  0.14029821723E-01  0.10216133297E+01  0.10213695520E+01 0.  0.
     999903    2    3    3    0    0 -0.31559819829E-01 -0.12235339947E+00  0.22006206422E-01  0.12994314620E+00  0.20846379343E-01 0.  0.
         14    1    1    2    0    0 -0.19906454303E-02 -0.17240510612E-01 -0.14029821723E-01  0.22316670293E-01  0.00000000000E+00 0.  1.
     999901    1    3    3    0    0  0.33550465259E-01  0.13959391008E+00 -0.79763846993E-02  0.89167018351E+00  0.88000000000E+00 0. -1.
        -11    1    4    4    0    0 -0.19277572151E-01 -0.97045783806E-01  0.23750551659E-01  0.10175391279E+00  0.51100000000E-03 0. -1.
         11    1    4    4    0    0 -0.12282247678E-01 -0.25307615667E-01 -0.17443452366E-02  0.28189233407E-01  0.51100000000E-03 0.  1.
</event>
<event>
 8    1  0.1122465E+005  0.1043930E+01  0.7957747E-01            NaN
         13   -1    0    0    0    0  0.00000000000E+00  0.00000000000E+00  0.74505805969E-08  0.10566000000E+00  0.10566000000E+00 0.  1.
     999900   -1    0    0    0    0 -0.00000000000E+00 -0.00000000000E+00 -0.74505805969E-08  0.93827000000E+00  0.93827000000E+00 0.  1.
     999902    2    1    2    0    0 -0.19509345066E-01  0.48828430751E-03 -0.11701666840E-01  0.10211751769E+01  0.10209216228E+01 0.  0.
     999903    2    3    3    0    0 -0.12395231536E+00 -0.45465008168E-01  0.45838630735E-02  0.13365883475E+00  0.20308344503E-01 0.  0.
         14    1    1    2    0    0  0.19509345066E-01 -0.48828430751E-03  0.11701666840E-01  0.22754823078E-01  0.00000000000E+00 0.  1.
     999901    1    3    3    0    0  0.10444297029E+00  0.45953292476E-01 -0.16285529914E-01  0.88751634217E+00  0.88000000000E+00 0.  1.
        -11    1    4    4    0    0 -0.45723254291E-01 -0.12209381905E-01 -0.70865597710E-02  0.47855673017E-01  0.51100000000E-03 0.  1.
         11    1    4    4    0    0 -0.78229061067E-01 -0.33255626263E-01  0.11670422845E-01  0.85803161736E-01  0.51100000000E-03 0. -1.
</event>
<event>
 7    1  0.1122465E+005  0.1043930E+01  0.7957747E-01            NaN
         13   -1    0    0    0    0  0.00000000000E+00  0.00000000000E+00  0.74505805969E-08  0.10566000000E+00  0.10566000000E+00 0.  1.
     999900   -1    0    0    0    0 -0.00000000000E+00 -0.00000000000E+00 -0.74505805969E-08  0.93827000000E+00  0.93827000000E+00 0. -1.
     999903    2    1    2    0    0 -0.88976773996E-01 -0.66661098622E-01 -0.91394758905E-01  0.14523759679E+00  0.19503568530E-01 0.  0.
         14    1    1    2    0    0 -0.17831758139E-02  0.41406506507E-02  0.62973167636E-02  0.77447338376E-02  0.00000000000E+00 0.  1.
     999901    1    1    2    0    0  0.90759949810E-01  0.62520447971E-01  0.85097442141E-01  0.89094766937E+00  0.88000000000E+00 0.  1.
        -11    1    3    3    0    0 -0.90967792658E-02 -0.10057465934E-01 -0.43960679563E-02  0.14265011339E-01  0.51100000000E-03 0. -1.
         11    1    3    3    0    0 -0.79879994730E-01 -0.56603632688E-01 -0.86998690948E-01  0.13097258545E+00  0.51100000000E-03 0.  1.
</event>
<event>
 8    1  0.1122465E+005  0.1043930E+01  0.7957747E-01            NaN
         13   -1    0    0    0    0  0.00000000000E+00  0.00000000000E+00  0.74505805969E-08  0.10566000000E+00  0.10566000000E+00 0.  1.
     999900   -1    0    0    0    0 -0.00000000000E+00 -0.00000000000E+00 -0.74505805969E-08  0.93827000000E+00  0.93827000000E+00 0.  1.
     999902    2    1    2    0    0 -0.12009457323E-01  0.14789475753E-01  0.15563897855E-01  0.10193293786E+01  0.10190324781E+01 0.  0.
     999903    2    3    3    0    0 -0.12855952106E+00  0.17213554579E-01 -0.10030340627E-01  0.13127259066E+00  0.17550738116E-01 0.  0.
         14    1    1    2    0    0  0.12009457323E-01 -0.14789475753E-01 -0.15563897855E-01  0.24600621429E-01  0.00000000000E+00 0. -1.
     999901    1    3    3    0    0  0.11655006374E+00 -0.24240788259E-02  0.25594238482E-01  0.88805678791E+00  0.88000000000E+00 0. -1.
        -11    1    4    4    0    0 -0.64437933896E-01 -0.50972894692E-04 -0.65972702864E-02  0.64776809270E-01  0.51100000000E-03 0.  1.
         11    1    4    4    0    0 -0.64121587165E-01  0.17264527474E-01 -0.34330703410E-02  0.66495781388E-01  0.51100000000E-03 0. -1.
</event>
<event>
 8    1  0.1122465E+005  0.1043930E+01  0.7957747E-01            NaN
         13   -1    0    0    0    0  0.00000000000E+00  0.00000000000E+00  0.74505805969E-08  0.10566000000E+00  0.10566000000E+00 0. -1.
     999900   -1    0    0    0    0 -0.00000000000E+00 -0.00000000000E+00 -0.74505805969E-08  0.93827000000E+00  0.93827000000E+00 0.  1.
     999902    2    1    2    0    0 -0.16818866078E-01 -0.14652949738E-01  0.86105285022E-02  0.10200192411E+01  0.10197389508E+01 0.  0.
     999903    2    3    3    0    0  0.46204243489E-01 -0.79255876402E-01  0.91952073413E-01  0.13148603201E+00  0.20422212117E-01 0.  0.
         14    1    1    2    0    0  0.16818866078E-01  0.14652949738E-01 -0.86105285022E-02  0.23910758944E-01  0.00000000000E+00 0.  1.
     999901    1    3    3    0    0 -0.63023109567E-01  0.64602926665E-01 -0.83341544910E-01  0.88853320905E+00  0.88000000000E+00 0.  1.
        -11    1    4    4    0    0  0.45723296526E-01 -0.67714727824E-01  0.74638018494E-01  0.11066616075E+00  0.51100000000E-03 0. -1.
         11    1    4    4    0    0  0.48094696299E-03 -0.11541148579E-01  0.17314054918E-01  0.20819871258E-01  0.51100000000E-03 0.  1.
</event>
<event>
 8    1  0.1122465E+005  0.1043930E+01  0.7957747E-01            NaN
         13   -1    0    0    0    0  0.00000000000E+00  0.00000000000E+00  0.74505805969E-08  0.10566000000E+00  0.10566000000E+00 0. -1.
     999900   -1    0    0    0    0 -0.00000000000E+00 -0.00000000000E+00 -0.74505805969E-08  0.93827000000E+00  0.93827000000E+00 0.  1.
     999902    2    1    2    0    0 -0.22044439964E-01 -0.43347522005E-02  0.27165166245E-02  0.10212997797E+01  0.10210490258E+01 0.  0.
     999903    2    3    3    0    0  0.45078410633E-01  0.58033471894E-01  0.10562849273E+00  0.13057751808E+00  0.22207268780E-01 0.  0.
         14    1    1    2    0    0  0.22044439964E-01  0.43347522005E-02 -0.27165166245E-02  0.22630220338E-01  0.00000000000E+00 0.  1.
     999901    1    3    3    0    0 -0.67122850597E-01 -0.62368224094E-01 -0.10291197611E+00  0.89072226158E+00  0.88000000000E+00 0.  1.
        -11    1    4    4    0    0  0.12931915344E-01  0.19419567047E-01  0.17643174082E-01  0.29255712800E-01  0.51100000000E-03 0.  1.
         11    1    4    4    0    0  0.32146495288E-01  0.38613904847E-01  0.87985318648E-01  0.10132180528E+00  0.51100000000E-03 0. -1.
</event>
