<event>
 8    1  0.2824193E+004  0.1043930E+01  0.7957747E-01            NaN
         13   -1    0    0    0    0  0.00000000000E+00  0.00000000000E+00  0.74505805969E-08  0.10566000000E+00  0.10566000000E+00 0. -1.
     999900   -1    0    0    0    0 -0.00000000000E+00 -0.00000000000E+00 -0.74505805969E-08  0.93827000000E+00  0.93827000000E+00 0. -1.
     999902    2    1    2    0    0 -0.95937538048E-03  0.13129665861E-01  0.57015319232E-02  0.10295837115E+01  0.10294837556E+01 0.  0.
     999903    2    3    3    0    0  0.32873497823E-02 -0.12149063645E+00 -0.46971455100E-01  0.13777930246E+00  0.44788806393E-01 0.  0.
         14    1    1    2    0    0  0.95937538048E-03 -0.13129665861E-01 -0.57015319232E-02  0.14346288475E-01  0.00000000000E+00 0. -1.
     999901    1    3    3    0    0 -0.42467251628E-02  0.13462030231E+00  0.52672987023E-01  0.89180440907E+00  0.88000000000E+00 0.  1.
        -11    1    4    4    0    0 -0.18940323901E-01 -0.82244191765E-01 -0.29450382486E-01  0.89389200120E-01  0.51100000000E-03 0. -1.
         11    1    4    4    0    0  0.22227673683E-01 -0.39246444684E-01 -0.17521072614E-01  0.48390102338E-01  0.51100000000E-03 0.  1.
</event>
<event>
 8    1  0.2824193E+004  0.1043930E+01  0.7957747E-01            NaN
         13   -1    0    0    0    0  0.00000000000E+00  0.00000000000E+00  0.74505805969E-08  0.10566000000E+00  0.10566000000E+00 0. -1.
     999900   -1    0    0    0    0 -0.00000000000E+00 -0.00000000000E+00 -0.74505805969E-08  0.93827000000E+00  0.93827000000E+00 0. -1.
     999902    2    1    2    0    0 -0.89062559952E-02  0.69793657228E-02  0.88874198608E-02  0.10295418391E+01  0.10294412947E+01 0.  0.
     999903    2    3    3    0    0 -0.19582475879E-01 -0.25388093836E-01  0.12936288535E+00  0.14067966089E+00  0.45033123477E-01 0.  0.
         14    1    1    2    0    0  0.89062559952E-02 -0.69793657228E-02 -0.88874198608E-02  0.14388160881E-01  0.00000000000E+00 0.  1.
     999901    1    3    3    0    0  0.10676219884E-01  0.32367459559E-01 -0.12047546549E+00  0.88886217823E+00  0.88000000000E+00 0. -1.
        -11    1    4    4    0    0 -0.14688229212E-02 -0.10308072164E-01  0.13472730075E-02  0.10511425121E-01  0.51100000000E-03 0.  1.
         11    1    4    4    0    0 -0.18113652958E-01 -0.15080021672E-01  0.12801561234E+00  0.13016823576E+00  0.51100000000E-03 0. -1.
</event>
<event>
 8    1  0.2824193E+004  0.1043930E+01  0.7957747E-01            NaN
         13   -1    0    0    0    0  0.00000000000E+00  0.00000000000E+00  0.74505805969E-08  0.10566000000E+00  0.10566000000E+00 0.  1.
     999900   -1    0    0    0    0 -0.00000000000E+00 -0.00000000000E+00 -0.74505805969E-08  0.93827000000E+00  0.93827000000E+00 0.  1.
     999902    2    1    2    0    0 -0.10375239426E-01  0.71019974532E-02 -0.60533390414E-02  0.10299755428E+01  0.10298810087E+01 0.  0.
     999903    2    3    3    0    0  0.84459877997E-01  0.57343628984E-01 -0.85031048416E-01  0.13994442001E+00  0.43959057324E-01 0.  0.
         14    1    1    2    0    0  0.10375239426E-01 -0.71019974532E-02  0.60533390414E-02  0.13954457156E-01  0.00000000000E+00 0.  1.
     999901    1    3    3    0    0 -0.94835117422E-01 -0.50241631531E-01  0.78977709375E-01  0.89003112283E+00  0.88000000000E+00 0.  1.
        -11    1    4    4    0    0  0.38219872756E-01  0.50308129738E-01 -0.38613137960E-01  0.74046621363E-01  0.51100000000E-03 0. -1.
         11    1    4    4    0    0  0.46240005241E-01  0.70354992465E-02 -0.46417910457E-01  0.65897798647E-01  0.51100000000E-03 0.  1.
</event>
<event>
 8    1  0.2824193E+004  0.1043930E+01  0.7957747E-01            NaN
         13   -1    0    0    0    0  0.00000000000E+00  0.00000000000E+00  0.74505805969E-08  0.10566000000E+00  0.10566000000E+00 0. -1.
     999900   -1    0    0    0    0 -0.00000000000E+00 -0.00000000000E+00 -0.74505805969E-08  0.93827000000E+00  0.93827000000E+00 0.  1.
     999902    2    1    2    0    0 -0.11412913471E-02  0.11515400020E-01  0.66172875823E-02  0.10305997532E+01  0.10305135399E+01 0.  0.
     999903    2    3    3    0    0 -0.11328070435E+00 -0.49634305627E-01  0.48740735834E-01  0.14038128605E+00  0.45112790534E-01 0.  0.
         14    1    1    2    0    0  0.11412913471E-02 -0.11515400020E-01 -0.66172875823E-02  0.13330246754E-01  0.00000000000E+00 0.  1.
     999901    1    3    3    0    0  0.11213941300E+00  0.61149705647E-01 -0.42123448251E-01  0.89021846720E+00  0.88000000000E+00 0. -1.
        -11    1    4    4    0    0 -0.84421038558E-01 -0.30664289127E-01  0.13133815021E-01  0.90774272770E-01  0.51100000000E-03 0.  1.
         11    1    4    4    0    0 -0.28859665792E-01 -0.18970016500E-01  0.35606920812E-01  0.49607013278E-01  0.51100000000E-03 0. -1.
</event>
<event>
 8    1  0.2824193E+004  0.1043930E+01  0.7957747E-01            NaN
         13   -1    0    0    0    0  0.00000000000E+00  0.00000000000E+00  0.74505805969E-08  0.10566000000E+00  0.10566000000E+00 0.  1.
     999900   -1    0    0    0    0 -0.00000000000E+00 -0.00000000000E+00 -0.74505805969E-08  0.93827000000E+00  0.93827000000E+00 0.  1.
     999902    2    1    2    0    0  0.37456951855E-02 -0.11187957576E-01  0.78565994368E-02  0.10297551356E+01  0.10296575705E+01 0.  0.
     999903    2    3    3    0    0  0.84707775027E-01  0.99949795838E-01  0.11052513514E-01  0.13907187397E+00  0.45315110476E-01 0.  0.
         14    1    1    2    0    0 -0.37456951855E-02  0.11187957576E-01 -0.78565994368E-02  0.14174864438E-01  0.00000000000E+00 0. -1.
     999901    1    3    3    0    0 -0.80962079842E-01 -0.11113775341E+00 -0.31959140775E-02  0.89068326159E+00  0.88000000000E+00 0.  1.
        -11    1    4    4    0    0  0.73336143834E-01  0.84620343485E-01 -0.77871738290E-02  0.11224835732E+00  0.51100000000E-03 0. -1.
         11    1    4    4    0    0  0.11371631193E-01  0.15329452353E-01  0.18839687343E-01  0.26823516653E-01  0.51100000000E-03 0.  1.
</event>
<event>
 8    1  0.2824193E+004  0.1043930E+01  0.7957747E-01            NaN
         13   -1    0    0    0    0  0.00000000000E+00  0.00000000000E+00  0.74505805969E-08  0.10566000000E+00  0.10566000000E+00 0.  1.
     999900   -1    0    0    0    0 -0.00000000000E+00 -0.00000000000E+00 -0.74505805969E-08  0.93827000000E+00  0.93827000000E+00 0.  1.
     999902    2    1    2    0    0 -0.45755441023E-02 -0.13575771844E-01  0.30909362543E-02  0.10292742478E+01  0.10291699015E+01 0.  0.
     999903    2    3    3    0    0  0.38409510158E-01  0.80816452080E-01 -0.94951425715E-01  0.13777555934E+00  0.44268974556E-01 0.  0.
         14    1    1    2    0    0  0.45755441023E-02  0.13575771844E-01 -0.30909362543E-02  0.14655752178E-01  0.00000000000E+00 0.  1.
     999901    1    3    3    0    0 -0.42985054260E-01 -0.94392223924E-01  0.98042361970E-01  0.89149868848E+00  0.88000000000E+00 0. -1.
        -11    1    4    4    0    0  0.16876058226E-01  0.22076314955E-01 -0.59965783185E-01  0.66093277247E-01  0.51100000000E-03 0.  1.
         11    1    4    4    0    0  0.21533451932E-01  0.58740137125E-01 -0.34985642530E-01  0.71682282091E-01  0.51100000000E-03 0. -1.
</event>
<event>
 8    1  0.2824193E+004  0.1043930E+01  0.7957747E-01            NaN
         13   -1    0    0    0    0  0.00000000000E+00  0.00000000000E+00  0.74505805969E-08  0.10566000000E+00  0.10566000000E+00 0. -1.
     999900   -1    0    0    0    0 -0.00000000000E+00 -0.00000000000E+00 -0.74505805969E-08  0.93827000000E+00  0.93827000000E+00 0. -1.
     999902    2    1    2    0    0  0.52422048304E-02 -0.10868897739E-01 -0.32806538229E-02  0.10314249475E+01  0.10313491387E+01 0.  0.
     999903    2    3    3    0    0  0.11964415069E+00 -0.23323312959E-01  0.56341030253E-01  0.14193202287E+00  0.45953103323E-01 0.  0.
         14    1    1    2    0    0 -0.52422048304E-02  0.10868897739E-01  0.32806538229E-02  0.12505052541E-01  0.00000000000E+00 0. -1.
     999901    1    3    3    0    0 -0.11440194586E+00  0.12454415219E-01 -0.59621684075E-01  0.88949292459E+00  0.88000000000E+00 0. -1.
        -11    1    4    4    0    0  0.69691375729E-01 -0.32278490178E-01  0.47804936080E-01  0.90467462736E-01  0.51100000000E-03 0. -1.
         11    1    4    4    0    0  0.49952774962E-01  0.89551772193E-02  0.85360941725E-02  0.51464560138E-01  0.51100000000E-03 0.  1.
</event>
<event>
 8    1  0.2824193E+004  0.1043930E+01  0.7957747E-01            NaN
         13   -1    0    0    0    0  0.00000000000E+00  0.00000000000E+00  0.74505805969E-08  0.10566000000E+00  0.10566000000E+00 0.  1.
     999900   -1    0    0    0    0 -0.00000000000E+00 -0.00000000000E+00 -0.74505805969E-08  0.93827000000E+00  0.93827000000E+00 0. -1.
     999902    2    1    2    0    0 -0.62332074974E-02  0.33817993237E-02  0.10994087481E-01  0.10308472097E+01  0.10307641876E+01 0.  0.
     999903    2    3    3    0    0  0.15753969161E-01 -0.12639636199E+00 -0.36121803950E-01  0.13981089489E+00  0.44922975647E-01 0.  0.
         14    1    1    2    0    0  0.62332074974E-02 -0.33817993237E-02 -0.10994087481E-01  0.13082790296E-01  0.00000000000E+00 0. -1.
     999901    1    3    3    0    0 -0.21987176659E-01  0.12977816131E+00  0.47115891431E-01  0.89103631481E+00  0.88000000000E+00 0. -1.
        -11    1    4    4    0    0 -0.33572578053E-02 -0.10791289586E+00 -0.33725039884E-01  0.11311102382E+00  0.51100000000E-03 0. -1.
         11    1    4    4    0    0  0.19111226967E-01 -0.18483466130E-01 -0.23967640662E-02  0.26699871074E-01  0.51100000000E-03 0.  1.
</event>
<event>
 8    1  0.2824193E+004  0.1043930E+01  0.7957747E-01            NaN
         13   -1    0    0    0    0  0.00000000000E+00  0.00000000000E+00  0.74505805969E-08  0.10566000000E+00  0.10566000000E+00 0.  1.
     999900   -1    0    0    0    0 -0.00000000000E+00 -0.00000000000E+00 -0.74505805969E-08  0.93827000000E+00  0.93827000000E+00 0. -1.
     999902    2    1    2    0    0 -0.10855979189E-01  0.72303450570E-02  0.27042094455E-02  0.10306092297E+01  0.10305231396E+01 0.  0.
     999903    2    3    3    0    0  0.10081560712E+00  0.83381088651E-01  0.21104363338E-01  0.14009923836E+00  0.45455581116E-01 0.  0.
         14    1    1    2    0    0  0.10855979189E-01 -0.72303450570E-02 -0.27042094455E-02  0.13320770342E-01  0.00000000000E+00 0.  1.
     999901    1    3    3    0    0 -0.11167158630E+00 -0.76150743594E-01 -0.18400153893E-01  0.89050999130E+00  0.88000000000E+00 0. -1.
        -11    1    4    4    0    0  0.32133624772E-01  0.34908494409E-02  0.11478941170E-01  0.34304272069E-01  0.51100000000E-03 0. -1.
         11    1    4    4    0    0  0.68681982343E-01  0.79890239210E-01  0.96254221687E-02  0.10579496629E+00  0.51100000000E-03 0.  1.
</event>
<event>
 8    1  0.2824193E+004  0.1043930E+01  0.7957747E-01            NaN
         13   -1    0    0    0    0  0.00000000000E+00  0.00000000000E+00  0.74505805969E-08  0.10566000000E+00  0.10566000000E+00 0.  1.
     999900   -1    0    0    0    0 -0.00000000000E+00 -0.00000000000E+00 -0.74505805969E-08  0.93827000000E+00  0.93827000000E+00 0. -1.
     999902    2    1    2    0    0 -0.84271962923E-02 -0.23670418498E-03 -0.10262500132E-01  0.10306487133E+01  0.10305631362E+01 0.  0.
     999903    2    3    3    0    0  0.76264100233E-02 -0.59275530208E-01 -0.12047014288E+00  0.14166669678E+00  0.44549377554E-01 0.  0.
         14    1    1    2    0    0  0.84271962923E-02  0.23670418498E-03  0.10262500132E-01  0.13281286654E-01  0.00000000000E+00 0.  1.
     999901    1    3    3    0    0 -0.16053606316E-01  0.59038826023E-01  0.11020764275E+00  0.88898201656E+00  0.88000000000E+00 0.  1.
        -11    1    4    4    0    0  0.15999058968E-01 -0.23686829671E-01 -0.88818697095E-01  0.93306258431E-01  0.51100000000E-03 0.  1.
         11    1    4    4    0    0 -0.83726489448E-02 -0.35588700537E-01 -0.31651445785E-01  0.48360438352E-01  0.51100000000E-03 0. -1.
</event>
<event>
 8    1  0.2824193E+004  0.1043930E+01  0.7957747E-01            NaN
         13   -1    0    0    0    0  0.00000000000E+00  0.00000000000E+00  0.74505805969E-08  0.10566000000E+00  0.10566000000E+00 0.  1.
     999900   -1    0    0    0    0 -0.00000000000E+00 -0.00000000000E+00 -0.74505805969E-08  0.93827000000E+00  0.93827000000E+00 0.  1.
     999902    2    1    2    0    0  0.98613415151E-02  0.33213299202E-02 -0.84124340582E-02  0.10305491803E+01  0.10304623073E+01 0.  0.
     999903    2    3    3    0    0  0.51497724368E-01 -0.11995015321E+00  0.26135879432E-01  0.14031155310E+00  0.44319215567E-01 0.  0.
         14    1    1    2    0    0 -0.98613415151E-02 -0.33213299202E-02  0.84124340582E-02  0.13380819695E-01  0.00000000000E+00 0.  1.
     999901    1    3    3    0    0 -0.41636382853E-01  0.12327148313E+00 -0.34548313491E-01  0.89023762721E+00  0.88000000000E+00 0. -1.
        -11    1    4    4    0    0  0.22673570398E-02 -0.33192561162E-01 -0.91367195830E-02  0.34505474786E-01  0.51100000000E-03 0. -1.
         11    1    4    4    0    0  0.49230367328E-01 -0.86757592050E-01  0.35272599015E-01  0.10580607831E+00  0.51100000000E-03 0.  1.
</event>
<event>
 8    1  0.2824193E+004  0.1043930E+01  0.7957747E-01            NaN
         13   -1    0    0    0    0  0.00000000000E+00  0.00000000000E+00  0.74505805969E-08  0.10566000000E+00  0.10566000000E+00 0. -1.
     999900   -1    0    0    0    0 -0.00000000000E+00 -0.00000000000E+00 -0.74505805969E-08  0.93827000000E+00  0.93827000000E+00 0. -1.
     999902    2    1    2    0    0 -0.11685648022E-01 -0.71752853943E-02  0.13151582549E-02  0.10301543428E+01  0.10300622317E+01 0.  0.
     999903    2    3    3    0    0  0.11680493127E+00 -0.60152136204E-01  0.41542807969E-02  0.13924220554E+00  0.45928883020E-01 0.  0.
         14    1    1    2    0    0  0.11685648022E-01  0.71752853943E-02 -0.13151582549E-02  0.13775657204E-01  0.00000000000E+00 0.  1.
     999901    1    3    3    0    0 -0.12849057930E+00  0.52976850810E-01 -0.28391225420E-02  0.89091213725E+00  0.88000000000E+00 0. -1.
        -11    1    4    4    0    0  0.72953354093E-01 -0.51499823067E-01 -0.15105397078E-01  0.90569629519E-01  0.51100000000E-03 0.  1.
         11    1    4    4    0    0  0.43851577181E-01 -0.86523131371E-02  0.19259677874E-01  0.48672576023E-01  0.51100000000E-03 0. -1.
</event>
<event>
 8    1  0.2824193E+004  0.1043930E+01  0.7957747E-01            NaN
         13   -1    0    0    0    0  0.00000000000E+00  0.00000000000E+00  0.74505805969E-08  0.10566000000E+00  0.10566000000E+00 0.  1.
     999900   -1    0    0    0    0 -0.00000000000E+00 -0.00000000000E+00 -0.74505805969E-08  0.93827000000E+00  0.93827000000E+00 0. -1.
     999902    2    1    2    0    0  0.11927156787E-01  0.45011941890E-02  0.38424968340E-02  0.10306152488E+01  0.10305292371E+01 0.  0.
     999903    2    3    3    0    0  0.23610420206E-01 -0.12864946179E+00  0.25973918851E-01  0.14024712510E+00  0.43433577752E-01 0.  0.
         14    1    1    2    0    0 -0.11927156787E-01 -0.45011941890E-02 -0.38424968340E-02  0.13314751220E-01  0.00000000000E+00 0.  1.
     999901    1    3    3    0    0 -0.11683263419E-01  0.13315065598E+00 -0.22131422017E-01  0.89036812368E+00  0.88000000000E+00 0. -1.
        -11    1    4    4    0    0 -0.10549353416E-01 -0.54716351752E-01  0.17256650005E-01  0.58337133088E-01  0.51100000000E-03 0. -1.
         11    1    4    4    0    0  0.34159773622E-01 -0.73933110036E-01  0.87172688455E-02  0.81909992008E-01  0.51100000000E-03 0.  1.
</event>
<event>
 8    1  0.2824193E+004  0.1043930E+01  0.7957747E-01            NaN
         13   -1    0    0    0    0  0.00000000000E+00  0.00000000000E+00  0.74505805969E-08  0.10566000000E+00  0.10566000000E+00 0.  1.
     999900   -1    0    0    0    0 -0.00000000000E+00 -0.00000000000E+00 -0.74505805969E-08  0.93827000000E+00  0.93827000000E+00 0.  1.
     999902    2    1    2    0    0  0.24948983077E-02  0.90441399055E-02 -0.10993826358E-01  0.10294771386E+01  0.10293756815E+01 0.  0.
     999903    2    3    3    0    0  0.70723846400E-01  0.68090084192E-02 -0.11280331003E+00  0.14098101812E+00  0.45856686216E-01 0.  0.
         14    1    1    2    0    0 -0.24948983077E-02 -0.90441399055E-02  0.10993826358E-01  0.14452861384E-01  0.00000000000E+00 0.  1.
     999901    1    3    3    0    0 -0.68228948092E-01  0.22351314863E-02  0.10180948367E+00  0.88849612050E+00  0.88000000000E+00 0. -1.
        -11    1    4    4    0    0  0.31732793466E-01 -0.73136165253E-02 -0.85065638096E-01  0.91087227829E-01  0.51100000000E-03 0.  1.
         11    1    4    4    0    0  0.38991052934E-01  0.14122624945E-01 -0.27737671936E-01  0.49893790292E-01  0.51100000000E-03 0. -1.
</event>
<event>
 8    1  0.2824193E+004  0.1043930E+01  0.7957747E-01            NaN
         13   -1    0    0    0    0  0.00000000000E+00  0.00000000000E+00  0.74505805969E-08  0.10566000000E+00  0.10566000000E+00 0.  1.
     999900   -1    0    0    0    0 -0.00000000000E+00 -0.00000000000E+00 -0.74505805969E-08  0.93827000000E+00  0.93827000000E+00 0.  1.
     999902    2    1    2    0    0 -0.12727314134E-01 -0.32167846892E-02  0.32181539907E-02  0.10304137600E+01  0.10303251079E+01 0.  0.
     999903    2    3    3    0    0 -0.11250036259E+00 -0.72064000652E-01  0.16244654505E-01  0.14200828384E+00  0.45309073122E-01 0.  0.
         14    1    1    2    0    0  0.12727314134E-01  0.32167846892E-02 -0.32181539907E-02  0.13516240006E-01  0.00000000000E+00 0. -1.
     999901    1    3    3    0    0  0.99773048453E-01  0.68847215963E-01 -0.13026500515E-01  0.88840547615E+00  0.88000000000E+00 0. -1.
        -11    1    4    4    0    0 -0.53670966122E-01 -0.35609531274E-01  0.30622016343E-01  0.71320265899E-01  0.51100000000E-03 0. -1.
         11    1    4    4    0    0 -0.58829396465E-01 -0.36454469378E-01 -0.14377361838E-01  0.70688017941E-01  0.51100000000E-03 0.  1.
</event>
<event>
 8    1  0.2824193E+004  0.1043930E+01  0.7957747E-01            NaN
         13   -1    0    0    0    0  0.00000000000E+00  0.00000000000E+00  0.74505805969E-08  0.10566000000E+00  0.10566000000E+00 0. -1.
     999900   -1    0    0    0    0 -0.00000000000E+00 -0.00000000000E+00 -0.74505805969E-08  0.93827000000E+00  0.93827000000E+00 0. -1.
     999902    2    1    2    0    0  0.32691433573E-02 -0.10614428685E-01  0.63093938814E-02  0.10311565179E+01  0.10310773989E+01 0.  0.
     999903    2    3    3    0    0  0.55747432907E-01  0.22425511090E-02  0.12223452154E+00  0.14191082177E+00  0.45657395566E-01 0.  0.
         14    1    1    2    0    0 -0.32691433573E-02  0.10614428685E-01 -0.63093938814E-02  0.12773482131E-01  0.00000000000E+00 0.  1.
     999901    1    3    3    0    0 -0.52478289549E-01 -0.12856979794E-01 -0.11592512765E+00  0.88924569610E+00  0.88000000000E+00 0. -1.
        -11    1    4    4    0    0  0.45344141947E-01  0.21007139246E-01  0.76307061466E-01  0.91216335482E-01  0.51100000000E-03 0.  1.
         11    1    4    4    0    0  0.10403290960E-01 -0.18764588137E-01  0.45927460070E-01  0.50694486290E-01  0.51100000000E-03 0. -1.
</event>
<event>
 8    1  0.2824193E+004  0.1043930E+01  0.7957747E-01            NaN
         13   -1    0    0    0    0  0.00000000000E+00  0.00000000000E+00  0.74505805969E-08  0.10566000000E+00  0.10566000000E+00 0.  1.
     999900   -1    0    0    0    0 -0.00000000000E+00 -0.00000000000E+00 -0.74505805969E-08  0.93827000000E+00  0.93827000000E+00 0. -1.
     999902    2    1    2    0    0 -0.35742409722E-03  0.47751351683E-02 -0.11819629898E-01  0.10311772231E+01  0.10310983620E+01 0.  0.
     999903    2    3    3    0    0 -0.22660537175E-01 -0.10672619429E+00 -0.77582147732E-01  0.14142743575E+00  0.45593304815E-01 0.  0.
         14    1    1    2    0    0  0.35742409722E-03 -0.47751351683E-02  0.11819629898E-01  0.12752776905E-01  0.00000000000E+00 0.  1.
     999901    1    3    3    0    0  0.22303113078E-01  0.11150132946E+00  0.65762517834E-01  0.88974978734E+00  0.88000000000E+00 0.  1.
        -11    1    4    4    0    0 -0.15107208509E-01 -0.10741500055E+00 -0.64231137610E-01  0.12606391336E+00  0.51100000000E-03 0. -1.
         11    1    4    4    0    0 -0.75533286663E-02  0.68880625973E-03 -0.13351010122E-01  0.15363522391E-01  0.51100000000E-03 0.  1.
</event>
<event>
 8    1  0.2824193E+004  0.1043930E+01  0.7957747E-01            NaN
         13   -1    0    0    0    0  0.00000000000E+00  0.00000000000E+00  0.74505805969E-08  0.10566000000E+00  0.10566000000E+00 0. -1.
     999900   -1    0    0    0    0 -0.00000000000E+00 -0.00000000000E+00 -0.74505805969E-08  0.93827000000E+00  0.93827000000E+00 0.  1.
     999902    2    1    2    0    0  0.67780448648E-02 -0.80712483241E-02 -0.55950898576E-02  0.10319971893E+01  0.10319281984E+01 0.  0.
     999903    2    3    3    0    0 -0.12777313314E+00  0.17545082440E-01 -0.35057013456E-01  0.14091457757E+00  0.44655576468E-01 0.  0.
         14    1    1    2    0    0 -0.67780448648E-02  0.80712483241E-02  0.55950898576E-02  0.11932810742E-01  0.00000000000E+00 0. -1.
     999901    1    3    3    0    0  0.13455117801E+00 -0.25616330764E-01  0.29461923598E-01  0.89108261168E+00  0.88000000000E+00 0.  1.
        -11    1    4    4    0    0 -0.86852942972E-01  0.32742983895E-01 -0.24576754557E-01  0.96019866085E-01  0.51100000000E-03 0. -1.
         11    1    4    4    0    0 -0.40920190168E-01 -0.15197901455E-01 -0.10480258898E-01  0.44894711488E-01  0.51100000000E-03 0.  1.
</event>
<event>
 8    1  0.2824193E+004  0.1043930E+01  0.7957747E-01            NaN
         13   -1    0    0    0    0  0.00000000000E+00  0.00000000000E+00  0.74505805969E-08  0.10566000000E+00  0.10566000000E+00 0.  1.
     999900   -1    0    0    0    0 -0.00000000000E+00 -0.00000000000E+00 -0.74505805969E-08  0.93827000000E+00  0.93827000000E+00 0.  1.
     999902    2    1    2    0    0 -0.10643538999E-01 -0.76424853811E-02  0.23961259143E-02  0.10306095674E+01  0.10305234818E+01 0.  0.
     999903    2    3    3    0    0  0.77418829471E-01  0.67184228261E-02  0.10720669335E+00  0.13990957780E+00  0.45195160125E-01 0.  0.
         14    1    1    2    0    0  0.10643538999E-01  0.76424853811E-02 -0.23961259143E-02  0.13320432599E-01  0.00000000000E+00 0. -1.
     999901    1    3    3    0    0 -0.88062368470E-01 -0.14360908207E-01 -0.10481056744E+00  0.89069998960E+00  0.88000000000E+00 0.  1.
        -11    1    4    4    0    0  0.74410001213E-01 -0.48607872962E-02  0.75953754045E-01  0.10644110770E+00  0.51100000000E-03 0.  1.
         11    1    4    4    0    0  0.30088282586E-02  0.11579210122E-01  0.31252939310E-01  0.33468470103E-01  0.51100000000E-03 0. -1.
</event>
<event>
 8    1  0.2824193E+004  0.1043930E+01  0.7957747E-01            NaN
         13   -1    0    0    0    0  0.00000000000E+00  0.00000000000E+00  0.74505805969E-08  0.10566000000E+00  0.10566000000E+00 0.  1.
     999900   -1    0    0    0    0 -0.00000000000E+00 -0.00000000000E+00 -0.74505805969E-08  0.93827000000E+00  0.93827000000E+00 0. -1.
     999902    2    1    2    0    0  0.67812807057E-02  0.24075833090E-02  0.11925896790E-01  0.10300012800E+01  0.10299070966E+01 0.  0.
     999903    2    3    3    0    0  0.36420800385E-01 -0.12731919291E+00  0.46801274351E-02  0.13996755104E+00  0.45081705469E-01 0.  0.
         14    1    1    2    0    0 -0.67812807057E-02 -0.24075833090E-02 -0.11925896790E-01  0.13928719957E-01  0.00000000000E+00 0. -1.
     999901    1    3    3    0    0 -0.29639519679E-01  0.12972677621E+00  0.72457693544E-02  0.89003372901E+00  0.88000000000E+00 0. -1.
        -11    1    4    4    0    0  0.25293152914E-01 -0.74598672506E-01 -0.19123279223E-01  0.81059647502E-01  0.51100000000E-03 0. -1.
         11    1    4    4    0    0  0.11127647471E-01 -0.52720520399E-01  0.23803406658E-01  0.58907903535E-01  0.51100000000E-03 0.  1.
</event>
<event>
 8    1  0.2824193E+004  0.1043930E+01  0.7957747E-01            NaN
         13   -1    0    0    0    0  0.00000000000E+00  0.00000000000E+00  0.74505805969E-08  0.10566000000E+00  0.10566000000E+00 0.  1.
     999900   -1    0    0    0    0 -0.00000000000E+00 -0.00000000000E+00 -0.74505805969E-08  0.93827000000E+00  0.93827000000E+00 0.  1.
     999902    2    1    2    0    0 -0.80330225855E-02  0.54578217720E-02 -0.79814770168E-02  0.10313593498E+01  0.10312827387E+01 0.  0.
     999903    2    3    3    0    0 -0.22649831202E-01  0.76090581766E-01 -0.10942540835E+00  0.14259981594E+00  0.45365141079E-01 0.  0.
         14    1    1    2    0    0  0.80330225855E-02 -0.54578217720E-02  0.79814770168E-02  0.12570650171E-01  0.00000000000E+00 0.  1.
     999901    1    3    3    0    0  0.14616808617E-01 -0.70632759994E-01  0.10144393134E+00  0.88875953389E+00  0.88000000000E+00 0. -1.
        -11    1    4    4    0    0 -0.17868026262E-01  0.30372017781E-01 -0.81546741165E-01  0.88836129712E-01  0.51100000000E-03 0. -1.
         11    1    4    4    0    0 -0.47818049400E-02  0.45718563985E-01 -0.27878667188E-01  0.53763686225E-01  0.51100000000E-03 0.  1.
</event>
<event>
 8    1  0.2824193E+004  0.1043930E+01  0.7957747E-01            NaN
         13   -1    0    0    0    0  0.00000000000E+00  0.00000000000E+00  0.74505805969E-08  0.10566000000E+00  0.10566000000E+00 0. -1.
     999900   -1    0    0    0    0 -0.00000000000E+00 -0.00000000000E+00 -0.74505805969E-08  0.93827000000E+00  0.93827000000E+00 0.  1.
     999902    2    1    2    0    0  0.84915934444E-02 -0.71668187908E-02 -0.78299264005E-02  0.10303366855E+01  0.10302470128E+01 0.  0.
     999903    2    3    3    0    0  0.42710867361E-01  0.11553669148E+00 -0.49343230743E-01  0.14019598622E+00  0.45246158538E-01 0.  0.
         14    1    1    2    0    0 -0.84915934444E-02  0.71668187908E-02  0.78299264005E-02  0.13593314469E-01  0.00000000000E+00 0. -1.
     999901    1    3    3    0    0 -0.34219273916E-01 -0.12270351027E+00  0.41513304343E-01  0.89014069932E+00  0.88000000000E+00 0. -1.
        -11    1    4    4    0    0  0.18173833087E-03  0.10548125191E-01 -0.20878034388E-01  0.23397636948E-01  0.51100000000E-03 0.  1.
         11    1    4    4    0    0  0.42529129030E-01  0.10498856629E+00 -0.28465196355E-01  0.11679834927E+00  0.51100000000E-03 0. -1.
</event>
<event>
 8    1  0.2824193E+004  0.1043930E+01  0.7957747E-01            NaN
         13   -1    0    0    0    0  0.00000000000E+00  0.00000000000E+00  0.74505805969E-08  0.10566000000E+00  0.10566000000E+00 0. -1.
     999900   -1    0    0    0    0 -0.00000000000E+00 -0.00000000000E+00 -0.74505805969E-08  0.93827000000E+00  0.93827000000E+00 0. -1.
     999902    2    1    2    0    0  0.39978336337E-02  0.99083924983E-02  0.54255756933E-02  0.10319468540E+01  0.10318772765E+01 0.  0.
     999903    2    3    3    0    0 -0.44307018982E-02 -0.10805782057E+00  0.78841114261E-01  0.14100526844E+00  0.44389646589E-01 0.  0.
         14    1    1    2    0    0 -0.39978336337E-02 -0.99083924983E-02 -0.54255756933E-02  0.11983145967E-01  0.00000000000E+00 0.  1.
     999901    1    3    3    0    0  0.84285355319E-02  0.11796621307E+00 -0.73415538567E-01  0.89094158559E+00  0.88000000000E+00 0. -1.
        -11    1    4    4    0    0 -0.16397566156E-01 -0.18808003646E-01  0.28333026783E-01  0.37757684048E-01  0.51100000000E-03 0. -1.
         11    1    4    4    0    0  0.11966864258E-01 -0.89249816923E-01  0.50508087478E-01  0.10324758439E+00  0.51100000000E-03 0.  1.
</event>
<event>
 8    1  0.2824193E+004  0.1043930E+01  0.7957747E-01            NaN
         13   -1    0    0    0    0  0.00000000000E+00  0.00000000000E+00  0.74505805969E-08  0.10566000000E+00  0.10566000000E+00 0.  1.
     999900   -1    0    0    0    0 -0.00000000000E+00 -0.00000000000E+00 -0.74505805969E-08  0.93827000000E+00  0.93827000000E+00 0. -1.
     999902    2    1    2    0    0 -0.12076111193E-03 -0.71873054499E-02  0.11295210466E-01  0.10305414331E+01  0.10304544588E+01 0.  0.
     999903    2    3    3    0    0 -0.66457115704E-01 -0.11597459435E+00  0.47147314944E-02  0.14134039352E+00  0.45697082896E-01 0.  0.
         14    1    1    2    0    0  0.12076111193E-03  0.71873054499E-02 -0.11295210466E-01  0.13388566852E-01  0.00000000000E+00 0. -1.
     999901    1    3    3    0    0  0.66336354592E-01  0.10878728890E+00  0.65804789718E-02  0.88920103963E+00  0.88000000000E+00 0. -1.
        -11    1    4    4    0    0  0.54586738334E-02 -0.20061225392E-01  0.52844444606E-02  0.21457780839E-01  0.51100000000E-03 0.  1.
         11    1    4    4    0    0 -0.71915789538E-01 -0.95913368960E-01 -0.56971296613E-03  0.11988261268E+00  0.51100000000E-03 0. -1.
</event>
<event>
 8    1  0.2824193E+004  0.1043930E+01  0.7957747E-01            NaN
         13   -1    0    0    0    0  0.00000000000E+00  0.00000000000E+00  0.74505805969E-08  0.10566000000E+00  0.10566000000E+00 0.  1.
     999900   -1    0    0    0    0 -0.00000000000E+00 -0.00000000000E+00 -0.74505805969E-08  0.93827000000E+00  0.93827000000E+00 0.  1.
     999902    2    1    2    0    0  0.13374705191E-01  0.19609166737E-02  0.11022932498E-02  0.10303674419E+01  0.10302781771E+01 0.  0.
     999903    2    3    3    0    0 -0.24708684438E-01  0.28322592619E-01  0.12736992177E+00  0.14014904363E+00  0.44788046586E-01 0.  0.
         14    1    1    2    0    0 -0.13374705191E-01 -0.19609166737E-02 -0.11022932498E-02  0.13562558150E-01  0.00000000000E+00 0.  1.
     999901    1    3    3    0    0  0.38083389629E-01 -0.26361675945E-01 -0.12626762853E+00  0.89021839822E+00  0.88000000000E+00 0.  1.
        -11    1    4    4    0    0  0.11481665888E-01  0.12916853666E-01  0.56597032158E-01  0.59179041309E-01  0.51100000000E-03 0. -1.
         11    1    4    4    0    0 -0.36190350326E-01  0.15405738953E-01  0.70772889617E-01  0.80970002317E-01  0.51100000000E-03 0.  1.
</event>
<event>
 8    1  0.2824193E+004  0.1043930E+01  0.7957747E-01            NaN
         13   -1    0    0    0    0  0.00000000000E+00  0.00000000000E+00  0.74505805969E-08  0.10566000000E+00  0.10566000000E+00 0. -1.
     999900   -1    0    0    0    0 -0.00000000000E+00 -0.00000000000E+00 -0.74505805969E-08  0.93827000000E+00  0.93827000000E+00 0.  1.
     999902    2    1    2    0    0  0.12961191089E-01  0.43695762203E-02  0.10465951196E-02  0.10302120908E+01  0.10301207556E+01 0.  0.
     999903    2    3    3    0    0 -0.11284451560E+00 -0.60038890812E-01 -0.28233164405E-01  0.13845381036E+00  0.45097593276E-01 0.  0.
         14    1    1    2    0    0 -0.12961191089E-01 -0.43695762203E-02 -0.10465951196E-02  0.13717909175E-01  0.00000000000E+00 0. -1.
     999901    1    3    3    0    0  0.12580570669E+00  0.64408467032E-01  0.29279759525E-01  0.89175828047E+00  0.88000000000E+00 0. -1.
        -11    1    4    4    0    0 -0.10283307825E+00 -0.56488875562E-01 -0.10526964450E-01  0.11779946157E+00  0.51100000000E-03 0.  1.
         11    1    4    4    0    0 -0.10011437356E-01 -0.35500152497E-02 -0.17706199955E-01  0.20654348793E-01  0.51100000000E-03 0. -1.
</event>
<event>
 7    1  0.2824193E+004  0.1043930E+01  0.7957747E-01            NaN
         13   -1    0    0    0    0  0.00000000000E+00  0.00000000000E+00  0.74505805969E-08  0.10566000000E+00  0.10566000000E+00 0.  1.
     999900   -1    0    0    0    0 -0.00000000000E+00 -0.00000000000E+00 -0.74505805969E-08  0.93827000000E+00  0.93827000000E+00 0.  1.
     999902    2    1    2    0    0 -0.52435446735E-02 -0.85993592925E-02 -0.90417102348E-02  0.10303949985E+01  0.10303060986E+01 0.  0.
         14    1    1    2    0    0  0.52435446735E-02  0.85993592925E-02  0.90417102348E-02  0.13535001476E-01  0.00000000000E+00 0.  1.
     999901    1    3    3    0    0  0.79354778818E-01  0.87188265774E-01  0.49113964592E-01  0.88921940832E+00  0.88000000000E+00 0. -1.
        -11    1    3    3    0    0 -0.48052349885E-01 -0.55071543948E-01 -0.41157837746E-01  0.83881654795E-01  0.51100000000E-03 0.  1.
         11    1    3    3    0    0 -0.36545973606E-01 -0.40716081119E-01 -0.16997837081E-01  0.57293935412E-01  0.51100000000E-03 0. -1.
</event>
<event>
 8    1  0.2824193E+004  0.1043930E+01  0.7957747E-01            NaN
         13   -1    0    0    0    0  0.00000000000E+00  0.00000000000E+00  0.74505805969E-08  0.10566000000E+00  0.10566000000E+00 0.  1.
     999900   -1    0    0    0    0 -0.00000000000E+00 -0.00000000000E+00 -0.74505805969E-08  0.93827000000E+00  0.93827000000E+00 0. -1.
     999902    2    1    2    0    0  0.11431093727E-01  0.18456639667E-01  0.21438650254E-02  0.10221145557E+01  0.10218817209E+01 0.  0.
     999903    2    3    3    0    0 -0.12329954232E+00  0.54848426737E-02  0.10119542129E-01  0.13173024363E+00  0.44917605890E-01 0.  0.
         14    1    1    2    0    0 -0.11431093727E-01 -0.18456639667E-01 -0.21438650254E-02  0.21815444273E-01  0.00000000000E+00 0.  1.
     999901    1    3    3    0    0  0.13473063604E+00  0.12971796993E-01 -0.79756771035E-02  0.89038431210E+00  0.88000000000E+00 0.  1.
        -11    1    4    4    0    0 -0.78031381557E-01  0.23785939491E-01 -0.12766666915E-02  0.81587734519E-01  0.51100000000E-03 0. -1.
         11    1    4    4    0    0 -0.45268160760E-01 -0.18301096817E-01  0.11396208820E-01  0.50142509109E-01  0.51100000000E-03 0.  1.
</event>
<event>
 7    1  0.2824193E+004  0.1043930E+01  0.7957747E-01            NaN
         13   -1    0    0    0    0  0.00000000000E+00  0.00000000000E+00  0.74505805969E-08  0.10566000000E+00  0.10566000000E+00 0. -1.
     999900   -1    0    0    0    0 -0.00000000000E+00 -0.00000000000E+00 -0.74505805969E-08  0.93827000000E+00  0.93827000000E+00 0. -1.
     999902    2    1    2    0    0 -0.10710876427E-01 -0.37173474100E-02 -0.86518645374E-02  0.10296682923E+01  0.10295695197E+01 0.  0.
         14    1    1    2    0    0  0.10710876427E-01  0.37173474100E-02  0.86518645374E-02  0.14261707667E-01  0.00000000000E+00 0.  1.
     999901    1    3    3    0    0 -0.88301190156E-01  0.67285374196E-01 -0.75455567641E-01  0.89017861379E+00  0.88000000000E+00 0. -1.
        -11    1    3    3    0    0  0.28511422226E-01 -0.56451995458E-01  0.61170621856E-01  0.87987698503E-01  0.51100000000E-03 0. -1.
         11    1    3    3    0    0  0.49078891503E-01 -0.14550726148E-01  0.56330812473E-02  0.51501980039E-01  0.51100000000E-03 0.  1.
</event>
<event>
 8    1  0.2824193E+004  0.1043930E+01  0.7957747E-01            NaN
         13   -1    0    0    0    0  0.00000000000E+00  0.00000000000E+00  0.74505805969E-08  0.10566000000E+00  0.10566000000E+00 0. -1.
     999900   -1    0    0    0    0 -0.00000000000E+00 -0.00000000000E+00 -0.74505805969E-08  0.93827000000E+00  0.93827000000E+00 0.  1.
     999902    2    1    2    0    0 -0.10960157598E-01 -0.76968271678E-02 -0.38335580236E-02  0.10299993729E+01  0.10299051635E+01 0.  0.
     999903    2    3    3    0    0 -0.12358814033E+00 -0.11928805200E-01 -0.50888276004E-01  0.14156416506E+00  0.45105114684E-01 0.  0.
         14    1    1    2    0    0  0.10960157598E-01  0.76968271678E-02  0.38335580236E-02  0.13930627055E-01  0.00000000000E+00 0. -1.
     999901    1    3    3    0    0  0.11262798273E+00  0.42319780324E-02  0.47054717981E-01  0.88843520789E+00  0.88000000000E+00 0.  1.
        -11    1    4    4    0    0 -0.10351680548E+00 -0.26920436008E-01 -0.39242066746E-01  0.11393261085E+00  0.51100000000E-03 0.  1.
         11    1    4    4    0    0 -0.20071334848E-01  0.14991630808E-01 -0.11646209259E-01  0.27631554208E-01  0.51100000000E-03 0. -1.
</event>
<event>
 8    1  0.2824193E+004  0.1043930E+01  0.7957747E-01            NaN
         13   -1    0    0    0    0  0.00000000000E+00  0.00000000000E+00  0.74505805969E-08  0.10566000000E+00  0.10566000000E+00 0.  1.
     999900   -1    0    0    0    0 -0.00000000000E+00 -0.00000000000E+00 -0.74505805969E-08  0.93827000000E+00  0.93827000000E+00 0. -1.
     999902    2    1    2    0    0 -0.13906167417E-03 -0.18972301307E-02  0.13520457469E-01  0.10302763708E+01  0.10301858952E+01 0.  0.
     999903    2    3    3    0    0  0.65544216693E-01 -0.69820754877E-01  0.94548206915E-01  0.14151690139E+00  0.43779993095E-01 0.  0.
         14    1    1    2    0    0  0.13906167417E-03  0.18972301307E-02 -0.13520457469E-01  0.13653629206E-01  0.00000000000E+00 0. -1.
     999901    1    3    3    0    0 -0.65683278368E-01  0.67923524746E-01 -0.81027749445E-01  0.88875946940E+00  0.88000000000E+00 0. -1.
        -11    1    4    4    0    0  0.49960093018E-01 -0.39647742710E-01  0.34465128954E-01  0.72498693996E-01  0.51100000000E-03 0.  1.
         11    1    4    4    0    0  0.15584123676E-01 -0.30173012167E-01  0.60083077961E-01  0.69018207396E-01  0.51100000000E-03 0. -1.
</event>
<event>
 8    1  0.2824193E+004  0.1043930E+01  0.7957747E-01            NaN
         13   -1    0    0    0    0  0.00000000000E+00  0.00000000000E+00  0.74505805969E-08  0.10566000000E+00  0.10566000000E+00 0. -1.
     999900   -1    0    0    0    0 -0.00000000000E+00 -0.00000000000E+00 -0.74505805969E-08  0.93827000000E+00  0.93827000000E+00 0. -1.
     999902    2    1    2    0    0 -0.32473803634E-02 -0.97340134156E-02  0.96796021545E-02  0.10298235761E+01  0.10297269574E+01 0.  0.
     999903    2    3    3    0    0 -0.21720953950E-01 -0.13118200634E+00  0.67681319986E-02  0.14128580847E+00  0.47279524505E-01 0.  0.
         14    1    1    2    0    0  0.32473803634E-02  0.97340134156E-02 -0.96796021545E-02  0.14106423865E-01  0.00000000000E+00 0. -1.
     999901    1    3    3    0    0  0.18473573587E-01  0.12144799292E+00  0.29114701559E-02  0.88853776766E+00  0.88000000000E+00 0. -1.
        -11    1    4    4    0    0 -0.12964945713E-01 -0.83954398491E-01 -0.18599923120E-01  0.86963492940E-01  0.51100000000E-03 0.  1.
         11    1    4    4    0    0 -0.87560082372E-02 -0.47227607847E-01  0.25368055118E-01  0.54322315531E-01  0.51100000000E-03 0. -1.
</event>
<event>
 8    1  0.2824193E+004  0.1043930E+01  0.7957747E-01            NaN
         13   -1    0    0    0    0  0.00000000000E+00  0.00000000000E+00  0.74505805969E-08  0.10566000000E+00  0.10566000000E+00 0.  1.
     999900   -1    0    0    0    0 -0.00000000000E+00 -0.00000000000E+00 -0.74505805969E-08  0.93827000000E+00  0.93827000000E+00 0.  1.
     999902    2    1    2    0    0 -0.58638268816E-02 -0.80553471348E-02 -0.11110927680E-01  0.10290059993E+01  0.10288977698E+01 0.  0.
     999903    2    3    3    0    0 -0.12231823923E+00 -0.36940393130E-01 -0.36753086819E-01  0.14049404306E+00  0.45403110614E-01 0.  0.
         14    1    1    2    0    0  0.58638268816E-02  0.80553471348E-02  0.11110927680E-01  0.14924000706E-01  0.00000000000E+00 0.  1.
     999901    1    3    3    0    0  0.11645441235E+00  0.28885045995E-01  0.25642159139E-01  0.88851195623E+00  0.88000000000E+00 0.  1.
        -11    1    4    4    0    0 -0.13149100533E-01  0.42406349991E-02  0.74710966201E-02  0.15714968525E-01  0.51100000000E-03 0.  1.
         11    1    4    4    0    0 -0.10916913869E+00 -0.41181028129E-01 -0.44224183439E-01  0.12477907454E+00  0.51100000000E-03 0. -1.
</event>
<event>
 8    1  0.2824193E+004  0.1043930E+01  0.7957747E-01            NaN
         13   -1    0    0    0    0  0.00000000000E+00  0.00000000000E+00  0.74505805969E-08  0.10566000000E+00  0.10566000000E+00 0. -1.
     999900   -1    0    0    0    0 -0.00000000000E+00 -0.00000000000E+00 -0.74505805969E-08  0.93827000000E+00  0.93827000000E+00 0.  1.
     999902    2    1    2    0    0  0.11577171596E-01  0.57640768575E-02 -0.16404757816E-02  0.10308936414E+01  0.10308112113E+01 0.  0.
     999903    2    3    3    0    0  0.68012273600E-01 -0.91586609281E-01 -0.67725260356E-01  0.14127053269E+00  0.48547668922E-01 0.  0.
         14    1    1    2    0    0 -0.11577171596E-01 -0.57640768575E-02  0.16404757816E-02  0.13036358578E-01  0.00000000000E+00 0.  1.
     999901    1    3    3    0    0 -0.56435102003E-01  0.97350686138E-01  0.66084784574E-01  0.88962310873E+00  0.88000000000E+00 0. -1.
        -11    1    4    4    0    0  0.60435173296E-01 -0.41498362079E-01 -0.40661357829E-01  0.83833951166E-01  0.51100000000E-03 0.  1.
         11    1    4    4    0    0  0.75771003038E-02 -0.50088247201E-01 -0.27063902527E-01  0.57436581529E-01  0.51100000000E-03 0. -1.
</event>
<event>
 8    1  0.2824193E+004  0.1043930E+01  0.7957747E-01            NaN
         13   -1    0    0    0    0  0.00000000000E+00  0.00000000000E+00  0.74505805969E-08  0.10566000000E+00  0.10566000000E+00 0. -1.
     999900   -1    0    0    0    0 -0.00000000000E+00 -0.00000000000E+00 -0.74505805969E-08  0.93827000000E+00  0.93827000000E+00 0.  1.
     999902    2    1    2    0    0  0.46081603778E-02 -0.13915595014E-01 -0.46615625316E-02  0.10285478970E+01  0.10284328697E+01 0.  0.
     999903    2    3    3    0    0  0.11344413170E+00 -0.43070513136E-02  0.65990865531E-01  0.13898094712E+00  0.45527877410E-01 0.  0.
         14    1    1    2    0    0 -0.46081603778E-02  0.13915595014E-01  0.46615625316E-02  0.15382102974E-01  0.00000000000E+00 0.  1.
     999901    1    3    3    0    0 -0.10883597132E+00 -0.96085437003E-02 -0.70652428063E-01  0.88956694990E+00  0.88000000000E+00 0.  1.
        -11    1    4    4    0    0  0.46856404497E-02  0.10789435758E-01  0.21515869181E-02  0.11969026597E-01  0.51100000000E-03 0. -1.
         11    1    4    4    0    0  0.10875849125E+00 -0.15096487072E-01  0.63839278613E-01  0.12701192053E+00  0.51100000000E-03 0.  1.
</event>
<event>
 8    1  0.2824193E+004  0.1043930E+01  0.7957747E-01            NaN
         13   -1    0    0    0    0  0.00000000000E+00  0.00000000000E+00  0.74505805969E-08  0.10566000000E+00  0.10566000000E+00 0. -1.
     999900   -1    0    0    0    0 -0.00000000000E+00 -0.00000000000E+00 -0.74505805969E-08  0.93827000000E+00  0.93827000000E+00 0. -1.
     999902    2    1    2    0    0 -0.14332083091E-02 -0.99026751831E-02  0.10102978551E-01  0.10297107441E+01  0.10296125627E+01 0.  0.
     999903    2    3    3    0    0 -0.10159108799E+00  0.47218365935E-01  0.71040114224E-01  0.14009973436E+00  0.45065668733E-01 0.  0.
         14    1    1    2    0    0  0.14332083091E-02  0.99026751831E-02 -0.10102978551E-01  0.14219255868E-01  0.00000000000E+00 0.  1.
     999901    1    3    3    0    0  0.10015787968E+00 -0.57121041118E-01 -0.60937135673E-01  0.88961100977E+00  0.88000000000E+00 0. -1.
        -11    1    4    4    0    0 -0.40845807039E-01 -0.16957472731E-02  0.13069316542E-01  0.42922298021E-01  0.51100000000E-03 0. -1.
         11    1    4    4    0    0 -0.60745280952E-01  0.48914113208E-01  0.57970797682E-01  0.97177436341E-01  0.51100000000E-03 0.  1.
</event>
<event>
 8    1  0.2824193E+004  0.1043930E+01  0.7957747E-01            NaN
         13   -1    0    0    0    0  0.00000000000E+00  0.00000000000E+00  0.74505805969E-08  0.10566000000E+00  0.10566000000E+00 0. -1.
     999900   -1    0    0    0    0 -0.00000000000E+00 -0.00000000000E+00 -0.74505805969E-08  0.93827000000E+00  0.93827000000E+00 0. -1.
     999902    2    1    2    0    0  0.47390721900E-02  0.46547316207E-02  0.11435581111E-01  0.10307051050E+01  0.10306202577E+01 0.  0.
     999903    2    3    3    0    0  0.10680245688E+00  0.40343205576E-01 -0.68391150561E-01  0.14050124705E+00  0.45043444761E-01 0.  0.
         14    1    1    2    0    0 -0.47390721900E-02 -0.46547316207E-02 -0.11435581111E-01  0.13224894972E-01  0.00000000000E+00 0.  1.
     999901    1    3    3    0    0 -0.10206338469E+00 -0.35688473956E-01  0.79826731672E-01  0.89020385798E+00  0.88000000000E+00 0.  1.
        -11    1    4    4    0    0  0.57799432493E-01 -0.21877234915E-02 -0.32576619385E-01  0.66385674525E-01  0.51100000000E-03 0.  1.
         11    1    4    4    0    0  0.49003024388E-01  0.42530929068E-01 -0.35814531176E-01  0.74115572526E-01  0.51100000000E-03 0. -1.
</event>
<event>
 8    1  0.2824193E+004  0.1043930E+01  0.7957747E-01            NaN
         13   -1    0    0    0    0  0.00000000000E+00  0.00000000000E+00  0.74505805969E-08  0.10566000000E+00  0.10566000000E+00 0.  1.
     999900   -1    0    0    0    0 -0.00000000000E+00 -0.00000000000E+00 -0.74505805969E-08  0.93827000000E+00  0.93827000000E+00 0.  1.
     999902    2    1    2    0    0  0.26216706260E-02  0.13401830258E-01  0.22495077804E-02  0.10300901121E+01  0.10299971343E+01 0.  0.
     999903    2    3    3    0    0 -0.22243461582E-01 -0.88771793765E-01  0.94588277108E-01  0.13903221694E+00  0.44808617812E-01 0.  0.
         14    1    1    2    0    0 -0.26216706260E-02 -0.13401830258E-01 -0.22495077804E-02  0.13839887875E-01  0.00000000000E+00 0. -1.
     999901    1    3    3    0    0  0.24865132208E-01  0.10217362402E+00 -0.92338769328E-01  0.89105789518E+00  0.88000000000E+00 0.  1.
        -11    1    4    4    0    0 -0.35463704046E-01 -0.73328720929E-01  0.78169801747E-01  0.11289621182E+00  0.51100000000E-03 0.  1.
         11    1    4    4    0    0  0.13220242464E-01 -0.15443072837E-01  0.16418475361E-01  0.26136005120E-01  0.51100000000E-03 0. -1.
</event>
<event>
 8    1  0.2824193E+004  0.1043930E+01  0.7957747E-01            NaN
         13   -1    0    0    0    0  0.00000000000E+00  0.00000000000E+00  0.74505805969E-08  0.10566000000E+00  0.10566000000E+00 0.  1.
     999900   -1    0    0    0    0 -0.00000000000E+00 -0.00000000000E+00 -0.74505805969E-08  0.93827000000E+00  0.93827000000E+00 0. -1.
     999902    2    1    2    0    0 -0.12513173191E-01 -0.55615366512E-02 -0.28985577471E-02  0.10299331493E+01  0.10298380359E+01 0.  0.
     999903    2    3    3    0    0 -0.41679999794E-01  0.62129708185E-01 -0.10999790323E+00  0.14038097081E+00  0.44832524250E-01 0.  0.
         14    1    1    2    0    0  0.12513173191E-01  0.55615366512E-02  0.28985577471E-02  0.13996850726E-01  0.00000000000E+00 0. -1.
     999901    1    3    3    0    0  0.29166826604E-01 -0.67691244837E-01  0.10709934548E+00  0.88955217846E+00  0.88000000000E+00 0.  1.
        -11    1    4    4    0    0 -0.12409171908E-01  0.34772555240E-01 -0.20290069142E-01  0.42131534178E-01  0.51100000000E-03 0.  1.
         11    1    4    4    0    0 -0.29270827886E-01  0.27357152945E-01 -0.89707834083E-01  0.98249436636E-01  0.51100000000E-03 0. -1.
</event>
<event>
 8    1  0.2824193E+004  0.1043930E+01  0.7957747E-01            NaN
         13   -1    0    0    0    0  0.00000000000E+00  0.00000000000E+00  0.74505805969E-08  0.10566000000E+00  0.10566000000E+00 0.  1.
     999900   -1    0    0    0    0 -0.00000000000E+00 -0.00000000000E+00 -0.74505805969E-08  0.93827000000E+00  0.93827000000E+00 0.  1.
     999902    2    1    2    0    0  0.32979397189E-02 -0.48897708315E-02 -0.12372152939E-01  0.10302239271E+01  0.10301327505E+01 0.  0.
     999903    2    3    3    0    0 -0.83879602656E-01 -0.55491645602E-02 -0.10432907094E+00  0.14114775859E+00  0.44402181746E-01 0.  0.
         14    1    1    2    0    0 -0.32979397189E-02  0.48897708315E-02  0.12372152939E-01  0.13706072870E-01  0.00000000000E+00 0.  1.
     999901    1    3    3    0    0  0.87177542374E-01  0.65939372873E-03  0.91956917998E-01  0.88907616854E+00  0.88000000000E+00 0. -1.
        -11    1    4    4    0    0  0.17303919844E-02 -0.51235838468E-02 -0.20947866752E-01  0.21640693388E-01  0.51100000000E-03 0. -1.
         11    1    4    4    0    0 -0.85609994640E-01 -0.42558071346E-03 -0.83381204186E-01  0.11950706520E+00  0.51100000000E-03 0.  1.
</event>
<event>
 8    1  0.2824193E+004  0.1043930E+01  0.7957747E-01            NaN
         13   -1    0    0    0    0  0.00000000000E+00  0.00000000000E+00  0.74505805969E-08  0.10566000000E+00  0.10566000000E+00 0.  1.
     999900   -1    0    0    0    0 -0.00000000000E+00 -0.00000000000E+00 -0.74505805969E-08  0.93827000000E+00  0.93827000000E+00 0.  1.
     999902    2    1    2    0    0 -0.14084335941E-01 -0.18217427796E-03  0.21264129070E-02  0.10296848837E+01  0.10295863424E+01 0.  0.
     999903    2    3    3    0    0  0.90815879232E-01 -0.92512778432E-01 -0.16513141439E-01  0.13846300976E+00  0.45751318438E-01 0.  0.
         14    1    1    2    0    0  0.14084335941E-01  0.18217427796E-03 -0.21264129070E-02  0.14245116294E-01  0.00000000000E+00 0.  1.
     999901    1    3    3    0    0 -0.10490021517E+00  0.92330604154E-01  0.18639554346E-01  0.89122187394E+00  0.88000000000E+00 0.  1.
        -11    1    4    4    0    0  0.39770508893E-01 -0.70262646810E-01 -0.13544839038E-02  0.80750409670E-01  0.51100000000E-03 0.  1.
         11    1    4    4    0    0  0.51045370340E-01 -0.22250131622E-01 -0.15158657535E-01  0.57712600094E-01  0.51100000000E-03 0. -1.
</event>
<event>
 8    1  0.2824193E+004  0.1043930E+01  0.7957747E-01            NaN
         13   -1    0    0    0    0  0.00000000000E+00  0.00000000000E+00  0.74505805969E-08  0.10566000000E+00  0.10566000000E+00 0. -1.
     999900   -1    0    0    0    0 -0.00000000000E+00 -0.00000000000E+00 -0.74505805969E-08  0.93827000000E+00  0.93827000000E+00 0. -1.
     999902    2    1    2    0    0  0.12628281998E-01 -0.41399542640E-02  0.67481814923E-02  0.10290252799E+01  0.10289173320E+01 0.  0.
     999903    2    3    3    0    0  0.48866165607E-01 -0.49725213846E-01 -0.11184833830E+00  0.13916218111E+00  0.44671723009E-01 0.  0.
         14    1    1    2    0    0 -0.12628281998E-01  0.41399542640E-02 -0.67481814923E-02  0.14904720091E-01  0.00000000000E+00 0. -1.
     999901    1    3    3    0    0 -0.36237883609E-01  0.45585259582E-01  0.11859651980E+00  0.88986309880E+00  0.88000000000E+00 0.  1.
        -11    1    4    4    0    0  0.36849940956E-01 -0.59168163102E-02 -0.52775474117E-01  0.64640843535E-01  0.51100000000E-03 0.  1.
         11    1    4    4    0    0  0.12016224651E-01 -0.43808397535E-01 -0.59072864187E-01  0.74521337573E-01  0.51100000000E-03 0. -1.
</event>
<event>
 7    1  0.2824193E+004  0.1043930E+01  0.7957747E-01            NaN
         13   -1    0    0    0    0  0.00000000000E+00  0.00000000000E+00  0.74505805969E-08  0.10566000000E+00  0.10566000000E+00 0. -1.
     999900   -1    0    0    0    0 -0.00000000000E+00 -0.00000000000E+00 -0.74505805969E-08  0.93827000000E+00  0.93827000000E+00 0.  1.
     999903    2    1    2    0    0  0.98581029926E-01  0.47920769412E-01 -0.17646252776E-01  0.11981639756E+00  0.45055069471E-01 0.  0.
         14    1    1    2    0    0 -0.34246561519E-02  0.64153460795E-02  0.36399989200E-01  0.37119323119E-01  0.00000000000E+00 0. -1.
     999901    1    1    2    0    0 -0.95156373774E-01 -0.54336115491E-01 -0.18753736424E-01  0.88699427932E+00  0.88000000000E+00 0.  1.
        -11    1    3    3    0    0  0.78073928759E-01  0.24993833717E-01 -0.29098258058E-01  0.86989653515E-01  0.51100000000E-03 0. -1.
         11    1    3    3    0    0  0.20507101168E-01  0.22926935695E-01  0.11452005282E-01  0.32826744045E-01  0.51100000000E-03 0.  1.
</event>
<event>
 8    1  0.2824193E+004  0.1043930E+01  0.7957747E-01            NaN
         13   -1    0    0    0    0  0.00000000000E+00  0.00000000000E+00  0.74505805969E-08  0.10566000000E+00  0.10566000000E+00 0.  1.
     999900   -1    0    0    0    0 -0.00000000000E+00 -0.00000000000E+00 -0.74505805969E-08  0.93827000000E+00  0.93827000000E+00 0. -1.
     999902    2    1    2    0    0  0.60101439090E-02 -0.70170221393E-02  0.12060751253E-01  0.10287371678E+01  0.10286249745E+01 0.  0.
     999903    2    3    3    0    0  0.28041761311E-01  0.12210221193E+00  0.37694390937E-01  0.13867298345E+00  0.45978676534E-01 0.  0.
         14    1    1    2    0    0 -0.60101439090E-02  0.70170221393E-02 -0.12060751253E-01  0.15192832202E-01  0.00000000000E+00 0.  1.
     999901    1    3    3    0    0 -0.22031617402E-01 -0.12911923407E+00 -0.25633639683E-01  0.89006418435E+00  0.88000000000E+00 0. -1.
        -11    1    4    4    0    0  0.17630910953E-01  0.87524677289E-01  0.47660423781E-01  0.10120867192E+00  0.51100000000E-03 0.  1.
         11    1    4    4    0    0  0.10410850358E-01  0.34577534641E-01 -0.99660328441E-02  0.37464311534E-01  0.51100000000E-03 0. -1.
</event>
<event>
 8    1  0.2824193E+004  0.1043930E+01  0.7957747E-01            NaN
         13   -1    0    0    0    0  0.00000000000E+00  0.00000000000E+00  0.74505805969E-08  0.10566000000E+00  0.10566000000E+00 0. -1.
     999900   -1    0    0    0    0 -0.00000000000E+00 -0.00000000000E+00 -0.74505805969E-08  0.93827000000E+00  0.93827000000E+00 0. -1.
     999902    2    1    2    0    0 -0.73945245218E-02 -0.16679941532E-01  0.14299829752E-01  0.10207484433E+01  0.10204851786E+01 0.  0.
     999903    2    3    3    0    0 -0.11565719420E+00  0.69554616904E-02 -0.43526895906E-01  0.13191585601E+00  0.45631539338E-01 0.  0.
         14    1    1    2    0    0  0.73945245218E-02  0.16679941532E-01 -0.14299829752E-01  0.23181556750E-01  0.00000000000E+00 0.  1.
     999901    1    3    3    0    0  0.10826266968E+00 -0.23635403222E-01  0.57826725658E-01  0.88883258724E+00  0.88000000000E+00 0.  1.
        -11    1    4    4    0    0 -0.40673597358E-01 -0.85089459654E-02  0.40821711159E-02  0.41757261950E-01  0.51100000000E-03 0.  1.
         11    1    4    4    0    0 -0.74983596845E-01  0.15464407656E-01 -0.47609067022E-01  0.90158594065E-01  0.51100000000E-03 0. -1.
</event>
<event>
 8    1  0.2824193E+004  0.1043930E+01  0.7957747E-01            NaN
         13   -1    0    0    0    0  0.00000000000E+00  0.00000000000E+00  0.74505805969E-08  0.10566000000E+00  0.10566000000E+00 0.  1.
     999900   -1    0    0    0    0 -0.00000000000E+00 -0.00000000000E+00 -0.74505805969E-08  0.93827000000E+00  0.93827000000E+00 0. -1.
     999902    2    1    2    0    0 -0.80926597061E-03  0.13615282218E-01  0.26490209810E-02  0.10300358238E+01  0.10299421101E+01 0.  0.
     999903    2    3    3    0    0 -0.97140863555E-02 -0.10157345619E+00 -0.81986668380E-01  0.13845804185E+00  0.45136294537E-01 0.  0.
         14    1    1    2    0    0  0.80926597061E-03 -0.13615282218E-01 -0.26490209810E-02  0.13894176242E-01  0.00000000000E+00 0. -1.
     999901    1    3    3    0    0  0.89048203849E-02  0.11518873841E+00  0.84635689361E-01  0.89157778191E+00  0.88000000000E+00 0. -1.
        -11    1    4    4    0    0  0.13885449237E-01 -0.72625021369E-01 -0.59028990210E-01  0.94614387043E-01  0.51100000000E-03 0. -1.
         11    1    4    4    0    0 -0.23599535593E-01 -0.28948434820E-01 -0.22957678170E-01  0.43843654805E-01  0.51100000000E-03 0.  1.
</event>
<event>
 8    1  0.2824193E+004  0.1043930E+01  0.7957747E-01            NaN
         13   -1    0    0    0    0  0.00000000000E+00  0.00000000000E+00  0.74505805969E-08  0.10566000000E+00  0.10566000000E+00 0.  1.
     999900   -1    0    0    0    0 -0.00000000000E+00 -0.00000000000E+00 -0.74505805969E-08  0.93827000000E+00  0.93827000000E+00 0.  1.
     999902    2    1    2    0    0  0.11311251862E-01  0.71882359153E-02  0.80347775334E-03  0.10305038788E+01  0.10304164127E+01 0.  0.
     999903    2    3    3    0    0 -0.12739318368E+00 -0.23046504640E-01 -0.16001881457E-01  0.13896841675E+00  0.47916552677E-01 0.  0.
         14    1    1    2    0    0 -0.11311251862E-01 -0.71882359153E-02 -0.80347775334E-03  0.13426121211E-01  0.00000000000E+00 0. -1.
     999901    1    3    3    0    0  0.13870443554E+00  0.30234740556E-01  0.16805359210E-01  0.89153546204E+00  0.88000000000E+00 0. -1.
        -11    1    4    4    0    0 -0.54076433132E-01  0.12887405827E-01  0.83619006075E-03  0.55599516041E-01  0.51100000000E-03 0. -1.
         11    1    4    4    0    0 -0.73316750545E-01 -0.35933910467E-01 -0.16838071517E-01  0.83368900709E-01  0.51100000000E-03 0.  1.
</event>
<event>
 8    1  0.2824193E+004  0.1043930E+01  0.7957747E-01            NaN
         13   -1    0    0    0    0  0.00000000000E+00  0.00000000000E+00  0.74505805969E-08  0.10566000000E+00  0.10566000000E+00 0. -1.
     999900   -1    0    0    0    0 -0.00000000000E+00 -0.00000000000E+00 -0.74505805969E-08  0.93827000000E+00  0.93827000000E+00 0. -1.
     999902    2    1    2    0    0 -0.20306403964E-02 -0.11245322534E-01  0.70936003148E-02  0.10304800950E+01  0.10303923167E+01 0.  0.
     999903    2    3    3    0    0 -0.11918480504E+00  0.19597630333E-02 -0.58443504977E-01  0.14020228175E+00  0.45079686229E-01 0.  0.
         14    1    1    2    0    0  0.20306403964E-02  0.11245322534E-01 -0.70936003148E-02  0.13449905008E-01  0.00000000000E+00 0.  1.
     999901    1    3    3    0    0  0.11715416464E+00 -0.13205085567E-01  0.65537105291E-01  0.89027781324E+00  0.88000000000E+00 0.  1.
        -11    1    4    4    0    0 -0.96977742381E-01  0.19249875614E-01 -0.50116736278E-01  0.11084759179E+00  0.51100000000E-03 0.  1.
         11    1    4    4    0    0 -0.22207062660E-01 -0.17290112580E-01 -0.83267686985E-02  0.29354689966E-01  0.51100000000E-03 0. -1.
</event>
<event>
 8    1  0.2824193E+004  0.1043930E+01  0.7957747E-01            NaN
         13   -1    0    0    0    0  0.00000000000E+00  0.00000000000E+00  0.74505805969E-08  0.10566000000E+00  0.10566000000E+00 0.  1.
     999900   -1    0    0    0    0 -0.00000000000E+00 -0.00000000000E+00 -0.74505805969E-08  0.93827000000E+00  0.93827000000E+00 0. -1.
     999902    2    1    2    0    0  0.70544916496E-02 -0.10990042988E-01  0.40592774290E-02  0.10302543051E+01  0.10301635349E+01 0.  0.
     999903    2    3    3    0    0  0.70813419882E-02 -0.12349996782E+00 -0.53359314628E-01  0.14123496977E+00  0.42399443075E-01 0.  0.
         14    1    1    2    0    0 -0.70544916496E-02  0.10990042988E-01 -0.40592774290E-02  0.13675694884E-01  0.00000000000E+00 0.  1.
     999901    1    3    3    0    0 -0.26850338670E-04  0.11250992483E+00  0.57418592057E-01  0.88901933535E+00  0.88000000000E+00 0.  1.
        -11    1    4    4    0    0 -0.61692960914E-02 -0.51504365155E-01 -0.21959821841E-02  0.51921510986E-01  0.51100000000E-03 0.  1.
         11    1    4    4    0    0  0.13250638080E-01 -0.71995602662E-01 -0.51163332444E-01  0.89313458784E-01  0.51100000000E-03 0. -1.
</event>
<event>
 8    1  0.2824193E+004  0.1043930E+01  0.7957747E-01            NaN
         13   -1    0    0    0    0  0.00000000000E+00  0.00000000000E+00  0.74505805969E-08  0.10566000000E+00  0.10566000000E+00 0. -1.
     999900   -1    0    0    0    0 -0.00000000000E+00 -0.00000000000E+00 -0.74505805969E-08  0.93827000000E+00  0.93827000000E+00 0.  1.
     999902    2    1    2    0    0 -0.10846852513E-01 -0.63725328672E-02  0.66800194582E-02  0.10296861928E+01  0.10295876697E+01 0.  0.
     999903    2    3    3    0    0  0.46718012253E-01 -0.92531665438E-01  0.83186040117E-01  0.14030984893E+00  0.44969485855E-01 0.  0.
         14    1    1    2    0    0  0.10846852513E-01  0.63725328672E-02 -0.66800194582E-02  0.14243807235E-01  0.00000000000E+00 0. -1.
     999901    1    3    3    0    0 -0.57564864766E-01  0.86159132571E-01 -0.76506020659E-01  0.88937634384E+00  0.88000000000E+00 0.  1.
        -11    1    4    4    0    0  0.13279292615E-02 -0.47266190476E-01  0.47115975238E-01  0.66753519772E-01  0.51100000000E-03 0. -1.
         11    1    4    4    0    0  0.45390082991E-01 -0.45265474962E-01  0.36070064879E-01  0.73556329156E-01  0.51100000000E-03 0.  1.
</event>
<event>
 8    1  0.2824193E+004  0.1043930E+01  0.7957747E-01            NaN
         13   -1    0    0    0    0  0.00000000000E+00  0.00000000000E+00  0.74505805969E-08  0.10566000000E+00  0.10566000000E+00 0.  1.
     999900   -1    0    0    0    0 -0.00000000000E+00 -0.00000000000E+00 -0.74505805969E-08  0.93827000000E+00  0.93827000000E+00 0. -1.
     999902    2    1    2    0    0 -0.86096223070E-02 -0.84412474662E-02 -0.71932318908E-02  0.10298899558E+01  0.10297942505E+01 0.  0.
     999903    2    3    3    0    0  0.86729243841E-01  0.44586108924E-01  0.87426109014E-01  0.13811968295E+00  0.43861594091E-01 0.  0.
         14    1    1    2    0    0  0.86096223070E-02  0.84412474662E-02  0.71932318908E-02  0.14040044163E-01  0.00000000000E+00 0. -1.
     999901    1    3    3    0    0 -0.95338866148E-01 -0.53027356390E-01 -0.94619340904E-01  0.89177027288E+00  0.88000000000E+00 0.  1.
        -11    1    4    4    0    0  0.41422310442E-01  0.45491691831E-01  0.53019581017E-01  0.81219695396E-01  0.51100000000E-03 0.  1.
         11    1    4    4    0    0  0.45306933399E-01 -0.90558290764E-03  0.34406527997E-01  0.56899987559E-01  0.51100000000E-03 0. -1.
</event>
<event>
 8    1  0.2824193E+004  0.1043930E+01  0.7957747E-01            NaN
         13   -1    0    0    0    0  0.00000000000E+00  0.00000000000E+00  0.74505805969E-08  0.10566000000E+00  0.10566000000E+00 0. -1.
     999900   -1    0    0    0    0 -0.00000000000E+00 -0.00000000000E+00 -0.74505805969E-08  0.93827000000E+00  0.93827000000E+00 0.  1.
     999902    2    1    2    0    0 -0.21607371758E-02  0.10985803284E-01 -0.10699390764E-01  0.10284434374E+01  0.10283268305E+01 0.  0.
     999903    2    3    3    0    0  0.22409070548E-01  0.32870927681E-01 -0.12659985002E+00  0.14023425562E+00  0.45337182258E-01 0.  0.
         14    1    1    2    0    0  0.21607371758E-02 -0.10985803284E-01  0.10699390764E-01  0.15486562616E-01  0.00000000000E+00 0. -1.
     999901    1    3    3    0    0 -0.24569807724E-01 -0.21885124397E-01  0.11590045925E+00  0.88820918177E+00  0.88000000000E+00 0. -1.
        -11    1    4    4    0    0 -0.13775954305E-02  0.36073511456E-01 -0.70269163805E-01  0.79001344930E-01  0.51100000000E-03 0. -1.
         11    1    4    4    0    0  0.23786665979E-01 -0.32025837750E-02 -0.56330686210E-01  0.61232910686E-01  0.51100000000E-03 0.  1.
</event>
<event>
 8    1  0.2824193E+004  0.1043930E+01  0.7957747E-01            NaN
         13   -1    0    0    0    0  0.00000000000E+00  0.00000000000E+00  0.74505805969E-08  0.10566000000E+00  0.10566000000E+00 0.  1.
     999900   -1    0    0    0    0 -0.00000000000E+00 -0.00000000000E+00 -0.74505805969E-08  0.93827000000E+00  0.93827000000E+00 0. -1.
     999902    2    1    2    0    0 -0.42491155062E-02  0.97293065559E-02 -0.10206848683E-01  0.10292026734E+01  0.10290972980E+01 0.  0.
     999903    2    3    3    0    0 -0.10661608229E+00 -0.24297787660E-01  0.72852872252E-01  0.13873327119E+00  0.44519749016E-01 0.  0.
         14    1    1    2    0    0  0.42491155062E-02 -0.97293065559E-02  0.10206848683E-01  0.14727326596E-01  0.00000000000E+00 0.  1.
     999901    1    3    3    0    0  0.10236696679E+00  0.34027094215E-01 -0.83059720935E-01  0.89046940221E+00  0.88000000000E+00 0. -1.
        -11    1    4    4    0    0 -0.58713344332E-01 -0.35100352916E-01  0.48948118051E-01  0.84115818722E-01  0.51100000000E-03 0. -1.
         11    1    4    4    0    0 -0.47902737959E-01  0.10802565257E-01  0.23904754201E-01  0.54617452472E-01  0.51100000000E-03 0.  1.
</event>
<event>
 8    1  0.2824193E+004  0.1043930E+01  0.7957747E-01            NaN
         13   -1    0    0    0    0  0.00000000000E+00  0.00000000000E+00  0.74505805969E-08  0.10566000000E+00  0.10566000000E+00 0.  1.
     999900   -1    0    0    0    0 -0.00000000000E+00 -0.00000000000E+00 -0.74505805969E-08  0.93827000000E+00  0.93827000000E+00 0.  1.
     999902    2    1    2    0    0  0.15667060521E-02  0.13958769225E-01  0.34789401104E-02  0.10294591731E+01  0.10293574619E+01 0.  0.
     999903    2    3    3    0    0 -0.30259065475E-01 -0.11474783810E+00  0.54077512246E-01  0.13809028989E+00  0.45407856562E-01 0.  0.
         14    1    1    2    0    0 -0.15667060521E-02 -0.13958769225E-01 -0.34789401104E-02  0.14470826874E-01  0.00000000000E+00 0. -1.
     999901    1    3    3    0    0  0.31825771527E-01  0.12870660733E+00 -0.50598572135E-01  0.89136888324E+00  0.88000000000E+00 0. -1.
        -11    1    4    4    0    0 -0.25427124180E-01 -0.77789431637E-01  0.13425964730E-01  0.82935227547E-01  0.51100000000E-03 0.  1.
         11    1    4    4    0    0 -0.48319412947E-02 -0.36958406468E-01  0.40651547516E-01  0.55155062341E-01  0.51100000000E-03 0. -1.
</event>
<event>
 8    1  0.2824193E+004  0.1043930E+01  0.7957747E-01            NaN
         13   -1    0    0    0    0  0.00000000000E+00  0.00000000000E+00  0.74505805969E-08  0.10566000000E+00  0.10566000000E+00 0.  1.
     999900   -1    0    0    0    0 -0.00000000000E+00 -0.00000000000E+00 -0.74505805969E-08  0.93827000000E+00  0.93827000000E+00 0. -1.
     999902    2    1    2    0    0 -0.21509057995E-02  0.10454409911E-02  0.14431347056E-01  0.10293018381E+01  0.10291978871E+01 0.  0.
     999903    2    3    3    0    0  0.38599306257E-02  0.13162004369E+00 -0.69221400895E-02  0.13939070297E+00  0.45200852705E-01 0.  0.
         14    1    1    2    0    0  0.21509057995E-02 -0.10454409911E-02 -0.14431347056E-01  0.14628161897E-01  0.00000000000E+00 0. -1.
     999901    1    3    3    0    0 -0.60108364252E-02 -0.13057460270E+00  0.21353487146E-01  0.88991113514E+00  0.88000000000E+00 0.  1.
        -11    1    4    4    0    0  0.78378847315E-02  0.69096268605E-01 -0.25456881777E-01  0.74054309281E-01  0.51100000000E-03 0. -1.
         11    1    4    4    0    0 -0.39779541059E-02  0.62523775084E-01  0.18534741688E-01  0.65336393687E-01  0.51100000000E-03 0.  1.
</event>
<event>
 8    1  0.2824193E+004  0.1043930E+01  0.7957747E-01            NaN
         13   -1    0    0    0    0  0.00000000000E+00  0.00000000000E+00  0.74505805969E-08  0.10566000000E+00  0.10566000000E+00 0. -1.
     999900   -1    0    0    0    0 -0.00000000000E+00 -0.00000000000E+00 -0.74505805969E-08  0.93827000000E+00  0.93827000000E+00 0.  1.
     999902    2    1    2    0    0  0.30205383419E-02 -0.50425596900E-02  0.13121515415E-01  0.10295520576E+01  0.10294516570E+01 0.  0.
     999903    2    3    3    0    0 -0.99151554086E-01 -0.43586971913E-01  0.77389689304E-01  0.14047657919E+00  0.44873717161E-01 0.  0.
         14    1    1    2    0    0 -0.30205383419E-02  0.50425596900E-02 -0.13121515415E-01  0.14377942373E-01  0.00000000000E+00 0.  1.
     999901    1    3    3    0    0  0.10217209243E+00  0.38544412223E-01 -0.64268173890E-01  0.88907547844E+00  0.88000000000E+00 0.  1.
        -11    1    4    4    0    0 -0.84436489050E-01 -0.51979524302E-01  0.58615622617E-01  0.11518439115E+00  0.51100000000E-03 0.  1.
         11    1    4    4    0    0 -0.14715065035E-01  0.83925523891E-02  0.18774066687E-01  0.25292188035E-01  0.51100000000E-03 0. -1.
</event>
<event>
 8    1  0.2824193E+004  0.1043930E+01  0.7957747E-01            NaN
         13   -1    0    0    0    0  0.00000000000E+00  0.00000000000E+00  0.74505805969E-08  0.10566000000E+00  0.10566000000E+00 0. -1.
     999900   -1    0    0    0    0 -0.00000000000E+00 -0.00000000000E+00 -0.74505805969E-08  0.93827000000E+00  0.93827000000E+00 0. -1.
     999902    2    1    2    0    0  0.42860825276E-02  0.54193330630E-02  0.12192411111E-01  0.10299159155E+01  0.10298205662E+01 0.  0.
     999903    2    3    3    0    0  0.41484277109E-01 -0.96717992414E-01  0.81333906726E-01  0.14053619611E+00  0.45386151297E-01 0.  0.
         14    1    1    2    0    0 -0.42860825276E-02 -0.54193330630E-02 -0.12192411111E-01  0.14014084451E-01  0.00000000000E+00 0.  1.
     999901    1    3    3    0    0 -0.37198194581E-01  0.10213732548E+00 -0.69141495615E-01  0.88937971944E+00  0.88000000000E+00 0.  1.
        -11    1    4    4    0    0  0.42264681769E-01 -0.67310294576E-01  0.77240707605E-01  0.11083035285E+00  0.51100000000E-03 0. -1.
         11    1    4    4    0    0 -0.78040466087E-03 -0.29407697838E-01  0.40931991217E-02  0.29705843257E-01  0.51100000000E-03 0.  1.
</event>
<event>
 8    1  0.2824193E+004  0.1043930E+01  0.7957747E-01            NaN
         13   -1    0    0    0    0  0.00000000000E+00  0.00000000000E+00  0.74505805969E-08  0.10566000000E+00  0.10566000000E+00 0. -1.
     999900   -1    0    0    0    0 -0.00000000000E+00 -0.00000000000E+00 -0.74505805969E-08  0.93827000000E+00  0.93827000000E+00 0. -1.
     999902    2    1    2    0    0 -0.12604442389E-01 -0.32972979151E-02  0.45570138645E-02  0.10301274453E+01  0.10300349717E+01 0.  0.
     999903    2    3    3    0    0  0.87162973721E-01 -0.74002966921E-01 -0.66088968297E-01  0.13886784015E+00  0.42926707246E-01 0.  0.
         14    1    1    2    0    0  0.12604442389E-01  0.32972979151E-02 -0.45570138645E-02  0.13802554722E-01  0.00000000000E+00 0. -1.
     999901    1    3    3    0    0 -0.99767416110E-01  0.70705669006E-01  0.70645982162E-01  0.89125960513E+00  0.88000000000E+00 0. -1.
        -11    1    4    4    0    0  0.19312554662E-01 -0.41531133411E-01 -0.34207878054E-01  0.57168608973E-01  0.51100000000E-03 0.  1.
         11    1    4    4    0    0  0.67850419059E-01 -0.32471833511E-01 -0.31881090243E-01  0.81699231172E-01  0.51100000000E-03 0. -1.
</event>
<event>
 8    1  0.2824193E+004  0.1043930E+01  0.7957747E-01            NaN
         13   -1    0    0    0    0  0.00000000000E+00  0.00000000000E+00  0.74505805969E-08  0.10566000000E+00  0.10566000000E+00 0.  1.
     999900   -1    0    0    0    0 -0.00000000000E+00 -0.00000000000E+00 -0.74505805969E-08  0.93827000000E+00  0.93827000000E+00 0. -1.
     999902    2    1    2    0    0  0.80922715496E-02  0.79423592228E-02 -0.69136822151E-02  0.10306497541E+01  0.10305641905E+01 0.  0.
     999903    2    3    3    0    0  0.77536394625E-01  0.65351174133E-01 -0.88886100552E-01  0.14225922309E+00  0.45324157250E-01 0.  0.
         14    1    1    2    0    0 -0.80922715496E-02 -0.79423592228E-02  0.69136822151E-02  0.13280245880E-01  0.00000000000E+00 0.  1.
     999901    1    3    3    0    0 -0.69444123075E-01 -0.57408814910E-01  0.81972418337E-01  0.88839053103E+00  0.88000000000E+00 0. -1.
        -11    1    4    4    0    0  0.64831485707E-01  0.36033817207E-01 -0.41178560280E-01  0.84838036689E-01  0.51100000000E-03 0. -1.
         11    1    4    4    0    0  0.12704908917E-01  0.29317356925E-01 -0.47707540272E-01  0.57421186399E-01  0.51100000000E-03 0.  1.
</event>
<event>
 8    1  0.2824193E+004  0.1043930E+01  0.7957747E-01            NaN
         13   -1    0    0    0    0  0.00000000000E+00  0.00000000000E+00  0.74505805969E-08  0.10566000000E+00  0.10566000000E+00 0.  1.
     999900   -1    0    0    0    0 -0.00000000000E+00 -0.00000000000E+00 -0.74505805969E-08  0.93827000000E+00  0.93827000000E+00 0.  1.
     999902    2    1    2    0    0  0.28050105473E-03 -0.12614472528E-01 -0.50993544906E-02  0.10303209216E+01  0.10302310394E+01 0.  0.
     999903    2    3    3    0    0 -0.41739525275E-01 -0.10572527057E+00 -0.72377594940E-01  0.14186064397E+00  0.44338530117E-01 0.  0.
         14    1    1    2    0    0 -0.28050105473E-03  0.12614472528E-01  0.50993544906E-02  0.13609078375E-01  0.00000000000E+00 0.  1.
     999901    1    3    3    0    0  0.42020026330E-01  0.93110798040E-01  0.67278240449E-01  0.88846027765E+00  0.88000000000E+00 0. -1.
        -11    1    4    4    0    0 -0.38859880279E-01 -0.64751716285E-01 -0.25911761121E-01  0.79840813764E-01  0.51100000000E-03 0. -1.
         11    1    4    4    0    0 -0.28796449962E-02 -0.40973554283E-01 -0.46465833819E-01  0.62019830211E-01  0.51100000000E-03 0.  1.
</event>
<event>
 8    1  0.2824193E+004  0.1043930E+01  0.7957747E-01            NaN
         13   -1    0    0    0    0  0.00000000000E+00  0.00000000000E+00  0.74505805969E-08  0.10566000000E+00  0.10566000000E+00 0.  1.
     999900   -1    0    0    0    0 -0.00000000000E+00 -0.00000000000E+00 -0.74505805969E-08  0.93827000000E+00  0.93827000000E+00 0. -1.
     999902    2    1    2    0    0  0.61190349801E-02  0.12223375416E-01 -0.10338577272E-02  0.10302215224E+01  0.10301303136E+01 0.  0.
     999903    2    3    3    0    0 -0.98258568644E-01  0.42904909311E-01 -0.77477622632E-01  0.14023293269E+00  0.46550143369E-01 0.  0.
         14    1    1    2    0    0 -0.61190349801E-02 -0.12223375416E-01  0.10338577272E-02  0.13708477576E-01  0.00000000000E+00 0.  1.
     999901    1    3    3    0    0  0.10437760362E+00 -0.30681533894E-01  0.76443764904E-01  0.88998858973E+00  0.88000000000E+00 0.  1.
        -11    1    4    4    0    0 -0.60212034899E-01  0.27163491315E-01 -0.19043694338E-01  0.68747856855E-01  0.51100000000E-03 0.  1.
         11    1    4    4    0    0 -0.38046533746E-01  0.15741417995E-01 -0.58433928294E-01  0.71485075837E-01  0.51100000000E-03 0. -1.
</event>
<event>
 8    1  0.2824193E+004  0.1043930E+01  0.7957747E-01            NaN
         13   -1    0    0    0    0  0.00000000000E+00  0.00000000000E+00  0.74505805969E-08  0.10566000000E+00  0.10566000000E+00 0. -1.
     999900   -1    0    0    0    0 -0.00000000000E+00 -0.00000000000E+00 -0.74505805969E-08  0.93827000000E+00  0.93827000000E+00 0. -1.
     999902    2    1    2    0    0  0.46802663941E-02  0.50949874307E-02  0.17916357167E-01  0.10247242809E+01  0.10245442852E+01 0.  0.
     999903    2    3    3    0    0 -0.44245312920E-01  0.11997623662E+00  0.10164389486E-01  0.13587586488E+00  0.44799450617E-01 0.  0.
         14    1    1    2    0    0 -0.46802663941E-02 -0.50949874307E-02 -0.17916357167E-01  0.19205719059E-01  0.00000000000E+00 0.  1.
     999901    1    3    3    0    0  0.48925579314E-01 -0.11488124919E+00  0.77519676812E-02  0.88884841606E+00  0.88000000000E+00 0. -1.
        -11    1    4    4    0    0 -0.48446882647E-01  0.69775456053E-01  0.96605308297E-02  0.85494454104E-01  0.51100000000E-03 0.  1.
         11    1    4    4    0    0  0.42015697270E-02  0.50200780565E-01  0.50385865645E-03  0.50381410778E-01  0.51100000000E-03 0. -1.
</event>
<event>
 8    1  0.2824193E+004  0.1043930E+01  0.7957747E-01            NaN
         13   -1    0    0    0    0  0.00000000000E+00  0.00000000000E+00  0.74505805969E-08  0.10566000000E+00  0.10566000000E+00 0.  1.
     999900   -1    0    0    0    0 -0.00000000000E+00 -0.00000000000E+00 -0.74505805969E-08  0.93827000000E+00  0.93827000000E+00 0. -1.
     999902    2    1    2    0    0 -0.10136545102E-01 -0.55410129312E-02  0.74986852395E-02  0.10301574675E+01  0.10300653985E+01 0.  0.
     999903    2    3    3    0    0  0.58235364770E-01  0.10913850199E+00 -0.43997833548E-01  0.13859815897E+00  0.44396733944E-01 0.  0.
         14    1    1    2    0    0  0.10136545102E-01  0.55410129312E-02 -0.74986852395E-02  0.13772532492E-01  0.00000000000E+00 0.  1.
     999901    1    3    3    0    0 -0.68371909872E-01 -0.11467951492E+00  0.51496518788E-01  0.89155930854E+00  0.88000000000E+00 0.  1.
        -11    1    4    4    0    0  0.28145482893E-01  0.20982293559E-01  0.10514624920E-02  0.35125368961E-01  0.51100000000E-03 0. -1.
         11    1    4    4    0    0  0.30089881876E-01  0.88156208433E-01 -0.45049296040E-01  0.10347279000E+00  0.51100000000E-03 0.  1.
</event>
<event>
 8    1  0.2824193E+004  0.1043930E+01  0.7957747E-01            NaN
         13   -1    0    0    0    0  0.00000000000E+00  0.00000000000E+00  0.74505805969E-08  0.10566000000E+00  0.10566000000E+00 0.  1.
     999900   -1    0    0    0    0 -0.00000000000E+00 -0.00000000000E+00 -0.74505805969E-08  0.93827000000E+00  0.93827000000E+00 0. -1.
     999902    2    1    2    0    0 -0.28439888440E-02  0.64535727748E-02 -0.10781647388E-01  0.10310466466E+01  0.10309661521E+01 0.  0.
     999903    2    3    3    0    0  0.67184041244E-01  0.11604757158E+00 -0.20206407347E-02  0.14144475542E+00  0.44964447956E-01 0.  0.
         14    1    1    2    0    0  0.28439888440E-02 -0.64535727748E-02  0.10781647388E-01  0.12883353387E-01  0.00000000000E+00 0.  1.
     999901    1    3    3    0    0 -0.70028030088E-01 -0.10959399881E+00 -0.87610066532E-02  0.88960189119E+00  0.88000000000E+00 0.  1.
        -11    1    4    4    0    0  0.46453523589E-01  0.37153014841E-01 -0.59053311410E-02  0.59778009522E-01  0.51100000000E-03 0. -1.
         11    1    4    4    0    0  0.20730517655E-01  0.78894556739E-01  0.38846904063E-02  0.81666745900E-01  0.51100000000E-03 0.  1.
</event>
<event>
 8    1  0.2824193E+004  0.1043930E+01  0.7957747E-01            NaN
         13   -1    0    0    0    0  0.00000000000E+00  0.00000000000E+00  0.74505805969E-08  0.10566000000E+00  0.10566000000E+00 0.  1.
     999900   -1    0    0    0    0 -0.00000000000E+00 -0.00000000000E+00 -0.74505805969E-08  0.93827000000E+00  0.93827000000E+00 0. -1.
     999902    2    1    2    0    0  0.79888531029E-02 -0.23552590117E-01  0.73741572055E-02  0.10179892122E+01  0.10176586421E+01 0.  0.
     999903    2    3    3    0    0  0.97137239286E-01  0.56076896434E-01  0.45729746936E-01  0.12908008238E+00  0.44611616674E-01 0.  0.
         14    1    1    2    0    0 -0.79888531029E-02  0.23552590117E-01 -0.73741572055E-02  0.25940787760E-01  0.00000000000E+00 0. -1.
     999901    1    3    3    0    0 -0.89148386183E-01 -0.79629486551E-01 -0.38355589730E-01  0.88890912986E+00  0.88000000000E+00 0.  1.
        -11    1    4    4    0    0  0.47102958041E-01  0.39700270647E-02  0.27041633266E-01  0.54460635525E-01  0.51100000000E-03 0.  1.
         11    1    4    4    0    0  0.50034281245E-01  0.52106869370E-01  0.18688113670E-01  0.74619446853E-01  0.51100000000E-03 0. -1.
</event>
<event>
 8    1  0.2824193E+004  0.1043930E+01  0.7957747E-01            NaN
         13   -1    0    0    0    0  0.00000000000E+00  0.00000000000E+00  0.74505805969E-08  0.10566000000E+00  0.10566000000E+00 0. -1.
     999900   -1    0    0    0    0 -0.00000000000E+00 -0.00000000000E+00 -0.74505805969E-08  0.93827000000E+00  0.93827000000E+00 0. -1.
     999902    2    1    2    0    0 -0.42795836407E-02  0.10288797783E-01 -0.12137256185E-01  0.10274531319E+01  0.10273210068E+01 0.  0.
     999903    2    3    3    0    0 -0.50425752143E-01 -0.49955926259E-01  0.10714620504E+00  0.13616897977E+00  0.44981448968E-01 0.  0.
         14    1    1    2    0    0  0.42795836407E-02 -0.10288797783E-01  0.12137256185E-01  0.16476868138E-01  0.00000000000E+00 0. -1.
     999901    1    3    3    0    0  0.46146168502E-01  0.60244724042E-01 -0.11928346122E+00  0.89128415209E+00  0.88000000000E+00 0. -1.
        -11    1    4    4    0    0 -0.26598449760E-01 -0.33597970335E-01  0.96102394155E-01  0.10522467592E+00  0.51100000000E-03 0. -1.
         11    1    4    4    0    0 -0.23827302383E-01 -0.16357955924E-01  0.11043810882E-01  0.30944303849E-01  0.51100000000E-03 0.  1.
</event>
<event>
 8    1  0.2824193E+004  0.1043930E+01  0.7957747E-01            NaN
         13   -1    0    0    0    0  0.00000000000E+00  0.00000000000E+00  0.74505805969E-08  0.10566000000E+00  0.10566000000E+00 0. -1.
     999900   -1    0    0    0    0 -0.00000000000E+00 -0.00000000000E+00 -0.74505805969E-08  0.93827000000E+00  0.93827000000E+00 0.  1.
     999902    2    1    2    0    0 -0.78339032951E-02 -0.18336329341E-01  0.10872259904E-01  0.10212188342E+01  0.10209662631E+01 0.  0.
     999903    2    3    3    0    0  0.52531319658E-01 -0.55212442579E-01 -0.97664724848E-01  0.13173354211E+00  0.44803730604E-01 0.  0.
         14    1    1    2    0    0  0.78339032951E-02  0.18336329341E-01 -0.10872259904E-01  0.22711165755E-01  0.00000000000E+00 0.  1.
     999901    1    3    3    0    0 -0.60365222953E-01  0.36876113238E-01  0.10853698475E+00  0.88948529214E+00  0.88000000000E+00 0. -1.
        -11    1    4    4    0    0  0.39550041060E-01 -0.20417510048E-01 -0.77750087133E-01  0.89590276451E-01  0.51100000000E-03 0.  1.
         11    1    4    4    0    0  0.12981278598E-01 -0.34794932531E-01 -0.19914637715E-01  0.42143265657E-01  0.51100000000E-03 0. -1.
</event>
<event>
 7    1  0.2824193E+004  0.1043930E+01  0.7957747E-01            NaN
         13   -1    0    0    0    0  0.00000000000E+00  0.00000000000E+00  0.74505805969E-08  0.10566000000E+00  0.10566000000E+00 0.  1.
     999900   -1    0    0    0    0 -0.00000000000E+00 -0.00000000000E+00 -0.74505805969E-08  0.93827000000E+00  0.93827000000E+00 0.  1.
     999903    2    1    2    0    0 -0.48843474716E-01 -0.83330743989E-01 -0.28101348197E-01  0.11022694942E+00  0.45062142568E-01 0.  0.
         14    1    1    2    0    0 -0.64328904948E-02  0.13763548405E-01 -0.43752024420E-01  0.46314759911E-01  0.00000000000E+00 0. -1.
     999901    1    1    2    0    0  0.55276365210E-01  0.69567195584E-01  0.71853372617E-01  0.88738829066E+00  0.88000000000E+00 0. -1.
        -11    1    3    3    0    0 -0.47966102088E-01 -0.61276985593E-01 -0.37316100998E-01  0.86303930545E-01  0.51100000000E-03 0. -1.
         11    1    3    3    0    0 -0.87737262802E-03 -0.22053758395E-01  0.92147528007E-02  0.23923018879E-01  0.51100000000E-03 0.  1.
</event>
<event>
 8    1  0.2824193E+004  0.1043930E+01  0.7957747E-01            NaN
         13   -1    0    0    0    0  0.00000000000E+00  0.00000000000E+00  0.74505805969E-08  0.10566000000E+00  0.10566000000E+00 0.  1.
     999900   -1    0    0    0    0 -0.00000000000E+00 -0.00000000000E+00 -0.74505805969E-08  0.93827000000E+00  0.93827000000E+00 0.  1.
     999902    2    1    2    0    0  0.61955289788E-02  0.12226306100E-01 -0.29617858029E-02  0.10299071859E+01  0.10298117169E+01 0.  0.
     999903    2    3    3    0    0 -0.35533531742E-01  0.50971164022E-01 -0.11746070793E+00  0.14066454090E+00  0.46138960961E-01 0.  0.
         14    1    1    2    0    0 -0.61955289788E-02 -0.12226306100E-01  0.29617858029E-02  0.14022814102E-01  0.00000000000E+00 0. -1.
     999901    1    3    3    0    0  0.41729060721E-01 -0.38744857922E-01  0.11449892212E+00  0.88924264500E+00  0.88000000000E+00 0. -1.
        -11    1    4    4    0    0  0.46915318221E-02  0.31224203129E-01 -0.59916970554E-01  0.67729357100E-01  0.51100000000E-03 0.  1.
         11    1    4    4    0    0 -0.40225063564E-01  0.19746960893E-01 -0.57543737374E-01  0.72935183795E-01  0.51100000000E-03 0. -1.
</event>
<event>
 8    1  0.2824193E+004  0.1043930E+01  0.7957747E-01            NaN
         13   -1    0    0    0    0  0.00000000000E+00  0.00000000000E+00  0.74505805969E-08  0.10566000000E+00  0.10566000000E+00 0. -1.
     999900   -1    0    0    0    0 -0.00000000000E+00 -0.00000000000E+00 -0.74505805969E-08  0.93827000000E+00  0.93827000000E+00 0.  1.
     999902    2    1    2    0    0 -0.94059767024E-02 -0.10538404307E-02 -0.10423618552E-01  0.10298504119E+01  0.10297541629E+01 0.  0.
     999903    2    3    3    0    0 -0.95072204148E-02 -0.61008392157E-01 -0.11890554933E+00  0.14116436619E+00  0.44457141917E-01 0.  0.
         14    1    1    2    0    0  0.94059767024E-02  0.10538404307E-02  0.10423618552E-01  0.14079588101E-01  0.00000000000E+00 0. -1.
     999901    1    3    3    0    0  0.10124371240E-03  0.59954551726E-01  0.10848193078E+00  0.88868604570E+00  0.88000000000E+00 0. -1.
        -11    1    4    4    0    0 -0.10434004566E-01 -0.48654303613E-01 -0.47853764113E-01  0.69038783101E-01  0.51100000000E-03 0.  1.
         11    1    4    4    0    0  0.92678415117E-03 -0.12354088544E-01 -0.71051785220E-01  0.72125583094E-01  0.51100000000E-03 0. -1.
</event>
<event>
 7    1  0.2824193E+004  0.1043930E+01  0.7957747E-01            NaN
         13   -1    0    0    0    0  0.00000000000E+00  0.00000000000E+00  0.74505805969E-08  0.10566000000E+00  0.10566000000E+00 0. -1.
     999900   -1    0    0    0    0 -0.00000000000E+00 -0.00000000000E+00 -0.74505805969E-08  0.93827000000E+00  0.93827000000E+00 0. -1.
     999903    2    1    2    0    0 -0.13094478420E-01  0.87636539208E-01  0.43342716861E-01  0.10840312246E+00  0.44955728046E-01 0.  0.
         14    1    1    2    0    0 -0.35721016036E-01  0.30267205543E-03  0.30162057165E-01  0.46752885359E-01  0.00000000000E+00 0. -1.
     999901    1    1    2    0    0  0.48815494456E-01 -0.87939211263E-01 -0.73504774026E-01  0.88877399218E+00  0.88000000000E+00 0. -1.
        -11    1    3    3    0    0 -0.23886643285E-01  0.49913771652E-01  0.41410289339E-01  0.69116058279E-01  0.51100000000E-03 0.  1.
         11    1    3    3    0    0  0.10792164866E-01  0.37722767556E-01  0.19324275220E-02  0.39287064178E-01  0.51100000000E-03 0. -1.
</event>
<event>
 8    1  0.2824193E+004  0.1043930E+01  0.7957747E-01            NaN
         13   -1    0    0    0    0  0.00000000000E+00  0.00000000000E+00  0.74505805969E-08  0.10566000000E+00  0.10566000000E+00 0.  1.
     999900   -1    0    0    0    0 -0.00000000000E+00 -0.00000000000E+00 -0.74505805969E-08  0.93827000000E+00  0.93827000000E+00 0. -1.
     999902    2    1    2    0    0  0.12781075643E-01  0.29815445263E-02 -0.50815421072E-02  0.10298563518E+01  0.10297601846E+01 0.  0.
     999903    2    3    3    0    0  0.10597555369E+00 -0.76561787123E-01 -0.77976365041E-02  0.14136339772E+00  0.53200393343E-01 0.  0.
         14    1    1    2    0    0 -0.12781075643E-01 -0.29815445263E-02  0.50815421072E-02  0.14073648161E-01  0.00000000000E+00 0.  1.
     999901    1    3    3    0    0 -0.93194478051E-01  0.79543331649E-01  0.27160943969E-02  0.88849295412E+00  0.88000000000E+00 0.  1.
        -11    1    4    4    0    0  0.28550562450E-01  0.13454947253E-02 -0.12995933478E-01  0.31402235275E-01  0.51100000000E-03 0. -1.
         11    1    4    4    0    0  0.77424991244E-01 -0.77907281848E-01  0.51982969735E-02  0.10996116245E+00  0.51100000000E-03 0.  1.
</event>
<event>
 7    1  0.2824193E+004  0.1043930E+01  0.7957747E-01            NaN
         13   -1    0    0    0    0  0.00000000000E+00  0.00000000000E+00  0.74505805969E-08  0.10566000000E+00  0.10566000000E+00 0. -1.
     999900   -1    0    0    0    0 -0.00000000000E+00 -0.00000000000E+00 -0.74505805969E-08  0.93827000000E+00  0.93827000000E+00 0. -1.
     999903    2    1    2    0    0  0.53979944246E-01  0.42621222011E-01 -0.92373247114E-01  0.12357482608E+00  0.44805333520E-01 0.  0.
         14    1    1    2    0    0  0.24279574373E-02  0.68054245697E-02 -0.28074706897E-01  0.28989617939E-01  0.00000000000E+00 0.  1.
     999901    1    1    2    0    0 -0.56407901683E-01 -0.49426646581E-01  0.12044795401E+00  0.89136555598E+00  0.88000000000E+00 0.  1.
        -11    1    3    3    0    0  0.48776076257E-01  0.25697561454E-01 -0.39526583302E-01  0.67838648190E-01  0.51100000000E-03 0. -1.
         11    1    3    3    0    0  0.52038679888E-02  0.16923660557E-01 -0.52846663812E-01  0.55736177890E-01  0.51100000000E-03 0.  1.
</event>
<event>
 8    1  0.2824193E+004  0.1043930E+01  0.7957747E-01            NaN
         13   -1    0    0    0    0  0.00000000000E+00  0.00000000000E+00  0.74505805969E-08  0.10566000000E+00  0.10566000000E+00 0. -1.
     999900   -1    0    0    0    0 -0.00000000000E+00 -0.00000000000E+00 -0.74505805969E-08  0.93827000000E+00  0.93827000000E+00 0. -1.
     999902    2    1    2    0    0 -0.98848268782E-02 -0.52249152637E-02 -0.90630362282E-02  0.10295373572E+01  0.10294367497E+01 0.  0.
     999903    2    3    3    0    0  0.11674972768E-01  0.12611848829E+00 -0.35453163924E-01  0.13913724854E+00  0.45387983212E-01 0.  0.
         14    1    1    2    0    0  0.98848268782E-02  0.52249152637E-02  0.90630362282E-02  0.14392642829E-01  0.00000000000E+00 0. -1.
     999901    1    3    3    0    0 -0.21559799646E-01 -0.13134340355E+00  0.26390127696E-01  0.89040010864E+00  0.88000000000E+00 0. -1.
        -11    1    4    4    0    0 -0.96237765904E-02  0.85661245247E-01 -0.35982374440E-01  0.93410162212E-01  0.51100000000E-03 0.  1.
         11    1    4    4    0    0  0.21298749358E-01  0.40457243044E-01  0.52921051568E-03  0.45727086324E-01  0.51100000000E-03 0. -1.
</event>
<event>
 8    1  0.2824193E+004  0.1043930E+01  0.7957747E-01            NaN
         13   -1    0    0    0    0  0.00000000000E+00  0.00000000000E+00  0.74505805969E-08  0.10566000000E+00  0.10566000000E+00 0. -1.
     999900   -1    0    0    0    0 -0.00000000000E+00 -0.00000000000E+00 -0.74505805969E-08  0.93827000000E+00  0.93827000000E+00 0. -1.
     999902    2    1    2    0    0 -0.43524764281E-02  0.83213768960E-02  0.96573401776E-02  0.10304595292E+01  0.10303714804E+01 0.  0.
     999903    2    3    3    0    0 -0.53724711596E-01 -0.12021737633E+00  0.11856092870E-01  0.13974932761E+00  0.45285156735E-01 0.  0.
         14    1    1    2    0    0  0.43524764281E-02 -0.83213768960E-02 -0.96573401776E-02  0.13470470809E-01  0.00000000000E+00 0.  1.
     999901    1    3    3    0    0  0.49372235168E-01  0.12853875323E+00 -0.21987526922E-02  0.89071020158E+00  0.88000000000E+00 0. -1.
        -11    1    4    4    0    0 -0.43401721916E-01 -0.49793243688E-01 -0.61125417832E-02  0.66337778606E-01  0.51100000000E-03 0.  1.
         11    1    4    4    0    0 -0.10322989680E-01 -0.70424132646E-01  0.17968634653E-01  0.73411549004E-01  0.51100000000E-03 0. -1.
</event>
<event>
 8    1  0.2824193E+004  0.1043930E+01  0.7957747E-01            NaN
         13   -1    0    0    0    0  0.00000000000E+00  0.00000000000E+00  0.74505805969E-08  0.10566000000E+00  0.10566000000E+00 0.  1.
     999900   -1    0    0    0    0 -0.00000000000E+00 -0.00000000000E+00 -0.74505805969E-08  0.93827000000E+00  0.93827000000E+00 0. -1.
     999902    2    1    2    0    0 -0.10995234461E-01  0.46460080169E-02  0.86333747719E-02  0.10291985462E+01  0.10290931113E+01 0.  0.
     999903    2    3    3    0    0  0.12162921654E+00 -0.10310991970E-01  0.46621401592E-01  0.13832479137E+00  0.45389535684E-01 0.  0.
         14    1    1    2    0    0  0.10995234461E-01 -0.46460080169E-02 -0.86333747719E-02  0.14731453808E-01  0.00000000000E+00 0. -1.
     999901    1    3    3    0    0 -0.13262445100E+00  0.14956999987E-01 -0.37988026820E-01  0.89087375482E+00  0.88000000000E+00 0.  1.
        -11    1    4    4    0    0  0.95493898894E-01 -0.13247453569E-01  0.15619231095E-01  0.97666786847E-01  0.51100000000E-03 0. -1.
         11    1    4    4    0    0  0.26135317644E-01  0.29364615984E-02  0.31002170498E-01  0.40658004521E-01  0.51100000000E-03 0.  1.
</event>
<event>
 8    1  0.2824193E+004  0.1043930E+01  0.7957747E-01            NaN
         13   -1    0    0    0    0  0.00000000000E+00  0.00000000000E+00  0.74505805969E-08  0.10566000000E+00  0.10566000000E+00 0. -1.
     999900   -1    0    0    0    0 -0.00000000000E+00 -0.00000000000E+00 -0.74505805969E-08  0.93827000000E+00  0.93827000000E+00 0. -1.
     999902    2    1    2    0    0  0.77578365714E-02  0.11274753057E-01 -0.24135055943E-02  0.10300329106E+01  0.10299391573E+01 0.  0.
     999903    2    3    3    0    0 -0.40209990798E-01 -0.61220512608E-03 -0.12639246415E+00  0.13996943285E+00  0.44712067556E-01 0.  0.
         14    1    1    2    0    0 -0.77578365714E-02 -0.11274753057E-01  0.24135055943E-02  0.13897089408E-01  0.00000000000E+00 0.  1.
     999901    1    3    3    0    0  0.47967827369E-01  0.11886958183E-01  0.12397895855E+00  0.89006347774E+00  0.88000000000E+00 0.  1.
        -11    1    4    4    0    0 -0.13223430353E-01 -0.52311048528E-02 -0.43313334987E-02  0.14874311384E-01  0.51100000000E-03 0. -1.
         11    1    4    4    0    0 -0.26986560445E-01  0.46188997268E-02 -0.12206113065E+00  0.12509512147E+00  0.51100000000E-03 0.  1.
</event>
<event>
 8    1  0.2824193E+004  0.1043930E+01  0.7957747E-01            NaN
         13   -1    0    0    0    0  0.00000000000E+00  0.00000000000E+00  0.74505805969E-08  0.10566000000E+00  0.10566000000E+00 0.  1.
     999900   -1    0    0    0    0 -0.00000000000E+00 -0.00000000000E+00 -0.74505805969E-08  0.93827000000E+00  0.93827000000E+00 0.  1.
     999902    2    1    2    0    0 -0.13867614457E-01 -0.21098319853E-02  0.94462136211E-02  0.10270186703E+01  0.10268794262E+01 0.  0.
     999903    2    3    3    0    0  0.96979484040E-02  0.89327778152E-01  0.93124393889E-01  0.13802023936E+00  0.47999287306E-01 0.  0.
         14    1    1    2    0    0  0.13867614457E-01  0.21098319853E-02 -0.94462136211E-02  0.16911329738E-01  0.00000000000E+00 0. -1.
     999901    1    3    3    0    0 -0.23565562861E-01 -0.91437610137E-01 -0.83678180268E-01  0.88899843091E+00  0.88000000000E+00 0.  1.
        -11    1    4    4    0    0  0.44539009233E-02  0.93733987885E-01  0.91269723108E-01  0.13090577220E+00  0.51100000000E-03 0. -1.
         11    1    4    4    0    0  0.52440474807E-02 -0.44062097334E-02  0.18546707815E-02  0.71144671552E-02  0.51100000000E-03 0.  1.
</event>
<event>
 8    1  0.2824193E+004  0.1043930E+01  0.7957747E-01            NaN
         13   -1    0    0    0    0  0.00000000000E+00  0.00000000000E+00  0.74505805969E-08  0.10566000000E+00  0.10566000000E+00 0.  1.
     999900   -1    0    0    0    0 -0.00000000000E+00 -0.00000000000E+00 -0.74505805969E-08  0.93827000000E+00  0.93827000000E+00 0. -1.
     999902    2    1    2    0    0 -0.15694178226E-02  0.71608818580E-02 -0.12846698095E-01  0.10291388218E+01  0.10290325240E+01 0.  0.
     999903    2    3    3    0    0  0.11933467836E+00  0.50428208610E-01  0.23325881310E-01  0.13908358892E+00  0.44904100968E-01 0.  0.
         14    1    1    2    0    0  0.15694178226E-02 -0.71608818580E-02  0.12846698095E-01  0.14791178223E-01  0.00000000000E+00 0.  1.
     999901    1    3    3    0    0 -0.12090409619E+00 -0.43267326752E-01 -0.36172579406E-01  0.89005523286E+00  0.88000000000E+00 0.  1.
        -11    1    4    4    0    0  0.53288509400E-01  0.12849518392E-01  0.30540635167E-01  0.62751628460E-01  0.51100000000E-03 0.  1.
         11    1    4    4    0    0  0.66046168963E-01  0.37578690217E-01 -0.72147538563E-02  0.76331960458E-01  0.51100000000E-03 0. -1.
</event>
<event>
 8    1  0.2824193E+004  0.1043930E+01  0.7957747E-01            NaN
         13   -1    0    0    0    0  0.00000000000E+00  0.00000000000E+00  0.74505805969E-08  0.10566000000E+00  0.10566000000E+00 0.  1.
     999900   -1    0    0    0    0 -0.00000000000E+00 -0.00000000000E+00 -0.74505805969E-08  0.93827000000E+00  0.93827000000E+00 0. -1.
     999902    2    1    2    0    0  0.11128863672E-01  0.53577774745E-02 -0.10647529186E-01  0.10276227236E+01  0.10274933259E+01 0.  0.
     999903    2    3    3    0    0  0.37031771801E-01  0.23410374862E-01 -0.12451501741E+00  0.13972483431E+00  0.45821850546E-01 0.  0.
         14    1    1    2    0    0 -0.11128863672E-01 -0.53577774745E-02  0.10647529186E-01  0.16307276408E-01  0.00000000000E+00 0.  1.
     999901    1    3    3    0    0 -0.25902908129E-01 -0.18052597387E-01  0.11386748822E+00  0.88789788928E+00  0.88000000000E+00 0.  1.
        -11    1    4    4    0    0  0.34653908482E-01  0.27994185409E-01 -0.58632595173E-01  0.73638374015E-01  0.51100000000E-03 0. -1.
         11    1    4    4    0    0  0.23778633188E-02 -0.45838105468E-02 -0.65882422237E-01  0.66086460292E-01  0.51100000000E-03 0.  1.
</event>
<event>
 8    1  0.2824193E+004  0.1043930E+01  0.7957747E-01            NaN
         13   -1    0    0    0    0  0.00000000000E+00  0.00000000000E+00  0.74505805969E-08  0.10566000000E+00  0.10566000000E+00 0.  1.
     999900   -1    0    0    0    0 -0.00000000000E+00 -0.00000000000E+00 -0.74505805969E-08  0.93827000000E+00  0.93827000000E+00 0.  1.
     999902    2    1    2    0    0 -0.47976163864E-02 -0.11984987973E-01  0.56004138653E-02  0.10298579818E+01  0.10297618371E+01 0.  0.
     999903    2    3    3    0    0 -0.18307914260E-01  0.41666586747E-01  0.12468026693E+00  0.14011586694E+00  0.44899922400E-01 0.  0.
         14    1    1    2    0    0  0.47976163864E-02  0.11984987973E-01 -0.56004138653E-02  0.14072018162E-01  0.00000000000E+00 0. -1.
     999901    1    3    3    0    0  0.13510297874E-01 -0.53651574720E-01 -0.11907985306E+00  0.88974211490E+00  0.88000000000E+00 0.  1.
        -11    1    4    4    0    0  0.63027291830E-02  0.61236910611E-03  0.56233905724E-01  0.56591630698E-01  0.51100000000E-03 0. -1.
         11    1    4    4    0    0 -0.24610643443E-01  0.41054217641E-01  0.68446361203E-01  0.83524236241E-01  0.51100000000E-03 0.  1.
</event>
<event>
 8    1  0.2824193E+004  0.1043930E+01  0.7957747E-01            NaN
         13   -1    0    0    0    0  0.00000000000E+00  0.00000000000E+00  0.74505805969E-08  0.10566000000E+00  0.10566000000E+00 0. -1.
     999900   -1    0    0    0    0 -0.00000000000E+00 -0.00000000000E+00 -0.74505805969E-08  0.93827000000E+00  0.93827000000E+00 0.  1.
     999902    2    1    2    0    0  0.45260395513E-02  0.11692479763E-01  0.55638324806E-02  0.10302130270E+01  0.10301217043E+01 0.  0.
     999903    2    3    3    0    0  0.11372411288E+00  0.65762932974E-01 -0.28899177124E-01  0.14114861302E+00  0.42776527635E-01 0.  0.
         14    1    1    2    0    0 -0.45260395513E-02 -0.11692479763E-01 -0.55638324806E-02  0.13716973022E-01  0.00000000000E+00 0. -1.
     999901    1    3    3    0    0 -0.10919807333E+00 -0.54070453211E-01  0.34463009605E-01  0.88906441395E+00  0.88000000000E+00 0. -1.
        -11    1    4    4    0    0  0.60161869384E-01  0.39136820565E-01  0.57797743418E-02  0.72005612032E-01  0.51100000000E-03 0.  1.
         11    1    4    4    0    0  0.53562243496E-01  0.26626112409E-01 -0.34678951466E-01  0.69143000991E-01  0.51100000000E-03 0. -1.
</event>
<event>
 8    1  0.2824193E+004  0.1043930E+01  0.7957747E-01            NaN
         13   -1    0    0    0    0  0.00000000000E+00  0.00000000000E+00  0.74505805969E-08  0.10566000000E+00  0.10566000000E+00 0. -1.
     999900   -1    0    0    0    0 -0.00000000000E+00 -0.00000000000E+00 -0.74505805969E-08  0.93827000000E+00  0.93827000000E+00 0.  1.
     999902    2    1    2    0    0  0.29652928947E-02 -0.10030505004E-01 -0.92936137330E-02  0.10299380291E+01  0.10298429825E+01 0.  0.
     999903    2    3    3    0    0 -0.11043956245E+00 -0.27115046486E-01  0.66557238084E-01  0.13926081796E+00  0.45073127010E-01 0.  0.
         14    1    1    2    0    0 -0.29652928947E-02  0.10030505004E-01  0.92936137330E-02  0.13991970869E-01  0.00000000000E+00 0. -1.
     999901    1    3    3    0    0  0.11340485534E+00  0.17084541482E-01 -0.75850851817E-01  0.89067721117E+00  0.88000000000E+00 0.  1.
        -11    1    4    4    0    0 -0.10906905529E+00 -0.15445520438E-01  0.63330004404E-01  0.12706523326E+00  0.51100000000E-03 0.  1.
         11    1    4    4    0    0 -0.13705071553E-02 -0.11669526048E-01  0.32272336798E-02  0.12195584704E-01  0.51100000000E-03 0. -1.
</event>
<event>
 8    1  0.2824193E+004  0.1043930E+01  0.7957747E-01            NaN
         13   -1    0    0    0    0  0.00000000000E+00  0.00000000000E+00  0.74505805969E-08  0.10566000000E+00  0.10566000000E+00 0. -1.
     999900   -1    0    0    0    0 -0.00000000000E+00 -0.00000000000E+00 -0.74505805969E-08  0.93827000000E+00  0.93827000000E+00 0. -1.
     999902    2    1    2    0    0  0.20458665016E-03 -0.13273278557E-01 -0.15835756581E-02  0.10305610250E+01  0.10304743067E+01 0.  0.
     999903    2    3    3    0    0  0.38200525816E-01 -0.84457352083E-01 -0.96724130581E-01  0.14176262895E+00  0.46354730469E-01 0.  0.
         14    1    1    2    0    0 -0.20458665016E-03  0.13273278557E-01  0.15835756581E-02  0.13368974950E-01  0.00000000000E+00 0.  1.
     999901    1    3    3    0    0 -0.37995939166E-01  0.71184073526E-01  0.95140554923E-01  0.88879839610E+00  0.88000000000E+00 0.  1.
        -11    1    4    4    0    0  0.19508169460E-02 -0.31332716581E-01 -0.59953760937E-01  0.67677613630E-01  0.51100000000E-03 0. -1.
         11    1    4    4    0    0  0.36249708870E-01 -0.53124635502E-01 -0.36770369644E-01  0.74085015321E-01  0.51100000000E-03 0.  1.
</event>
<event>
 8    1  0.2824193E+004  0.1043930E+01  0.7957747E-01            NaN
         13   -1    0    0    0    0  0.00000000000E+00  0.00000000000E+00  0.74505805969E-08  0.10566000000E+00  0.10566000000E+00 0. -1.
     999900   -1    0    0    0    0 -0.00000000000E+00 -0.00000000000E+00 -0.74505805969E-08  0.93827000000E+00  0.93827000000E+00 0. -1.
     999902    2    1    2    0    0 -0.80948331294E-02  0.68699165338E-02  0.96407759087E-02  0.10295889179E+01  0.10294890350E+01 0.  0.
     999903    2    3    3    0    0 -0.12833462157E+00  0.29930895789E-01  0.22928914474E-01  0.14101365931E+00  0.44648442043E-01 0.  0.
         14    1    1    2    0    0  0.80948331294E-02 -0.68699165338E-02 -0.96407759087E-02  0.14341082131E-01  0.00000000000E+00 0.  1.
     999901    1    3    3    0    0  0.12023978844E+00 -0.23060979255E-01 -0.13288138566E-01  0.88857525855E+00  0.88000000000E+00 0.  1.
        -11    1    4    4    0    0 -0.96710053469E-01  0.51960156285E-02  0.48308011127E-02  0.96971288435E-01  0.51100000000E-03 0. -1.
         11    1    4    4    0    0 -0.31624568105E-01  0.24734880161E-01  0.18098113362E-01  0.44042370879E-01  0.51100000000E-03 0.  1.
</event>
<event>
 8    1  0.2824193E+004  0.1043930E+01  0.7957747E-01            NaN
         13   -1    0    0    0    0  0.00000000000E+00  0.00000000000E+00  0.74505805969E-08  0.10566000000E+00  0.10566000000E+00 0. -1.
     999900   -1    0    0    0    0 -0.00000000000E+00 -0.00000000000E+00 -0.74505805969E-08  0.93827000000E+00  0.93827000000E+00 0. -1.
     999902    2    1    2    0    0 -0.14451426473E-01  0.36797559170E-02  0.26154214516E-03  0.10290151505E+01  0.10289070547E+01 0.  0.
     999903    2    3    3    0    0  0.61178055678E-01 -0.14563383683E-01 -0.11464892802E+00  0.13814083454E+00  0.44538374830E-01 0.  0.
         14    1    1    2    0    0  0.14451426473E-01 -0.36797559170E-02 -0.26154214516E-03  0.14914849480E-01  0.00000000000E+00 0.  1.
     999901    1    3    3    0    0 -0.75629482151E-01  0.18243139600E-01  0.11491047016E+00  0.89087431598E+00  0.88000000000E+00 0.  1.
        -11    1    4    4    0    0  0.41269424096E-01 -0.50804103671E-02 -0.31643587255E-01  0.52254699981E-01  0.51100000000E-03 0.  1.
         11    1    4    4    0    0  0.19908631582E-01 -0.94829733161E-02 -0.83005340761E-01  0.85886134563E-01  0.51100000000E-03 0. -1.
</event>
<event>
 8    1  0.2824193E+004  0.1043930E+01  0.7957747E-01            NaN
         13   -1    0    0    0    0  0.00000000000E+00  0.00000000000E+00  0.74505805969E-08  0.10566000000E+00  0.10566000000E+00 0. -1.
     999900   -1    0    0    0    0 -0.00000000000E+00 -0.00000000000E+00 -0.74505805969E-08  0.93827000000E+00  0.93827000000E+00 0. -1.
     999902    2    1    2    0    0 -0.52328939400E-04  0.18594030236E-02 -0.15764430841E-01  0.10280562041E+01  0.10279336464E+01 0.  0.
     999903    2    3    3    0    0  0.11904422718E+00  0.46681468306E-01  0.19428293110E-01  0.13820703985E+00  0.48713856171E-01 0.  0.
         14    1    1    2    0    0  0.52328939400E-04 -0.18594030236E-02  0.15764430841E-01  0.15873795943E-01  0.00000000000E+00 0. -1.
     999901    1    3    3    0    0 -0.11909655612E+00 -0.44822065282E-01 -0.35192723950E-01  0.88984916420E+00  0.88000000000E+00 0.  1.
        -11    1    4    4    0    0  0.80847355480E-01  0.38076981337E-01 -0.89993525072E-02  0.89818711093E-01  0.51100000000E-03 0.  1.
         11    1    4    4    0    0  0.38196871702E-01  0.86044869686E-02  0.28427645617E-01  0.48388328760E-01  0.51100000000E-03 0. -1.
</event>
<event>
 8    1  0.2824193E+004  0.1043930E+01  0.7957747E-01            NaN
         13   -1    0    0    0    0  0.00000000000E+00  0.00000000000E+00  0.74505805969E-08  0.10566000000E+00  0.10566000000E+00 0.  1.
     999900   -1    0    0    0    0 -0.00000000000E+00 -0.00000000000E+00 -0.74505805969E-08  0.93827000000E+00  0.93827000000E+00 0. -1.
     999902    2    1    2    0    0  0.74351749429E-02 -0.99196228529E-02 -0.60237131840E-02  0.10301471895E+01  0.10300549821E+01 0.  0.
     999903    2    3    3    0    0 -0.14523509925E-01  0.69470950232E-01  0.11020280584E+00  0.13869127325E+00  0.45315180615E-01 0.  0.
         14    1    1    2    0    0 -0.74351749429E-02  0.99196228529E-02  0.60237131840E-02  0.13782810472E-01  0.00000000000E+00 0.  1.
     999901    1    3    3    0    0  0.21958684867E-01 -0.79390573085E-01 -0.11622651903E+00  0.89145591627E+00  0.88000000000E+00 0. -1.
        -11    1    4    4    0    0 -0.20268107827E-01  0.28700276039E-01  0.80753256744E-01  0.88067313093E-01  0.51100000000E-03 0.  1.
         11    1    4    4    0    0  0.57445979021E-02  0.40770674193E-01  0.29449549100E-01  0.50623960161E-01  0.51100000000E-03 0. -1.
</event>
<event>
 8    1  0.2824193E+004  0.1043930E+01  0.7957747E-01            NaN
         13   -1    0    0    0    0  0.00000000000E+00  0.00000000000E+00  0.74505805969E-08  0.10566000000E+00  0.10566000000E+00 0. -1.
     999900   -1    0    0    0    0 -0.00000000000E+00 -0.00000000000E+00 -0.74505805969E-08  0.93827000000E+00  0.93827000000E+00 0. -1.
     999902    2    1    2    0    0  0.10991094783E-02  0.46985103111E-03  0.16482133799E-01  0.10274045791E+01  0.10272716679E+01 0.  0.
     999903    2    3    3    0    0 -0.28963510106E-01 -0.12664452094E+00  0.83370600616E-02  0.13772589165E+00  0.44957703014E-01 0.  0.
         14    1    1    2    0    0 -0.10991094783E-02 -0.46985103111E-03 -0.16482133799E-01  0.16525420908E-01  0.00000000000E+00 0.  1.
     999901    1    3    3    0    0  0.30062619585E-01  0.12711437197E+00  0.81450737369E-02  0.88967868744E+00  0.88000000000E+00 0.  1.
        -11    1    4    4    0    0 -0.35755565451E-01 -0.12372076144E+00  0.12210718017E-01  0.12936247534E+00  0.51100000000E-03 0.  1.
         11    1    4    4    0    0  0.67920553443E-02 -0.29237594974E-02 -0.38736579555E-02  0.83634163089E-02  0.51100000000E-03 0. -1.
</event>
<event>
 8    1  0.2824193E+004  0.1043930E+01  0.7957747E-01            NaN
         13   -1    0    0    0    0  0.00000000000E+00  0.00000000000E+00  0.74505805969E-08  0.10566000000E+00  0.10566000000E+00 0. -1.
     999900   -1    0    0    0    0 -0.00000000000E+00 -0.00000000000E+00 -0.74505805969E-08  0.93827000000E+00  0.93827000000E+00 0.  1.
     999902    2    1    2    0    0  0.52733322752E-02  0.11111887418E-01 -0.86008698093E-03  0.10316002869E+01  0.10315266018E+01 0.  0.
     999903    2    3    3    0    0  0.11879643059E+00  0.66431019672E-01 -0.11584286583E-01  0.14252058930E+00  0.40647882889E-01 0.  0.
         14    1    1    2    0    0 -0.52733322752E-02 -0.11111887418E-01  0.86008698093E-03  0.12329713091E-01  0.00000000000E+00 0. -1.
     999901    1    3    3    0    0 -0.11352309831E+00 -0.55319132253E-01  0.10724199602E-01  0.88907969761E+00  0.88000000000E+00 0. -1.
        -11    1    4    4    0    0  0.69983149916E-01  0.15858011124E-01 -0.57182525368E-02  0.71986646832E-01  0.51100000000E-03 0. -1.
         11    1    4    4    0    0  0.48813280673E-01  0.50573008548E-01 -0.58660340463E-02  0.70533942468E-01  0.51100000000E-03 0.  1.
</event>
<event>
 8    1  0.2824193E+004  0.1043930E+01  0.7957747E-01            NaN
         13   -1    0    0    0    0  0.00000000000E+00  0.00000000000E+00  0.74505805969E-08  0.10566000000E+00  0.10566000000E+00 0. -1.
     999900   -1    0    0    0    0 -0.00000000000E+00 -0.00000000000E+00 -0.74505805969E-08  0.93827000000E+00  0.93827000000E+00 0.  1.
     999902    2    1    2    0    0  0.96328949910E-02  0.10042663639E-01  0.32212182315E-02  0.10296463028E+01  0.10295472232E+01 0.  0.
     999903    2    3    3    0    0  0.99632138999E-01 -0.53197161200E-01 -0.68514476188E-01  0.13990187364E+00  0.46062997284E-01 0.  0.
         14    1    1    2    0    0 -0.96328949910E-02 -0.10042663639E-01 -0.32212182315E-02  0.14283697202E-01  0.00000000000E+00 0.  1.
     999901    1    3    3    0    0 -0.89999244008E-01  0.63239824839E-01  0.71735694419E-01  0.88974442916E+00  0.88000000000E+00 0. -1.
        -11    1    4    4    0    0  0.46729017566E-01 -0.52899057721E-02 -0.11151372358E-01  0.48334236440E-01  0.51100000000E-03 0. -1.
         11    1    4    4    0    0  0.52903121433E-01 -0.47907255428E-01 -0.57363103830E-01  0.91567637198E-01  0.51100000000E-03 0.  1.
</event>
<event>
 8    1  0.2824193E+004  0.1043930E+01  0.7957747E-01            NaN
         13   -1    0    0    0    0  0.00000000000E+00  0.00000000000E+00  0.74505805969E-08  0.10566000000E+00  0.10566000000E+00 0.  1.
     999900   -1    0    0    0    0 -0.00000000000E+00 -0.00000000000E+00 -0.74505805969E-08  0.93827000000E+00  0.93827000000E+00 0. -1.
     999902    2    1    2    0    0  0.69345803727E-02  0.11611784405E-01 -0.80167236299E-02  0.10282077292E+01  0.10280875179E+01 0.  0.
     999903    2    3    3    0    0  0.12018561197E+00  0.20354337803E-01 -0.54308133302E-01  0.13970048497E+00  0.41327615059E-01 0.  0.
         14    1    1    2    0    0 -0.69345803727E-02 -0.11611784405E-01  0.80167236299E-02  0.15722270821E-01  0.00000000000E+00 0.  1.
     999901    1    3    3    0    0 -0.11325103160E+00 -0.87425533975E-02  0.46291409672E-01  0.88850724421E+00  0.88000000000E+00 0.  1.
        -11    1    4    4    0    0  0.45289797423E-01 -0.11002254325E-01 -0.27877196840E-01  0.54310354220E-01  0.51100000000E-03 0.  1.
         11    1    4    4    0    0  0.74895814548E-01  0.31356592127E-01 -0.26430936463E-01  0.85390130753E-01  0.51100000000E-03 0. -1.
</event>
<event>
 8    1  0.2824193E+004  0.1043930E+01  0.7957747E-01            NaN
         13   -1    0    0    0    0  0.00000000000E+00  0.00000000000E+00  0.74505805969E-08  0.10566000000E+00  0.10566000000E+00 0.  1.
     999900   -1    0    0    0    0 -0.00000000000E+00 -0.00000000000E+00 -0.74505805969E-08  0.93827000000E+00  0.93827000000E+00 0. -1.
     999902    2    1    2    0    0 -0.13233244474E-01  0.27456166766E-02  0.30243811243E-02  0.10300806660E+01  0.10299875604E+01 0.  0.
     999903    2    3    3    0    0 -0.10342700838E+00 -0.16376526669E-01 -0.83331195818E-01  0.14105993675E+00  0.44592385818E-01 0.  0.
         14    1    1    2    0    0  0.13233244474E-01 -0.27456166766E-02 -0.30243811243E-02  0.13849333970E-01  0.00000000000E+00 0.  1.
     999901    1    3    3    0    0  0.90193763904E-01  0.19122143345E-01  0.86355576942E-01  0.88902072928E+00  0.88000000000E+00 0.  1.
        -11    1    4    4    0    0 -0.30212529723E-01 -0.22732072231E-01 -0.42881673801E-01  0.57172048495E-01  0.51100000000E-03 0.  1.
         11    1    4    4    0    0 -0.73214478655E-01  0.63555455627E-02 -0.40449522017E-01  0.83887888259E-01  0.51100000000E-03 0. -1.
</event>
<event>
 8    1  0.2824193E+004  0.1043930E+01  0.7957747E-01            NaN
         13   -1    0    0    0    0  0.00000000000E+00  0.00000000000E+00  0.74505805969E-08  0.10566000000E+00  0.10566000000E+00 0.  1.
     999900   -1    0    0    0    0 -0.00000000000E+00 -0.00000000000E+00 -0.74505805969E-08  0.93827000000E+00  0.93827000000E+00 0.  1.
     999902    2    1    2    0    0  0.99489337598E-02 -0.29755808041E-02  0.84572921253E-02  0.10305374217E+01  0.10304503949E+01 0.  0.
     999903    2    3    3    0    0 -0.35459782171E-03  0.11740887417E+00 -0.60930006688E-01  0.13957548253E+00  0.44540769376E-01 0.  0.
         14    1    1    2    0    0 -0.99489337598E-02  0.29755808041E-02 -0.84572921253E-02  0.13392578324E-01  0.00000000000E+00 0. -1.
     999901    1    3    3    0    0  0.10303531581E-01 -0.12038445497E+00  0.69387298814E-01  0.89096193914E+00  0.88000000000E+00 0. -1.
        -11    1    4    4    0    0 -0.16294030086E-01  0.15774307919E-01 -0.10285589386E-01  0.24907402048E-01  0.51100000000E-03 0. -1.
         11    1    4    4    0    0  0.15939432264E-01  0.10163456625E+00 -0.50644417302E-01  0.11466808049E+00  0.51100000000E-03 0.  1.
</event>
<event>
 8    1  0.2824193E+004  0.1043930E+01  0.7957747E-01            NaN
         13   -1    0    0    0    0  0.00000000000E+00  0.00000000000E+00  0.74505805969E-08  0.10566000000E+00  0.10566000000E+00 0.  1.
     999900   -1    0    0    0    0 -0.00000000000E+00 -0.00000000000E+00 -0.74505805969E-08  0.93827000000E+00  0.93827000000E+00 0.  1.
     999902    2    1    2    0    0  0.11014880142E-01  0.80985854202E-02  0.11408804743E-02  0.10302108062E+01  0.10301194537E+01 0.  0.
     999903    2    3    3    0    0 -0.22902645399E-01 -0.12874781155E+00 -0.15329158202E-01  0.13883625132E+00  0.44045333977E-01 0.  0.
         14    1    1    2    0    0 -0.11014880142E-01 -0.80985854202E-02 -0.11408804743E-02  0.13719193803E-01  0.00000000000E+00 0.  1.
     999901    1    3    3    0    0  0.33917525540E-01  0.13684639697E+00  0.16470038676E-01  0.89137455487E+00  0.88000000000E+00 0. -1.
        -11    1    4    4    0    0 -0.23362233832E-01 -0.92216161877E-01 -0.29570643671E-01  0.99620773782E-01  0.51100000000E-03 0.  1.
         11    1    4    4    0    0  0.45958843279E-03 -0.36531649673E-01  0.14241485470E-01  0.39215477541E-01  0.51100000000E-03 0. -1.
</event>
<event>
 8    1  0.2824193E+004  0.1043930E+01  0.7957747E-01            NaN
         13   -1    0    0    0    0  0.00000000000E+00  0.00000000000E+00  0.74505805969E-08  0.10566000000E+00  0.10566000000E+00 0.  1.
     999900   -1    0    0    0    0 -0.00000000000E+00 -0.00000000000E+00 -0.74505805969E-08  0.93827000000E+00  0.93827000000E+00 0.  1.
     999902    2    1    2    0    0  0.83757774546E-02  0.90494601269E-02  0.60614869584E-02  0.10301899854E+01  0.10300983536E+01 0.  0.
     999903    2    3    3    0    0  0.66021947817E-01 -0.11249599699E+00  0.23198891759E-01  0.13980239018E+00  0.44634883107E-01 0.  0.
         14    1    1    2    0    0 -0.83757774546E-02 -0.90494601269E-02 -0.60614869584E-02  0.13740014582E-01  0.00000000000E+00 0. -1.
     999901    1    3    3    0    0 -0.57646170362E-01  0.12154545712E+00 -0.17137404801E-01  0.89038759523E+00  0.88000000000E+00 0.  1.
        -11    1    4    4    0    0  0.19262559933E-01 -0.26408663108E-01 -0.13248920587E-01  0.35274051653E-01  0.51100000000E-03 0.  1.
         11    1    4    4    0    0  0.46759387884E-01 -0.86087333882E-01  0.36447812346E-01  0.10452833853E+00  0.51100000000E-03 0. -1.
</event>
<event>
 8    1  0.2824193E+004  0.1043930E+01  0.7957747E-01            NaN
         13   -1    0    0    0    0  0.00000000000E+00  0.00000000000E+00  0.74505805969E-08  0.10566000000E+00  0.10566000000E+00 0. -1.
     999900   -1    0    0    0    0 -0.00000000000E+00 -0.00000000000E+00 -0.74505805969E-08  0.93827000000E+00  0.93827000000E+00 0. -1.
     999902    2    1    2    0    0  0.14657669171E-01  0.19885163728E-02  0.11536883952E-02  0.10290931385E+01  0.10289861783E+01 0.  0.
     999903    2    3    3    0    0  0.48188679517E-02  0.12205218895E+00 -0.49402896126E-01  0.13944823419E+00  0.45664051057E-01 0.  0.
         14    1    1    2    0    0 -0.14657669171E-01 -0.19885163728E-02 -0.11536883952E-02  0.14836861522E-01  0.00000000000E+00 0.  1.
     999901    1    3    3    0    0  0.98388012195E-02 -0.12006367257E+00  0.50556584521E-01  0.88964490428E+00  0.88000000000E+00 0.  1.
        -11    1    4    4    0    0 -0.10304315016E-02  0.11427422805E+00 -0.30657206043E-01  0.11832069298E+00  0.51100000000E-03 0.  1.
         11    1    4    4    0    0  0.58492994532E-02  0.77779608998E-02 -0.18745690084E-01  0.21127541210E-01  0.51100000000E-03 0. -1.
</event>
<event>
 8    1  0.2824193E+004  0.1043930E+01  0.7957747E-01            NaN
         13   -1    0    0    0    0  0.00000000000E+00  0.00000000000E+00  0.74505805969E-08  0.10566000000E+00  0.10566000000E+00 0.  1.
     999900   -1    0    0    0    0 -0.00000000000E+00 -0.00000000000E+00 -0.74505805969E-08  0.93827000000E+00  0.93827000000E+00 0.  1.
     999902    2    1    2    0    0  0.12701178337E-01  0.52289891073E-02  0.49755204230E-03  0.10301855533E+01  0.10300938619E+01 0.  0.
     999903    2    3    3    0    0  0.18693441917E-01  0.11705788044E+00 -0.61662288567E-01  0.14091312372E+00  0.44746826269E-01 0.  0.
         14    1    1    2    0    0 -0.12701178337E-01 -0.52289891073E-02 -0.49755204230E-03  0.13744446743E-01  0.00000000000E+00 0. -1.
     999901    1    3    3    0    0 -0.59922635801E-02 -0.11182889133E+00  0.62159840609E-01  0.88927242954E+00  0.88000000000E+00 0. -1.
        -11    1    4    4    0    0  0.15956768738E-01  0.76694403419E-01 -0.62853201029E-01  0.10043622845E+00  0.51100000000E-03 0.  1.
         11    1    4    4    0    0  0.27366731787E-02  0.40363477017E-01  0.11909124621E-02  0.40476895267E-01  0.51100000000E-03 0. -1.
</event>
<event>
 8    1  0.2824193E+004  0.1043930E+01  0.7957747E-01            NaN
         13   -1    0    0    0    0  0.00000000000E+00  0.00000000000E+00  0.74505805969E-08  0.10566000000E+00  0.10566000000E+00 0. -1.
     999900   -1    0    0    0    0 -0.00000000000E+00 -0.00000000000E+00 -0.74505805969E-08  0.93827000000E+00  0.93827000000E+00 0. -1.
     999902    2    1    2    0    0 -0.35586158795E-02  0.79005163826E-02  0.92655874244E-02  0.10312440623E+01  0.10311660307E+01 0.  0.
     999903    2    3    3    0    0 -0.68149457696E-01 -0.53437451197E-01  0.10277563382E+00  0.14181815085E+00  0.45273029801E-01 0.  0.
         14    1    1    2    0    0  0.35586158795E-02 -0.79005163826E-02 -0.92655874244E-02  0.12685937743E-01  0.00000000000E+00 0.  1.
     999901    1    3    3    0    0  0.64590841816E-01  0.61337967580E-01 -0.93510046397E-01  0.88942591141E+00  0.88000000000E+00 0. -1.
        -11    1    4    4    0    0 -0.37884762362E-01 -0.33630458130E-01  0.25990332073E-01  0.56938751440E-01  0.51100000000E-03 0. -1.
         11    1    4    4    0    0 -0.30264695334E-01 -0.19806993067E-01  0.76785301748E-01  0.84879399406E-01  0.51100000000E-03 0.  1.
</event>
<event>
 8    1  0.2824193E+004  0.1043930E+01  0.7957747E-01            NaN
         13   -1    0    0    0    0  0.00000000000E+00  0.00000000000E+00  0.74505805969E-08  0.10566000000E+00  0.10566000000E+00 0. -1.
     999900   -1    0    0    0    0 -0.00000000000E+00 -0.00000000000E+00 -0.74505805969E-08  0.93827000000E+00  0.93827000000E+00 0.  1.
     999902    2    1    2    0    0 -0.13798399752E-01  0.26100571109E-02  0.49544516370E-02  0.10290385654E+01  0.10289308112E+01 0.  0.
     999903    2    3    3    0    0 -0.13426815191E-01 -0.11388066377E+00 -0.63653400154E-01  0.13871431914E+00  0.45175458350E-01 0.  0.
         14    1    1    2    0    0  0.13798399752E-01 -0.26100571109E-02 -0.49544516370E-02  0.14891434614E-01  0.00000000000E+00 0.  1.
     999901    1    3    3    0    0 -0.37158456121E-03  0.11649072088E+00  0.68607851791E-01  0.89032424625E+00  0.88000000000E+00 0.  1.
        -11    1    4    4    0    0  0.83616001057E-03 -0.51128516182E-01 -0.52702433958E-01  0.73434542258E-01  0.51100000000E-03 0. -1.
         11    1    4    4    0    0 -0.14262975201E-01 -0.62752147586E-01 -0.10950966196E-01  0.65279776882E-01  0.51100000000E-03 0.  1.
</event>
<event>
 8    1  0.2824193E+004  0.1043930E+01  0.7957747E-01            NaN
         13   -1    0    0    0    0  0.00000000000E+00  0.00000000000E+00  0.74505805969E-08  0.10566000000E+00  0.10566000000E+00 0. -1.
     999900   -1    0    0    0    0 -0.00000000000E+00 -0.00000000000E+00 -0.74505805969E-08  0.93827000000E+00  0.93827000000E+00 0. -1.
     999902    2    1    2    0    0  0.13886062220E-02 -0.75997076005E-03 -0.14398983537E-01  0.10294442653E+01  0.10293423429E+01 0.  0.
     999903    2    3    3    0    0  0.60036409118E-01  0.10970136813E+00 -0.46936605222E-01  0.14000625791E+00  0.41951719328E-01 0.  0.
         14    1    1    2    0    0 -0.13886062220E-02  0.75997076005E-03  0.14398983537E-01  0.14485734697E-01  0.00000000000E+00 0. -1.
     999901    1    3    3    0    0 -0.58647802896E-01 -0.11046133889E+00  0.32537621684E-01  0.88943800739E+00  0.88000000000E+00 0. -1.
        -11    1    4    4    0    0  0.18153008722E-01  0.52575662756E-01 -0.40643997233E-01  0.68890693653E-01  0.51100000000E-03 0. -1.
         11    1    4    4    0    0  0.41883400396E-01  0.57125705373E-01 -0.62926079890E-02  0.71115564255E-01  0.51100000000E-03 0.  1.
</event>
<event>
 8    1  0.2824193E+004  0.1043930E+01  0.7957747E-01            NaN
         13   -1    0    0    0    0  0.00000000000E+00  0.00000000000E+00  0.74505805969E-08  0.10566000000E+00  0.10566000000E+00 0.  1.
     999900   -1    0    0    0    0 -0.00000000000E+00 -0.00000000000E+00 -0.74505805969E-08  0.93827000000E+00  0.93827000000E+00 0.  1.
     999902    2    1    2    0    0 -0.13834841528E-01  0.16214926484E-02  0.74181126281E-03  0.10299807218E+01  0.10298862582E+01 0.  0.
     999903    2    3    3    0    0 -0.73714054310E-01 -0.68086406878E-01  0.87957742605E-01  0.14090742332E+00  0.45263858190E-01 0.  0.
         14    1    1    2    0    0  0.13834841528E-01 -0.16214926484E-02 -0.74181126281E-03  0.13949278206E-01  0.00000000000E+00 0. -1.
     999901    1    3    3    0    0  0.59879212782E-01  0.69707899526E-01 -0.87215931342E-01  0.88907329847E+00  0.88000000000E+00 0.  1.
        -11    1    4    4    0    0 -0.43410322413E-04 -0.10599718066E-01  0.27836623582E-01  0.29790848276E-01  0.51100000000E-03 0.  1.
         11    1    4    4    0    0 -0.73670643987E-01 -0.57486688812E-01  0.60121119023E-01  0.11111657504E+00  0.51100000000E-03 0. -1.
</event>
<event>
 8    1  0.2824193E+004  0.1043930E+01  0.7957747E-01            NaN
         13   -1    0    0    0    0  0.00000000000E+00  0.00000000000E+00  0.74505805969E-08  0.10566000000E+00  0.10566000000E+00 0.  1.
     999900   -1    0    0    0    0 -0.00000000000E+00 -0.00000000000E+00 -0.74505805969E-08  0.93827000000E+00  0.93827000000E+00 0. -1.
     999902    2    1    2    0    0  0.82116679277E-02  0.63215133805E-02  0.59180637106E-03  0.10335500551E+01  0.10334979309E+01 0.  0.
     999903    2    3    3    0    0  0.11782487401E+00  0.15191241452E-01 -0.68517495806E-01  0.14401656911E+00  0.43961917559E-01 0.  0.
         14    1    1    2    0    0 -0.82116679277E-02 -0.63215133805E-02 -0.59180637106E-03  0.10379944911E-01  0.00000000000E+00 0. -1.
     999901    1    3    3    0    0 -0.10961320608E+00 -0.88697280716E-02  0.69109302177E-01  0.88953348598E+00  0.88000000000E+00 0.  1.
        -11    1    4    4    0    0  0.38870394093E-01 -0.25202518501E-02 -0.15582234397E-02  0.38986515458E-01  0.51100000000E-03 0. -1.
         11    1    4    4    0    0  0.78954479917E-01  0.17711493302E-01 -0.66959272367E-01  0.10503005366E+00  0.51100000000E-03 0.  1.
</event>
<event>
 8    1  0.2824193E+004  0.1043930E+01  0.7957747E-01            NaN
         13   -1    0    0    0    0  0.00000000000E+00  0.00000000000E+00  0.74505805969E-08  0.10566000000E+00  0.10566000000E+00 0.  1.
     999900   -1    0    0    0    0 -0.00000000000E+00 -0.00000000000E+00 -0.74505805969E-08  0.93827000000E+00  0.93827000000E+00 0.  1.
     999902    2    1    2    0    0  0.66738478681E-02 -0.77143033197E-02 -0.79396141342E-02  0.10310037402E+01  0.10309227052E+01 0.  0.
     999903    2    3    3    0    0 -0.74095442348E-01  0.17403028934E-01  0.10809641490E+00  0.13936540615E+00  0.44100810936E-01 0.  0.
         14    1    1    2    0    0 -0.66738478681E-02  0.77143033197E-02  0.79396141342E-02  0.12926259849E-01  0.00000000000E+00 0.  1.
     999901    1    3    3    0    0  0.80769290216E-01 -0.25117332254E-01 -0.11603602903E+00  0.89163833400E+00  0.88000000000E+00 0.  1.
        -11    1    4    4    0    0  0.22404212998E-02  0.71858523807E-02  0.24785477950E-01  0.25908241937E-01  0.51100000000E-03 0.  1.
         11    1    4    4    0    0 -0.76335863648E-01  0.10217176554E-01  0.83310936949E-01  0.11345716422E+00  0.51100000000E-03 0. -1.
</event>
<event>
 8    1  0.2824193E+004  0.1043930E+01  0.7957747E-01            NaN
         13   -1    0    0    0    0  0.00000000000E+00  0.00000000000E+00  0.74505805969E-08  0.10566000000E+00  0.10566000000E+00 0.  1.
     999900   -1    0    0    0    0 -0.00000000000E+00 -0.00000000000E+00 -0.74505805969E-08  0.93827000000E+00  0.93827000000E+00 0.  1.
     999902    2    1    2    0    0  0.69379896224E-02  0.96181033885E-02  0.90946898823E-02  0.10289848671E+01  0.10288763287E+01 0.  0.
     999903    2    3    3    0    0  0.12662044514E+00  0.14795403868E-01 -0.33947339156E-01  0.13982610128E+00  0.46338705860E-01 0.  0.
         14    1    1    2    0    0 -0.69379896224E-02 -0.96181033885E-02 -0.90946898823E-02  0.14945132882E-01  0.00000000000E+00 0. -1.
     999901    1    3    3    0    0 -0.11968245552E+00 -0.51773004792E-02  0.43042029038E-01  0.88915876584E+00  0.88000000000E+00 0. -1.
        -11    1    4    4    0    0  0.68198757122E-01  0.27503190574E-01 -0.58689288507E-02  0.73771277687E-01  0.51100000000E-03 0.  1.
         11    1    4    4    0    0  0.58421688019E-01 -0.12707786706E-01 -0.28078410305E-01  0.66054823595E-01  0.51100000000E-03 0. -1.
</event>
<event>
 8    1  0.2824193E+004  0.1043930E+01  0.7957747E-01            NaN
         13   -1    0    0    0    0  0.00000000000E+00  0.00000000000E+00  0.74505805969E-08  0.10566000000E+00  0.10566000000E+00 0. -1.
     999900   -1    0    0    0    0 -0.00000000000E+00 -0.00000000000E+00 -0.74505805969E-08  0.93827000000E+00  0.93827000000E+00 0.  1.
     999902    2    1    2    0    0 -0.47256395052E-02  0.18644134084E-01 -0.62430557005E-02  0.10237084484E+01  0.10235087084E+01 0.  0.
     999903    2    3    3    0    0 -0.37092349152E-01 -0.79307077201E-01  0.88700870251E-01  0.13261002917E+00  0.45300337678E-01 0.  0.
         14    1    1    2    0    0  0.47256395052E-02 -0.18644134084E-01  0.62430557005E-02  0.20221551596E-01  0.00000000000E+00 0.  1.
     999901    1    3    3    0    0  0.32366709647E-01  0.97951211284E-01 -0.94943925951E-01  0.89109841923E+00  0.88000000000E+00 0. -1.
        -11    1    4    4    0    0  0.25655879175E-02 -0.17585874893E-01  0.36807250459E-03  0.17783189688E-01  0.51100000000E-03 0.  1.
         11    1    4    4    0    0 -0.39657937069E-01 -0.61721202307E-01  0.88332797746E-01  0.11482683948E+00  0.51100000000E-03 0. -1.
</event>
<event>
 8    1  0.2824193E+004  0.1043930E+01  0.7957747E-01            NaN
         13   -1    0    0    0    0  0.00000000000E+00  0.00000000000E+00  0.74505805969E-08  0.10566000000E+00  0.10566000000E+00 0. -1.
     999900   -1    0    0    0    0 -0.00000000000E+00 -0.00000000000E+00 -0.74505805969E-08  0.93827000000E+00  0.93827000000E+00 0. -1.
     999902    2    1    2    0    0 -0.28384573713E-02 -0.96599154492E-02 -0.10927235591E-01  0.10290714912E+01  0.10289642164E+01 0.  0.
     999903    2    3    3    0    0 -0.39672978944E-01  0.12415395438E+00 -0.55034118283E-02  0.13817736077E+00  0.45547182578E-01 0.  0.
         14    1    1    2    0    0  0.28384573713E-02  0.96599154492E-02  0.10927235591E-01  0.14858508821E-01  0.00000000000E+00 0. -1.
     999901    1    3    3    0    0  0.36834521573E-01 -0.13381386983E+00 -0.54238237626E-02  0.89089413041E+00  0.88000000000E+00 0. -1.
        -11    1    4    4    0    0  0.23773904867E-02  0.49352814957E-01  0.11413518280E-01  0.50713724476E-01  0.51100000000E-03 0. -1.
         11    1    4    4    0    0 -0.42050369431E-01  0.74801139421E-01 -0.16916930108E-01  0.87463636291E-01  0.51100000000E-03 0.  1.
</event>
<event>
 8    1  0.2824193E+004  0.1043930E+01  0.7957747E-01            NaN
         13   -1    0    0    0    0  0.00000000000E+00  0.00000000000E+00  0.74505805969E-08  0.10566000000E+00  0.10566000000E+00 0. -1.
     999900   -1    0    0    0    0 -0.00000000000E+00 -0.00000000000E+00 -0.74505805969E-08  0.93827000000E+00  0.93827000000E+00 0. -1.
     999902    2    1    2    0    0  0.85170780745E-02  0.67452195082E-03 -0.10592771047E-01  0.10303210913E+01  0.10302312113E+01 0.  0.
     999903    2    3    3    0    0 -0.48380938493E-02  0.20279560425E-01 -0.13260783535E+00  0.14158581342E+00  0.45022625891E-01 0.  0.
         14    1    1    2    0    0 -0.85170780745E-02 -0.67452195082E-03  0.10592771047E-01  0.13608908745E-01  0.00000000000E+00 0.  1.
     999901    1    3    3    0    0  0.13355171924E-01 -0.19605038474E-01  0.12201506430E+00  0.88873527783E+00  0.88000000000E+00 0.  1.
        -11    1    4    4    0    0 -0.13113591556E-01 -0.53637549977E-02 -0.13891038166E-01  0.19848380627E-01  0.51100000000E-03 0. -1.
         11    1    4    4    0    0  0.82754977067E-02  0.25643315423E-01 -0.11871679719E+00  0.12173743279E+00  0.51100000000E-03 0.  1.
</event>
<event>
 8    1  0.2824193E+004  0.1043930E+01  0.7957747E-01            NaN
         13   -1    0    0    0    0  0.00000000000E+00  0.00000000000E+00  0.74505805969E-08  0.10566000000E+00  0.10566000000E+00 0. -1.
     999900   -1    0    0    0    0 -0.00000000000E+00 -0.00000000000E+00 -0.74505805969E-08  0.93827000000E+00  0.93827000000E+00 0.  1.
     999902    2    1    2    0    0  0.54282184482E-02  0.87450070513E-03 -0.11336788800E-01  0.10313302743E+01  0.10312533062E+01 0.  0.
     999903    2    3    3    0    0  0.26311528077E-01  0.13178300461E+00  0.21404028732E-02  0.14129949748E+00  0.43610891428E-01 0.  0.
         14    1    1    2    0    0 -0.54282184482E-02 -0.87450070513E-03  0.11336788800E-01  0.12599725684E-01  0.00000000000E+00 0. -1.
     999901    1    3    3    0    0 -0.20883309629E-01 -0.13090850390E+00 -0.13477191673E-01  0.89003077683E+00  0.88000000000E+00 0. -1.
        -11    1    4    4    0    0 -0.68137516627E-02  0.71646666803E-01  0.78807071157E-02  0.72401924984E-01  0.51100000000E-03 0. -1.
         11    1    4    4    0    0  0.33125279740E-01  0.60136337805E-01 -0.57403042425E-02  0.68897572499E-01  0.51100000000E-03 0.  1.
</event>
<event>
 8    1  0.2824193E+004  0.1043930E+01  0.7957747E-01            NaN
         13   -1    0    0    0    0  0.00000000000E+00  0.00000000000E+00  0.74505805969E-08  0.10566000000E+00  0.10566000000E+00 0. -1.
     999900   -1    0    0    0    0 -0.00000000000E+00 -0.00000000000E+00 -0.74505805969E-08  0.93827000000E+00  0.93827000000E+00 0.  1.
     999902    2    1    2    0    0 -0.28063369341E-02  0.11701609086E-01 -0.75737223813E-02  0.10297115453E+01  0.10296133751E+01 0.  0.
     999903    2    3    3    0    0  0.11331524302E+00 -0.46568456735E-01  0.48908115414E-01  0.13838118015E+00  0.41813655700E-01 0.  0.
         14    1    1    2    0    0  0.28063369341E-02 -0.11701609086E-01  0.75737223813E-02  0.14218454659E-01  0.00000000000E+00 0. -1.
     999901    1    3    3    0    0 -0.11612157996E+00  0.58270065821E-01 -0.56481837795E-01  0.89133036519E+00  0.88000000000E+00 0. -1.
        -11    1    4    4    0    0  0.69661530610E-01 -0.69303202913E-02  0.20625262356E-01  0.72982331797E-01  0.51100000000E-03 0.  1.
         11    1    4    4    0    0  0.43653712415E-01 -0.39638136444E-01  0.28282853058E-01  0.65398848358E-01  0.51100000000E-03 0. -1.
</event>
<event>
 8    1  0.2824193E+004  0.1043930E+01  0.7957747E-01            NaN
         13   -1    0    0    0    0  0.00000000000E+00  0.00000000000E+00  0.74505805969E-08  0.10566000000E+00  0.10566000000E+00 0.  1.
     999900   -1    0    0    0    0 -0.00000000000E+00 -0.00000000000E+00 -0.74505805969E-08  0.93827000000E+00  0.93827000000E+00 0. -1.
     999902    2    1    2    0    0 -0.12038466650E-01 -0.11939104494E-02 -0.54593950769E-02  0.10306576567E+01  0.10305721956E+01 0.  0.
     999903    2    3    3    0    0 -0.25736954665E-01 -0.26413645104E-01  0.12947107994E+00  0.13991082587E+00  0.38107836096E-01 0.  0.
         14    1    1    2    0    0  0.12038466650E-01  0.11939104494E-02  0.54593950769E-02  0.13272343277E-01  0.00000000000E+00 0.  1.
     999901    1    3    3    0    0  0.13698488015E-01  0.25219734654E-01 -0.13493047501E+00  0.89074683085E+00  0.88000000000E+00 0. -1.
        -11    1    4    4    0    0  0.64470609370E-02 -0.79264936602E-02  0.62580727107E-01  0.63411374553E-01  0.51100000000E-03 0.  1.
         11    1    4    4    0    0 -0.32184015602E-01 -0.18487151443E-01  0.66890352831E-01  0.76499451316E-01  0.51100000000E-03 0. -1.
</event>
<event>
 8    1  0.2824193E+004  0.1043930E+01  0.7957747E-01            NaN
         13   -1    0    0    0    0  0.00000000000E+00  0.00000000000E+00  0.74505805969E-08  0.10566000000E+00  0.10566000000E+00 0. -1.
     999900   -1    0    0    0    0 -0.00000000000E+00 -0.00000000000E+00 -0.74505805969E-08  0.93827000000E+00  0.93827000000E+00 0.  1.
     999902    2    1    2    0    0 -0.11382755358E-01 -0.64338991056E-02 -0.62045545147E-02  0.10294573128E+01  0.10293555752E+01 0.  0.
     999903    2    3    3    0    0  0.79145280998E-01  0.99796550118E-01  0.27021439523E-01  0.13783844785E+00  0.45232207458E-01 0.  0.
         14    1    1    2    0    0  0.11382755358E-01  0.64338991056E-02  0.62045545147E-02  0.14472687171E-01  0.00000000000E+00 0. -1.
     999901    1    3    3    0    0 -0.90528036356E-01 -0.10623044922E+00 -0.33225994038E-01  0.89161886498E+00  0.88000000000E+00 0. -1.
        -11    1    4    4    0    0  0.41474073395E-01  0.21886684025E-01 -0.89542385822E-03  0.46906168106E-01  0.51100000000E-03 0. -1.
         11    1    4    4    0    0  0.37671207604E-01  0.77909866094E-01  0.27916863381E-01  0.90932279742E-01  0.51100000000E-03 0.  1.
</event>
<event>
 8    1  0.2824193E+004  0.1043930E+01  0.7957747E-01            NaN
         13   -1    0    0    0    0  0.00000000000E+00  0.00000000000E+00  0.74505805969E-08  0.10566000000E+00  0.10566000000E+00 0.  1.
     999900   -1    0    0    0    0 -0.00000000000E+00 -0.00000000000E+00 -0.74505805969E-08  0.93827000000E+00  0.93827000000E+00 0.  1.
     999902    2    1    2    0    0  0.13278056073E-01 -0.94977009277E-04 -0.36741846746E-02  0.10301526481E+01  0.10300605142E+01 0.  0.
     999903    2    3    3    0    0 -0.98146434832E-01  0.73045356413E-01 -0.48258420941E-01  0.13900020336E+00  0.44987049026E-01 0.  0.
         14    1    1    2    0    0 -0.13278056073E-01  0.94977009277E-04  0.36741846746E-02  0.13777351949E-01  0.00000000000E+00 0.  1.
     999901    1    3    3    0    0  0.11142449090E+00 -0.73140333422E-01  0.44584236266E-01  0.89115244469E+00  0.88000000000E+00 0.  1.
        -11    1    4    4    0    0 -0.65662319601E-01  0.20946348042E-01 -0.27040920812E-01  0.74038923757E-01  0.51100000000E-03 0. -1.
         11    1    4    4    0    0 -0.32484115231E-01  0.52099008371E-01 -0.21217500129E-01  0.64961279608E-01  0.51100000000E-03 0.  1.
</event>
<event>
 8    1  0.2824193E+004  0.1043930E+01  0.7957747E-01            NaN
         13   -1    0    0    0    0  0.00000000000E+00  0.00000000000E+00  0.74505805969E-08  0.10566000000E+00  0.10566000000E+00 0. -1.
     999900   -1    0    0    0    0 -0.00000000000E+00 -0.00000000000E+00 -0.74505805969E-08  0.93827000000E+00  0.93827000000E+00 0.  1.
     999902    2    1    2    0    0  0.38951314772E-02 -0.11733126902E-01  0.61051909044E-02  0.10301419011E+01  0.10300496224E+01 0.  0.
     999903    2    3    3    0    0  0.11106423711E+00 -0.25013856621E-01 -0.68743827142E-01  0.14038689519E+00  0.44964528057E-01 0.  0.
         14    1    1    2    0    0 -0.38951314772E-02  0.11733126902E-01 -0.61051909044E-02  0.13788098930E-01  0.00000000000E+00 0.  1.
     999901    1    3    3    0    0 -0.10716910563E+00  0.13280729718E-01  0.74849018046E-01  0.88975500588E+00  0.88000000000E+00 0. -1.
        -11    1    4    4    0    0  0.13754853208E-01 -0.14504155405E-01  0.12865729060E-02  0.20037038245E-01  0.51100000000E-03 0.  1.
         11    1    4    4    0    0  0.97309383902E-01 -0.10509701216E-01 -0.70030400048E-01  0.12034985695E+00  0.51100000000E-03 0. -1.
</event>
<event>
 8    1  0.2824193E+004  0.1043930E+01  0.7957747E-01            NaN
         13   -1    0    0    0    0  0.00000000000E+00  0.00000000000E+00  0.74505805969E-08  0.10566000000E+00  0.10566000000E+00 0. -1.
     999900   -1    0    0    0    0 -0.00000000000E+00 -0.00000000000E+00 -0.74505805969E-08  0.93827000000E+00  0.93827000000E+00 0.  1.
     999902    2    1    2    0    0  0.10048210515E-01  0.66366365967E-02  0.50375468458E-02  0.10308767108E+01  0.10307940651E+01 0.  0.
     999903    2    3    3    0    0  0.10025259787E+00  0.17551348347E-01  0.88349127893E-01  0.14228412592E+00  0.45613275259E-01 0.  0.
         14    1    1    2    0    0 -0.10048210515E-01 -0.66366365967E-02 -0.50375468458E-02  0.13053289168E-01  0.00000000000E+00 0. -1.
     999901    1    3    3    0    0 -0.90204387354E-01 -0.10914711751E-01 -0.83311581047E-01  0.88859258492E+00  0.88000000000E+00 0. -1.
        -11    1    4    4    0    0  0.35807790283E-02  0.61958260149E-02  0.25331339747E-01  0.26327706563E-01  0.51100000000E-03 0. -1.
         11    1    4    4    0    0  0.96671818842E-01  0.11355522332E-01  0.63017788146E-01  0.11595641935E+00  0.51100000000E-03 0.  1.
</event>
<event>
 8    1  0.2824193E+004  0.1043930E+01  0.7957747E-01            NaN
         13   -1    0    0    0    0  0.00000000000E+00  0.00000000000E+00  0.74505805969E-08  0.10566000000E+00  0.10566000000E+00 0. -1.
     999900   -1    0    0    0    0 -0.00000000000E+00 -0.00000000000E+00 -0.74505805969E-08  0.93827000000E+00  0.93827000000E+00 0. -1.
     999902    2    1    2    0    0 -0.11281862337E-01 -0.38674208250E-02 -0.54021490040E-02  0.10308372319E+01  0.10307540823E+01 0.  0.
     999903    2    3    3    0    0  0.72564001834E-01  0.10988488137E+00 -0.85146662517E-02  0.13955758842E+00  0.45426857987E-01 0.  0.
         14    1    1    2    0    0  0.11281862337E-01  0.38674208250E-02  0.54021490040E-02  0.13092768061E-01  0.00000000000E+00 0. -1.
     999901    1    3    3    0    0 -0.83845864171E-01 -0.11375230220E+00  0.31125172477E-02  0.89127964352E+00  0.88000000000E+00 0. -1.
        -11    1    4    4    0    0  0.49472651624E-01  0.37109750320E-01 -0.12518276779E-01  0.63100278938E-01  0.51100000000E-03 0.  1.
         11    1    4    4    0    0  0.23091350210E-01  0.72775131054E-01  0.40036105276E-02  0.76457309479E-01  0.51100000000E-03 0. -1.
</event>
<event>
 8    1  0.2824193E+004  0.1043930E+01  0.7957747E-01            NaN
         13   -1    0    0    0    0  0.00000000000E+00  0.00000000000E+00  0.74505805969E-08  0.10566000000E+00  0.10566000000E+00 0.  1.
     999900   -1    0    0    0    0 -0.00000000000E+00 -0.00000000000E+00 -0.74505805969E-08  0.93827000000E+00  0.93827000000E+00 0.  1.
     999902    2    1    2    0    0  0.94081163984E-02 -0.12091789285E-01  0.22045285052E-02  0.10284514998E+01  0.10283350152E+01 0.  0.
     999903    2    3    3    0    0  0.58990285805E-01  0.39429263915E-02  0.11810405220E+00  0.13932372315E+00  0.44352364058E-01 0.  0.
         14    1    1    2    0    0 -0.94081163984E-02  0.12091789285E-01 -0.22045285052E-02  0.15478500193E-01  0.00000000000E+00 0. -1.
     999901    1    3    3    0    0 -0.49582169406E-01 -0.16034715677E-01 -0.11589952370E+00  0.88912777666E+00  0.88000000000E+00 0.  1.
        -11    1    4    4    0    0  0.10474957738E-01  0.18447927510E-01  0.21256411651E-01  0.30035760791E-01  0.51100000000E-03 0.  1.
         11    1    4    4    0    0  0.48515328067E-01 -0.14505001119E-01  0.96847640553E-01  0.10928796236E+00  0.51100000000E-03 0. -1.
</event>
<event>
 8    1  0.2824193E+004  0.1043930E+01  0.7957747E-01            NaN
         13   -1    0    0    0    0  0.00000000000E+00  0.00000000000E+00  0.74505805969E-08  0.10566000000E+00  0.10566000000E+00 0.  1.
     999900   -1    0    0    0    0 -0.00000000000E+00 -0.00000000000E+00 -0.74505805969E-08  0.93827000000E+00  0.93827000000E+00 0.  1.
     999902    2    1    2    0    0  0.27009033970E-02  0.11534757804E-01 -0.79089191326E-02  0.10296858251E+01  0.10295872969E+01 0.  0.
     999903    2    3    3    0    0 -0.33645755590E-01  0.12272297165E+00 -0.41821233200E-01  0.14129742830E+00  0.44977583963E-01 0.  0.
         14    1    1    2    0    0 -0.27009033970E-02 -0.11534757804E-01  0.79089191326E-02  0.14244174901E-01  0.00000000000E+00 0.  1.
     999901    1    3    3    0    0  0.36346658987E-01 -0.11118821384E+00  0.33912314067E-01  0.88838839680E+00  0.88000000000E+00 0.  1.
        -11    1    4    4    0    0  0.90118908805E-02  0.39827008651E-01 -0.53400740263E-02  0.41184733906E-01  0.51100000000E-03 0.  1.
         11    1    4    4    0    0 -0.42657646470E-01  0.82895962997E-01 -0.36481159173E-01  0.10011269440E+00  0.51100000000E-03 0. -1.
</event>
<event>
 8    1  0.2824193E+004  0.1043930E+01  0.7957747E-01            NaN
         13   -1    0    0    0    0  0.00000000000E+00  0.00000000000E+00  0.74505805969E-08  0.10566000000E+00  0.10566000000E+00 0. -1.
     999900   -1    0    0    0    0 -0.00000000000E+00 -0.00000000000E+00 -0.74505805969E-08  0.93827000000E+00  0.93827000000E+00 0.  1.
     999902    2    1    2    0    0 -0.11163202034E-01  0.55809305442E-02  0.35069078523E-04  0.10314494113E+01  0.10313739006E+01 0.  0.
     999903    2    3    3    0    0  0.12050562227E+00 -0.24871216216E-02  0.54741953455E-01  0.13993686735E+00  0.45363582346E-01 0.  0.
         14    1    1    2    0    0  0.11163202034E-01 -0.55809305442E-02 -0.35069078523E-04  0.12480588738E-01  0.00000000000E+00 0. -1.
     999901    1    3    3    0    0 -0.13166882430E+00  0.80680521658E-02 -0.54706884376E-01  0.89151254391E+00  0.88000000000E+00 0.  1.
        -11    1    4    4    0    0  0.71718492073E-01 -0.11134968297E-01  0.53856418416E-01  0.90378673091E-01  0.51100000000E-03 0.  1.
         11    1    4    4    0    0  0.48787130194E-01  0.86478466756E-02  0.88553503898E-03  0.49558194257E-01  0.51100000000E-03 0. -1.
</event>
<event>
 8    1  0.2824193E+004  0.1043930E+01  0.7957747E-01            NaN
         13   -1    0    0    0    0  0.00000000000E+00  0.00000000000E+00  0.74505805969E-08  0.10566000000E+00  0.10566000000E+00 0. -1.
     999900   -1    0    0    0    0 -0.00000000000E+00 -0.00000000000E+00 -0.74505805969E-08  0.93827000000E+00  0.93827000000E+00 0. -1.
     999902    2    1    2    0    0 -0.11428659161E-01  0.63926432367E-02  0.55442827439E-02  0.10297096199E+01  0.10296114229E+01 0.  0.
     999903    2    3    3    0    0 -0.11788177507E+00 -0.59476774496E-01 -0.18608753586E-01  0.14052211708E+00  0.44346139433E-01 0.  0.
         14    1    1    2    0    0  0.11428659161E-01 -0.63926432367E-02 -0.55442827439E-02  0.14220380055E-01  0.00000000000E+00 0.  1.
     999901    1    3    3    0    0  0.10645311591E+00  0.65869417732E-01  0.24153036330E-01  0.88918750286E+00  0.88000000000E+00 0.  1.
        -11    1    4    4    0    0 -0.54128157500E-01 -0.11911391922E-01  0.93476580980E-02  0.56208349244E-01  0.51100000000E-03 0.  1.
         11    1    4    4    0    0 -0.63753617567E-01 -0.47565382573E-01 -0.27956411684E-01  0.84313767841E-01  0.51100000000E-03 0. -1.
</event>
<event>
 8    1  0.2824193E+004  0.1043930E+01  0.7957747E-01            NaN
         13   -1    0    0    0    0  0.00000000000E+00  0.00000000000E+00  0.74505805969E-08  0.10566000000E+00  0.10566000000E+00 0.  1.
     999900   -1    0    0    0    0 -0.00000000000E+00 -0.00000000000E+00 -0.74505805969E-08  0.93827000000E+00  0.93827000000E+00 0. -1.
     999902    2    1    2    0    0 -0.12100822855E-01 -0.23660153771E-02 -0.52086153161E-02  0.10305450227E+01  0.10304580954E+01 0.  0.
     999903    2    3    3    0    0  0.12206759303E+00 -0.47440761534E-01  0.12257578298E-01  0.13906425207E+00  0.45138618224E-01 0.  0.
         14    1    1    2    0    0  0.12100822855E-01  0.23660153771E-02  0.52086153161E-02  0.13384977252E-01  0.00000000000E+00 0.  1.
     999901    1    3    3    0    0 -0.13416841589E+00  0.45074746157E-01 -0.17466193614E-01  0.89148077067E+00  0.88000000000E+00 0.  1.
        -11    1    4    4    0    0  0.50634962593E-01 -0.37576252686E-01  0.20913525677E-01  0.66434259836E-01  0.51100000000E-03 0. -1.
         11    1    4    4    0    0  0.71432630440E-01 -0.98645088486E-02 -0.86559473788E-02  0.72629992238E-01  0.51100000000E-03 0.  1.
</event>
<event>
 8    1  0.2824193E+004  0.1043930E+01  0.7957747E-01            NaN
         13   -1    0    0    0    0  0.00000000000E+00  0.00000000000E+00  0.74505805969E-08  0.10566000000E+00  0.10566000000E+00 0.  1.
     999900   -1    0    0    0    0 -0.00000000000E+00 -0.00000000000E+00 -0.74505805969E-08  0.93827000000E+00  0.93827000000E+00 0.  1.
     999902    2    1    2    0    0  0.34345872403E-02  0.20943478835E-02 -0.13787091214E-01  0.10295680166E+01  0.10294678403E+01 0.  0.
     999903    2    3    3    0    0 -0.59894772457E-01  0.43098707338E-01  0.10759982840E+00  0.13803745093E+00  0.45074742887E-01 0.  0.
         14    1    1    2    0    0 -0.34345872403E-02 -0.20943478835E-02  0.13787091214E-01  0.14361983384E-01  0.00000000000E+00 0.  1.
     999901    1    3    3    0    0  0.63329359697E-01 -0.41004359455E-01 -0.12138691961E+00  0.89153056568E+00  0.88000000000E+00 0.  1.
        -11    1    4    4    0    0 -0.14736760579E-01 -0.40801678329E-02  0.45163197611E-01  0.47684330984E-01  0.51100000000E-03 0.  1.
         11    1    4    4    0    0 -0.45158011878E-01  0.47178875171E-01  0.62436630789E-01  0.90353119949E-01  0.51100000000E-03 0. -1.
</event>
<event>
 8    1  0.2824193E+004  0.1043930E+01  0.7957747E-01            NaN
         13   -1    0    0    0    0  0.00000000000E+00  0.00000000000E+00  0.74505805969E-08  0.10566000000E+00  0.10566000000E+00 0. -1.
     999900   -1    0    0    0    0 -0.00000000000E+00 -0.00000000000E+00 -0.74505805969E-08  0.93827000000E+00  0.93827000000E+00 0.  1.
     999902    2    1    2    0    0  0.90184166855E-02 -0.49884292352E-02  0.94098674094E-02  0.10299742890E+01  0.10298797377E+01 0.  0.
     999903    2    3    3    0    0  0.68063800608E-01  0.10393179617E+00 -0.45595198085E-01  0.13959485856E+00  0.44421877940E-01 0.  0.
         14    1    1    2    0    0 -0.90184166855E-02  0.49884292352E-02 -0.94098674094E-02  0.13955711032E-01  0.00000000000E+00 0.  1.
     999901    1    3    3    0    0 -0.59045383923E-01 -0.10892022540E+00  0.55005065495E-01  0.89037943041E+00  0.88000000000E+00 0. -1.
        -11    1    4    4    0    0  0.17220478987E-01  0.66449672297E-01 -0.20722754033E-01  0.71706328177E-01  0.51100000000E-03 0.  1.
         11    1    4    4    0    0  0.50843321621E-01  0.37482123872E-01 -0.24872444052E-01  0.67888530383E-01  0.51100000000E-03 0. -1.
</event>
<event>
 8    1  0.2824193E+004  0.1043930E+01  0.7957747E-01            NaN
         13   -1    0    0    0    0  0.00000000000E+00  0.00000000000E+00  0.74505805969E-08  0.10566000000E+00  0.10566000000E+00 0. -1.
     999900   -1    0    0    0    0 -0.00000000000E+00 -0.00000000000E+00 -0.74505805969E-08  0.93827000000E+00  0.93827000000E+00 0. -1.
     999902    2    1    2    0    0 -0.12795047197E-01 -0.49000883637E-02  0.43384056884E-04  0.10302286869E+01  0.10301375740E+01 0.  0.
     999903    2    3    3    0    0  0.81032666974E-01 -0.31549914045E-02  0.10359621422E+00  0.13920126086E+00  0.45481516416E-01 0.  0.
         14    1    1    2    0    0  0.12795047197E-01  0.49000883637E-02 -0.43384056884E-04  0.13701313110E-01  0.00000000000E+00 0.  1.
     999901    1    3    3    0    0 -0.93827714171E-01 -0.17450969591E-02 -0.10355283016E+00  0.89102742603E+00  0.88000000000E+00 0. -1.
        -11    1    4    4    0    0  0.44675265299E-01  0.17572352192E-02  0.22206748830E-01  0.49923621861E-01  0.51100000000E-03 0. -1.
         11    1    4    4    0    0  0.36357401675E-01 -0.49122266237E-02  0.81389465391E-01  0.89277638995E-01  0.51100000000E-03 0.  1.
</event>
<event>
 8    1  0.2824193E+004  0.1043930E+01  0.7957747E-01            NaN
         13   -1    0    0    0    0  0.00000000000E+00  0.00000000000E+00  0.74505805969E-08  0.10566000000E+00  0.10566000000E+00 0. -1.
     999900   -1    0    0    0    0 -0.00000000000E+00 -0.00000000000E+00 -0.74505805969E-08  0.93827000000E+00  0.93827000000E+00 0.  1.
     999902    2    1    2    0    0 -0.51383686875E-03 -0.96029364759E-02  0.12458921228E-01  0.10281913490E+01  0.10280708852E+01 0.  0.
     999903    2    3    3    0    0 -0.31076414936E-01  0.12494730779E+00  0.18061279968E-01  0.13742245313E+00  0.44510083138E-01 0.  0.
         14    1    1    2    0    0  0.51383686875E-03  0.96029364759E-02 -0.12458921228E-01  0.15738651005E-01  0.00000000000E+00 0.  1.
     999901    1    3    3    0    0  0.30562578067E-01 -0.13455024427E+00 -0.56023587395E-02  0.89076889586E+00  0.88000000000E+00 0.  1.
        -11    1    4    4    0    0  0.73732500934E-02  0.33445974165E-01 -0.72086808930E-02  0.35003202796E-01  0.51100000000E-03 0.  1.
         11    1    4    4    0    0 -0.38449665029E-01  0.91501333629E-01  0.25269960861E-01  0.10241925034E+00  0.51100000000E-03 0. -1.
</event>
<event>
 8    1  0.2824193E+004  0.1043930E+01  0.7957747E-01            NaN
         13   -1    0    0    0    0  0.00000000000E+00  0.00000000000E+00  0.74505805969E-08  0.10566000000E+00  0.10566000000E+00 0.  1.
     999900   -1    0    0    0    0 -0.00000000000E+00 -0.00000000000E+00 -0.74505805969E-08  0.93827000000E+00  0.93827000000E+00 0.  1.
     999902    2    1    2    0    0 -0.78637399457E-02 -0.25097165828E-02  0.10247481430E-01  0.10307714302E+01  0.10306874373E+01 0.  0.
     999903    2    3    3    0    0  0.33842495794E-01  0.12507411286E+00 -0.27503923229E-01  0.13979319693E+00  0.44685835401E-01 0.  0.
         14    1    1    2    0    0  0.78637399457E-02  0.25097165828E-02 -0.10247481430E-01  0.13158569790E-01  0.00000000000E+00 0. -1.
     999901    1    3    3    0    0 -0.41706235739E-01 -0.12758382944E+00  0.37751404659E-01  0.89097823328E+00  0.88000000000E+00 0. -1.
        -11    1    4    4    0    0  0.34268848400E-01  0.48760377979E-01 -0.31442422811E-02  0.59683128369E-01  0.51100000000E-03 0.  1.
         11    1    4    4    0    0 -0.42635260594E-03  0.76313734876E-01 -0.24359680948E-01  0.80110068557E-01  0.51100000000E-03 0. -1.
</event>
<event>
 8    1  0.2824193E+004  0.1043930E+01  0.7957747E-01            NaN
         13   -1    0    0    0    0  0.00000000000E+00  0.00000000000E+00  0.74505805969E-08  0.10566000000E+00  0.10566000000E+00 0. -1.
     999900   -1    0    0    0    0 -0.00000000000E+00 -0.00000000000E+00 -0.74505805969E-08  0.93827000000E+00  0.93827000000E+00 0.  1.
     999902    2    1    2    0    0  0.45445647266E-02 -0.13367011439E-01  0.30513382276E-02  0.10294855987E+01  0.10293842612E+01 0.  0.
     999903    2    3    3    0    0 -0.50386064496E-01  0.62941252680E-01  0.10379901606E+00  0.13876093880E+00  0.44497254056E-01 0.  0.
         14    1    1    2    0    0 -0.45445647266E-02  0.13367011439E-01 -0.30513382276E-02  0.14444401280E-01  0.00000000000E+00 0.  1.
     999901    1    3    3    0    0  0.54930629223E-01 -0.76308264119E-01 -0.10074767783E+00  0.89072465992E+00  0.88000000000E+00 0.  1.
        -11    1    4    4    0    0 -0.22148468533E-01  0.11269054234E-03  0.34865653346E-01  0.41309106281E-01  0.51100000000E-03 0.  1.
         11    1    4    4    0    0 -0.28237595963E-01  0.62828562138E-01  0.68933362710E-01  0.97451832520E-01  0.51100000000E-03 0. -1.
</event>
<event>
 8    1  0.2824193E+004  0.1043930E+01  0.7957747E-01            NaN
         13   -1    0    0    0    0  0.00000000000E+00  0.00000000000E+00  0.74505805969E-08  0.10566000000E+00  0.10566000000E+00 0.  1.
     999900   -1    0    0    0    0 -0.00000000000E+00 -0.00000000000E+00 -0.74505805969E-08  0.93827000000E+00  0.93827000000E+00 0.  1.
     999902    2    1    2    0    0  0.81036951405E-02 -0.81833188489E-02  0.75411007549E-02  0.10301639264E+01  0.10300719443E+01 0.  0.
     999903    2    3    3    0    0 -0.32595890137E-02  0.12245854783E+00 -0.38218701428E-01  0.13927090191E+00  0.54120182209E-01 0.  0.
         14    1    1    2    0    0 -0.81036951405E-02  0.81833188489E-02 -0.75411007549E-02  0.13766073620E-01  0.00000000000E+00 0. -1.
     999901    1    3    3    0    0  0.11363284154E-01 -0.13064186668E+00  0.45759802183E-01  0.89089302447E+00  0.88000000000E+00 0. -1.
        -11    1    4    4    0    0  0.20421183610E-01  0.45571676537E-01 -0.30337578976E-01  0.58433143519E-01  0.51100000000E-03 0.  1.
         11    1    4    4    0    0 -0.23680772624E-01  0.76886871293E-01 -0.78811224523E-02  0.80837758389E-01  0.51100000000E-03 0. -1.
</event>
<event>
 8    1  0.2824193E+004  0.1043930E+01  0.7957747E-01            NaN
         13   -1    0    0    0    0  0.00000000000E+00  0.00000000000E+00  0.74505805969E-08  0.10566000000E+00  0.10566000000E+00 0. -1.
     999900   -1    0    0    0    0 -0.00000000000E+00 -0.00000000000E+00 -0.74505805969E-08  0.93827000000E+00  0.93827000000E+00 0.  1.
     999902    2    1    2    0    0 -0.11095446758E-01 -0.29839824020E-02 -0.69210638699E-02  0.10305167895E+01  0.10304294926E+01 0.  0.
     999903    2    3    3    0    0  0.78027131806E-01 -0.10688400634E+00 -0.70936932552E-02  0.13993379016E+00  0.44930179575E-01 0.  0.
         14    1    1    2    0    0  0.11095446758E-01  0.29839824020E-02  0.69210638699E-02  0.13413210459E-01  0.00000000000E+00 0. -1.
     999901    1    3    3    0    0 -0.89122578563E-01  0.10390002393E+00  0.17262938525E-03  0.89058299938E+00  0.88000000000E+00 0.  1.
        -11    1    4    4    0    0  0.47236571931E-01 -0.95570746165E-01 -0.95478716615E-02  0.10703496730E+00  0.51100000000E-03 0.  1.
         11    1    4    4    0    0  0.30790559875E-01 -0.11313260171E-01  0.24541784063E-02  0.32898822863E-01  0.51100000000E-03 0. -1.
</event>
<event>
 8    1  0.2824193E+004  0.1043930E+01  0.7957747E-01            NaN
         13   -1    0    0    0    0  0.00000000000E+00  0.00000000000E+00  0.74505805969E-08  0.10566000000E+00  0.10566000000E+00 0.  1.
     999900   -1    0    0    0    0 -0.00000000000E+00 -0.00000000000E+00 -0.74505805969E-08  0.93827000000E+00  0.93827000000E+00 0. -1.
     999902    2    1    2    0    0  0.61028243237E-02  0.85904605796E-02  0.11100960411E-01  0.10286240600E+01  0.10285101774E+01 0.  0.
     999903    2    3    3    0    0 -0.12682768430E+00 -0.26551968991E-01 -0.38101012503E-02  0.13782225810E+00  0.46799459349E-01 0.  0.
         14    1    1    2    0    0 -0.61028243237E-02 -0.85904605796E-02 -0.11100960411E-01  0.15305940015E-01  0.00000000000E+00 0. -1.
     999901    1    3    3    0    0  0.13293050862E+00  0.35142429570E-01  0.14911061661E-01  0.89080180188E+00  0.88000000000E+00 0.  1.
        -11    1    4    4    0    0 -0.12397677663E+00 -0.30979224434E-01 -0.11698452349E-01  0.12832407568E+00  0.51100000000E-03 0. -1.
         11    1    4    4    0    0 -0.28509076646E-02  0.44272554432E-02  0.78883510984E-02  0.94981824221E-02  0.51100000000E-03 0.  1.
</event>
<event>
 8    1  0.2824193E+004  0.1043930E+01  0.7957747E-01            NaN
         13   -1    0    0    0    0  0.00000000000E+00  0.00000000000E+00  0.74505805969E-08  0.10566000000E+00  0.10566000000E+00 0. -1.
     999900   -1    0    0    0    0 -0.00000000000E+00 -0.00000000000E+00 -0.74505805969E-08  0.93827000000E+00  0.93827000000E+00 0.  1.
     999902    2    1    2    0    0  0.50622436241E-02  0.90322397621E-02  0.68920963669E-02  0.10314918065E+01  0.10314168111E+01 0.  0.
     999903    2    3    3    0    0  0.12019022867E+00 -0.58160113456E-01  0.12187474603E-01  0.14143714170E+00  0.45029331012E-01 0.  0.
         14    1    1    2    0    0 -0.50622436241E-02 -0.90322397621E-02 -0.68920963669E-02  0.12438193517E-01  0.00000000000E+00 0.  1.
     999901    1    3    3    0    0 -0.11512798504E+00  0.67192353218E-01 -0.52953782362E-02  0.89005466478E+00  0.88000000000E+00 0. -1.
        -11    1    4    4    0    0  0.77971266856E-01 -0.56157886245E-01  0.20757816711E-01  0.98307551685E-01  0.51100000000E-03 0.  1.
         11    1    4    4    0    0  0.42218961810E-01 -0.20022272106E-02 -0.85703421081E-02  0.43129590016E-01  0.51100000000E-03 0. -1.
</event>
<event>
 6    1  0.2824193E+004  0.1043930E+01  0.7957747E-01            NaN
         13   -1    0    0    0    0  0.00000000000E+00  0.00000000000E+00  0.74505805969E-08  0.10566000000E+00  0.10566000000E+00 0. -1.
     999900   -1    0    0    0    0 -0.00000000000E+00 -0.00000000000E+00 -0.74505805969E-08  0.93827000000E+00  0.93827000000E+00 0.  1.
         14    1    1    2    0    0 -0.37104328195E-01 -0.12285013447E-01 -0.21129912742E-01  0.44431137041E-01  0.00000000000E+00 0. -1.
     999901    1    1    2    0    0 -0.37964282168E-02 -0.78628745357E-01  0.67835591411E-01  0.88611430410E+00  0.88000000000E+00 0. -1.
        -11    1    1    2    0    0  0.13745594790E-01  0.76687826172E-02 -0.66791724614E-02  0.17106258175E-01  0.51100000000E-03 0. -1.
         11    1    1    2    0    0  0.27155161622E-01  0.83244976187E-01 -0.40026506207E-01  0.96278300687E-01  0.51100000000E-03 0.  1.
</event>
<event>
 8    1  0.2824193E+004  0.1043930E+01  0.7957747E-01            NaN
         13   -1    0    0    0    0  0.00000000000E+00  0.00000000000E+00  0.74505805969E-08  0.10566000000E+00  0.10566000000E+00 0. -1.
     999900   -1    0    0    0    0 -0.00000000000E+00 -0.00000000000E+00 -0.74505805969E-08  0.93827000000E+00  0.93827000000E+00 0. -1.
     999902    2    1    2    0    0 -0.49492186953E-04  0.93551649911E-02  0.91391459598E-02  0.10308515616E+01  0.10307685951E+01 0.  0.
     999903    2    3    3    0    0  0.27172860605E-01  0.51205727301E-01  0.12181364150E+00  0.14226387996E+00  0.45166994868E-01 0.  0.
         14    1    1    2    0    0  0.49492186953E-04 -0.93551649911E-02 -0.91391459598E-02  0.13078438376E-01  0.00000000000E+00 0.  1.
     999901    1    3    3    0    0 -0.27222352792E-01 -0.41850562310E-01 -0.11267449554E+00  0.88858768166E+00  0.88000000000E+00 0. -1.
        -11    1    4    4    0    0 -0.10494916019E-01  0.12750324328E-01  0.49005727616E-01  0.51715921077E-01  0.51100000000E-03 0.  1.
         11    1    4    4    0    0  0.37667776624E-01  0.38455402973E-01  0.72807913880E-01  0.90547958885E-01  0.51100000000E-03 0. -1.
</event>
<event>
 8    1  0.2824193E+004  0.1043930E+01  0.7957747E-01            NaN
         13   -1    0    0    0    0  0.00000000000E+00  0.00000000000E+00  0.74505805969E-08  0.10566000000E+00  0.10566000000E+00 0. -1.
     999900   -1    0    0    0    0 -0.00000000000E+00 -0.00000000000E+00 -0.74505805969E-08  0.93827000000E+00  0.93827000000E+00 0. -1.
     999902    2    1    2    0    0 -0.21390537261E-02 -0.12869585779E-01  0.57192735420E-02  0.10296852859E+01  0.10295867502E+01 0.  0.
     999903    2    3    3    0    0  0.66347717429E-01 -0.76010653678E-01 -0.85618971636E-01  0.14006744253E+00  0.45919941978E-01 0.  0.
         14    1    1    2    0    0  0.21390537261E-02  0.12869585779E-01 -0.57192735420E-02  0.14244714065E-01  0.00000000000E+00 0.  1.
     999901    1    3    3    0    0 -0.68486771155E-01  0.63141067899E-01  0.91338245178E-01  0.88961784341E+00  0.88000000000E+00 0.  1.
        -11    1    4    4    0    0  0.44270602248E-01 -0.21501028517E-01 -0.54839321340E-01  0.73687127348E-01  0.51100000000E-03 0. -1.
         11    1    4    4    0    0  0.22077115181E-01 -0.54509625160E-01 -0.30779650295E-01  0.66380315178E-01  0.51100000000E-03 0.  1.
</event>
<event>
 8    1  0.2824193E+004  0.1043930E+01  0.7957747E-01            NaN
         13   -1    0    0    0    0  0.00000000000E+00  0.00000000000E+00  0.74505805969E-08  0.10566000000E+00  0.10566000000E+00 0. -1.
     999900   -1    0    0    0    0 -0.00000000000E+00 -0.00000000000E+00 -0.74505805969E-08  0.93827000000E+00  0.93827000000E+00 0.  1.
     999902    2    1    2    0    0 -0.76145217275E-02  0.72231145641E-02 -0.82580534020E-02  0.10305752341E+01  0.10304887013E+01 0.  0.
     999903    2    3    3    0    0  0.29283758063E-01 -0.12602211065E+00 -0.26900408980E-01  0.13958516096E+00  0.44958584238E-01 0.  0.
         14    1    1    2    0    0  0.76145217275E-02 -0.72231145641E-02  0.82580534020E-02  0.13354765859E-01  0.00000000000E+00 0. -1.
     999901    1    3    3    0    0 -0.36898279791E-01  0.13324522521E+00  0.18642355578E-01  0.89099007319E+00  0.88000000000E+00 0.  1.
        -11    1    4    4    0    0  0.24663486074E-01 -0.55817060236E-01 -0.32250820379E-01  0.69023244598E-01  0.51100000000E-03 0.  1.
         11    1    4    4    0    0  0.46202719893E-02 -0.70205050414E-01  0.53504113988E-02  0.70561916358E-01  0.51100000000E-03 0. -1.
</event>
<event>
 8    1  0.2824193E+004  0.1043930E+01  0.7957747E-01            NaN
         13   -1    0    0    0    0  0.00000000000E+00  0.00000000000E+00  0.74505805969E-08  0.10566000000E+00  0.10566000000E+00 0.  1.
     999900   -1    0    0    0    0 -0.00000000000E+00 -0.00000000000E+00 -0.74505805969E-08  0.93827000000E+00  0.93827000000E+00 0. -1.
     999902    2    1    2    0    0 -0.49710093548E-02  0.96509139556E-02  0.91273364788E-02  0.10297469346E+01  0.10296492558E+01 0.  0.
     999903    2    3    3    0    0  0.43956621189E-01  0.92920663667E-01 -0.86360781172E-01  0.13932807533E+00  0.37251761954E-01 0.  0.
         14    1    1    2    0    0  0.49710093548E-02 -0.96509139556E-02 -0.91273364788E-02  0.14183065444E-01  0.00000000000E+00 0.  1.
     999901    1    3    3    0    0 -0.48927630544E-01 -0.83269749712E-01  0.95488117651E-01  0.89041885922E+00  0.88000000000E+00 0.  1.
        -11    1    4    4    0    0  0.13470095946E-01  0.63237145573E-01 -0.38359474847E-01  0.75180386382E-01  0.51100000000E-03 0.  1.
         11    1    4    4    0    0  0.30486525243E-01  0.29683518094E-01 -0.48001306325E-01  0.64147688951E-01  0.51100000000E-03 0. -1.
</event>
<event>
 8    1  0.2824193E+004  0.1043930E+01  0.7957747E-01            NaN
         13   -1    0    0    0    0  0.00000000000E+00  0.00000000000E+00  0.74505805969E-08  0.10566000000E+00  0.10566000000E+00 0.  1.
     999900   -1    0    0    0    0 -0.00000000000E+00 -0.00000000000E+00 -0.74505805969E-08  0.93827000000E+00  0.93827000000E+00 0.  1.
     999902    2    1    2    0    0 -0.78665899621E-02  0.11177028190E-01  0.14757446871E-02  0.10301827450E+01  0.10300910159E+01 0.  0.
     999903    2    3    3    0    0 -0.10466857724E+00  0.76026975855E-01 -0.36318097743E-01  0.14169835295E+00  0.44986741204E-01 0.  0.
         14    1    1    2    0    0  0.78665899621E-02 -0.11177028190E-01 -0.14757446871E-02  0.13747254969E-01  0.00000000000E+00 0.  1.
     999901    1    3    3    0    0  0.96801987281E-01 -0.64849947664E-01  0.37793842430E-01  0.88848439209E+00  0.88000000000E+00 0. -1.
        -11    1    4    4    0    0 -0.48870381152E-01  0.37256745560E-01  0.58460669177E-02  0.61731814027E-01  0.51100000000E-03 0. -1.
         11    1    4    4    0    0 -0.55798196091E-01  0.38770230295E-01 -0.42164164661E-01  0.79966538919E-01  0.51100000000E-03 0.  1.
</event>
<event>
 8    1  0.2824193E+004  0.1043930E+01  0.7957747E-01            NaN
         13   -1    0    0    0    0  0.00000000000E+00  0.00000000000E+00  0.74505805969E-08  0.10566000000E+00  0.10566000000E+00 0.  1.
     999900   -1    0    0    0    0 -0.00000000000E+00 -0.00000000000E+00 -0.74505805969E-08  0.93827000000E+00  0.93827000000E+00 0. -1.
     999902    2    1    2    0    0  0.14227759817E-01  0.38057811760E-04 -0.77958154552E-04  0.10297019757E+01  0.10296036723E+01 0.  0.
     999903    2    3    3    0    0  0.84295122100E-01 -0.39177879587E-01 -0.95610858950E-01  0.14089723892E+00  0.45497491436E-01 0.  0.
         14    1    1    2    0    0 -0.14227759817E-01 -0.38057811760E-04  0.77958154552E-04  0.14228024293E-01  0.00000000000E+00 0. -1.
     999901    1    3    3    0    0 -0.70067362284E-01  0.39215937398E-01  0.95532900795E-01  0.88880473679E+00  0.88000000000E+00 0.  1.
        -11    1    4    4    0    0  0.48191288402E-01 -0.10270085817E-01 -0.76180192677E-01  0.90727932952E-01  0.51100000000E-03 0. -1.
         11    1    4    4    0    0  0.36103833698E-01 -0.28907793769E-01 -0.19430666273E-01  0.50169305966E-01  0.51100000000E-03 0.  1.
</event>
<event>
 8    1  0.2824193E+004  0.1043930E+01  0.7957747E-01            NaN
         13   -1    0    0    0    0  0.00000000000E+00  0.00000000000E+00  0.74505805969E-08  0.10566000000E+00  0.10566000000E+00 0. -1.
     999900   -1    0    0    0    0 -0.00000000000E+00 -0.00000000000E+00 -0.74505805969E-08  0.93827000000E+00  0.93827000000E+00 0. -1.
     999902    2    1    2    0    0 -0.10592572189E-01 -0.81042477936E-02 -0.30592507701E-02  0.10302464174E+01  0.10301555417E+01 0.  0.
     999903    2    3    3    0    0  0.11308919284E+00 -0.79881705663E-02  0.69171592984E-01  0.13866664683E+00  0.39884248288E-01 0.  0.
         14    1    1    2    0    0  0.10592572189E-01  0.81042477936E-02  0.30592507701E-02  0.13683582614E-01  0.00000000000E+00 0. -1.
     999901    1    3    3    0    0 -0.12368176503E+00 -0.11607722730E-03 -0.72230843754E-01  0.89157977056E+00  0.88000000000E+00 0. -1.
        -11    1    4    4    0    0  0.21360845650E-01 -0.46187961943E-02  0.33888284749E-01  0.40327360060E-01  0.51100000000E-03 0.  1.
         11    1    4    4    0    0  0.91728347189E-01 -0.33693743720E-02  0.35283308235E-01  0.98339286771E-01  0.51100000000E-03 0. -1.
</event>
<event>
 8    1  0.2824193E+004  0.1043930E+01  0.7957747E-01            NaN
         13   -1    0    0    0    0  0.00000000000E+00  0.00000000000E+00  0.74505805969E-08  0.10566000000E+00  0.10566000000E+00 0. -1.
     999900   -1    0    0    0    0 -0.00000000000E+00 -0.00000000000E+00 -0.74505805969E-08  0.93827000000E+00  0.93827000000E+00 0. -1.
     999902    2    1    2    0    0  0.10213249644E-01 -0.52008331815E-02  0.40831552046E-02  0.10317631890E+01  0.10316914494E+01 0.  0.
     999903    2    3    3    0    0  0.11666084368E+00 -0.62483582970E-01  0.30551215431E-01  0.14310523345E+00  0.45075275806E-01 0.  0.
         14    1    1    2    0    0 -0.10213249644E-01  0.52008331815E-02 -0.40831552046E-02  0.12166811024E-01  0.00000000000E+00 0.  1.
     999901    1    3    3    0    0 -0.10644759404E+00  0.57282749789E-01 -0.26468060227E-01  0.88865795552E+00  0.88000000000E+00 0. -1.
        -11    1    4    4    0    0  0.61739712163E-01 -0.57903071926E-01  0.20307062500E-01  0.87047089008E-01  0.51100000000E-03 0.  1.
         11    1    4    4    0    0  0.54921131516E-01 -0.45805110440E-02  0.10244152932E-01  0.56058144446E-01  0.51100000000E-03 0. -1.
</event>
<event>
 8    1  0.2824193E+004  0.1043930E+01  0.7957747E-01            NaN
         13   -1    0    0    0    0  0.00000000000E+00  0.00000000000E+00  0.74505805969E-08  0.10566000000E+00  0.10566000000E+00 0.  1.
     999900   -1    0    0    0    0 -0.00000000000E+00 -0.00000000000E+00 -0.74505805969E-08  0.93827000000E+00  0.93827000000E+00 0. -1.
     999902    2    1    2    0    0 -0.12113180548E-01  0.33591084756E-02  0.53654751290E-02  0.10302624810E+01  0.10301718200E+01 0.  0.
     999903    2    3    3    0    0 -0.10783253924E+00 -0.77565500503E-01 -0.14752064385E-01  0.14115298077E+00  0.45412302185E-01 0.  0.
         14    1    1    2    0    0  0.12113180548E-01 -0.33591084756E-02 -0.53654751290E-02  0.13667519018E-01  0.00000000000E+00 0. -1.
     999901    1    3    3    0    0  0.95719358693E-01  0.80924608978E-01  0.20117539514E-01  0.88910950021E+00  0.88000000000E+00 0. -1.
        -11    1    4    4    0    0 -0.68438880785E-01 -0.43269263729E-01  0.12994020828E-01  0.82007409939E-01  0.51100000000E-03 0.  1.
         11    1    4    4    0    0 -0.39393658457E-01 -0.34296236774E-01 -0.27746085213E-01  0.59145570833E-01  0.51100000000E-03 0. -1.
</event>
<event>
 8    1  0.2824193E+004  0.1043930E+01  0.7957747E-01            NaN
         13   -1    0    0    0    0  0.00000000000E+00  0.00000000000E+00  0.74505805969E-08  0.10566000000E+00  0.10566000000E+00 0. -1.
     999900   -1    0    0    0    0 -0.00000000000E+00 -0.00000000000E+00 -0.74505805969E-08  0.93827000000E+00  0.93827000000E+00 0. -1.
     999902    2    1    2    0    0  0.13437691638E-01 -0.18561871269E-03 -0.15613914165E-02  0.10304006263E+01  0.10303118007E+01 0.  0.
     999903    2    3    3    0    0 -0.46673534668E-01 -0.68517413910E-01  0.10274179739E+00  0.13957979749E+00  0.45316532183E-01 0.  0.
         14    1    1    2    0    0 -0.13437691638E-01  0.18561871269E-03  0.15613914165E-02  0.13529373748E-01  0.00000000000E+00 0. -1.
     999901    1    3    3    0    0  0.60111226305E-01  0.68331795197E-01 -0.10430318881E+00  0.89082082876E+00  0.88000000000E+00 0. -1.
        -11    1    4    4    0    0 -0.19045421017E-01 -0.62110787888E-01  0.61030989421E-01  0.89137650993E-01  0.51100000000E-03 0.  1.
         11    1    4    4    0    0 -0.27628113650E-01 -0.64066260222E-02  0.41710807968E-01  0.50442146496E-01  0.51100000000E-03 0. -1.
</event>
<event>
 8    1  0.2824193E+004  0.1043930E+01  0.7957747E-01            NaN
         13   -1    0    0    0    0  0.00000000000E+00  0.00000000000E+00  0.74505805969E-08  0.10566000000E+00  0.10566000000E+00 0. -1.
     999900   -1    0    0    0    0 -0.00000000000E+00 -0.00000000000E+00 -0.74505805969E-08  0.93827000000E+00  0.93827000000E+00 0. -1.
     999902    2    1    2    0    0 -0.38081388489E-02  0.97237744771E-02  0.41600686059E-02  0.10326890088E+01  0.10326278270E+01 0.  0.
     999903    2    3    3    0    0  0.27959067577E-01  0.13017410475E+00  0.30061636334E-01  0.14353866796E+00  0.44414414468E-01 0.  0.
         14    1    1    2    0    0  0.38081388489E-02 -0.97237744771E-02 -0.41600686059E-02  0.11240991165E-01  0.00000000000E+00 0. -1.
     999901    1    3    3    0    0 -0.31767206426E-01 -0.12045033028E+00 -0.25901567728E-01  0.88915034088E+00  0.88000000000E+00 0. -1.
        -11    1    4    4    0    0  0.69948256167E-02  0.11113814804E+00  0.18215554101E-01  0.11283919118E+00  0.51100000000E-03 0. -1.
         11    1    4    4    0    0  0.20964241960E-01  0.19035956713E-01  0.11846082233E-01  0.30699476775E-01  0.51100000000E-03 0.  1.
</event>
<event>
 8    1  0.2824193E+004  0.1043930E+01  0.7957747E-01            NaN
         13   -1    0    0    0    0  0.00000000000E+00  0.00000000000E+00  0.74505805969E-08  0.10566000000E+00  0.10566000000E+00 0.  1.
     999900   -1    0    0    0    0 -0.00000000000E+00 -0.00000000000E+00 -0.74505805969E-08  0.93827000000E+00  0.93827000000E+00 0.  1.
     999902    2    1    2    0    0 -0.12244632243E-01  0.11796573465E-01  0.12321980263E-01  0.10229318724E+01  0.10227163313E+01 0.  0.
     999903    2    3    3    0    0  0.59731969663E-01  0.85647032913E-01 -0.68944224263E-01  0.13319105759E+00  0.45642406980E-01 0.  0.
         14    1    1    2    0    0  0.12244632243E-01 -0.11796573465E-01 -0.12321980263E-01  0.20998127580E-01  0.00000000000E+00 0. -1.
     999901    1    3    3    0    0 -0.71976601905E-01 -0.73850459448E-01  0.81266204527E-01  0.88974081483E+00  0.88000000000E+00 0. -1.
        -11    1    4    4    0    0  0.17141281041E-01  0.34048331725E-01 -0.14457338737E-02  0.38150539661E-01  0.51100000000E-03 0. -1.
         11    1    4    4    0    0  0.42590688622E-01  0.51598701188E-01 -0.67498490390E-01  0.95040517925E-01  0.51100000000E-03 0.  1.
</event>
<event>
 8    1  0.2824193E+004  0.1043930E+01  0.7957747E-01            NaN
         13   -1    0    0    0    0  0.00000000000E+00  0.00000000000E+00  0.74505805969E-08  0.10566000000E+00  0.10566000000E+00 0. -1.
     999900   -1    0    0    0    0 -0.00000000000E+00 -0.00000000000E+00 -0.74505805969E-08  0.93827000000E+00  0.93827000000E+00 0.  1.
     999902    2    1    2    0    0 -0.39602368719E-02  0.66874810491E-02 -0.91296345231E-02  0.10319401666E+01  0.10318705109E+01 0.  0.
     999903    2    3    3    0    0 -0.66827631049E-01 -0.71389597657E-01  0.90624424917E-01  0.14064941052E+00  0.44800260740E-01 0.  0.
         14    1    1    2    0    0  0.39602368719E-02 -0.66874810491E-02  0.91296345231E-02  0.11989833418E-01  0.00000000000E+00 0. -1.
     999901    1    3    3    0    0  0.62867394177E-01  0.78077078706E-01 -0.99754059440E-01  0.89129075606E+00  0.88000000000E+00 0.  1.
        -11    1    4    4    0    0 -0.45526629548E-01 -0.31114483979E-01  0.24491399597E-01  0.60339662631E-01  0.51100000000E-03 0.  1.
         11    1    4    4    0    0 -0.21301001502E-01 -0.40275113678E-01  0.66133025320E-01  0.80309747887E-01  0.51100000000E-03 0. -1.
</event>
<event>
 8    1  0.2824193E+004  0.1043930E+01  0.7957747E-01            NaN
         13   -1    0    0    0    0  0.00000000000E+00  0.00000000000E+00  0.74505805969E-08  0.10566000000E+00  0.10566000000E+00 0. -1.
     999900   -1    0    0    0    0 -0.00000000000E+00 -0.00000000000E+00 -0.74505805969E-08  0.93827000000E+00  0.93827000000E+00 0.  1.
     999902    2    1    2    0    0  0.14640685220E-01  0.24459669509E-02 -0.18561393772E-02  0.10289707998E+01  0.10288620554E+01 0.  0.
     999903    2    3    3    0    0 -0.42237884745E-01  0.11006925268E+00 -0.57631576307E-01  0.13884224573E+00  0.45348553668E-01 0.  0.
         14    1    1    2    0    0 -0.14640685220E-01 -0.24459669509E-02  0.18561393772E-02  0.14959200226E-01  0.00000000000E+00 0. -1.
     999901    1    3    3    0    0  0.56878569965E-01 -0.10762328573E+00  0.55775436930E-01  0.89012855404E+00  0.88000000000E+00 0.  1.
        -11    1    4    4    0    0  0.40382836253E-02  0.36650285549E-01 -0.30669979171E-01  0.47963109875E-01  0.51100000000E-03 0. -1.
         11    1    4    4    0    0 -0.46276168371E-01  0.73418967130E-01 -0.26961597136E-01  0.90879135860E-01  0.51100000000E-03 0.  1.
</event>
<event>
 8    1  0.2824193E+004  0.1043930E+01  0.7957747E-01            NaN
         13   -1    0    0    0    0  0.00000000000E+00  0.00000000000E+00  0.74505805969E-08  0.10566000000E+00  0.10566000000E+00 0.  1.
     999900   -1    0    0    0    0 -0.00000000000E+00 -0.00000000000E+00 -0.74505805969E-08  0.93827000000E+00  0.93827000000E+00 0. -1.
     999902    2    1    2    0    0 -0.59767549344E-02 -0.79107734859E-02  0.78482709513E-02  0.10312849498E+01  0.10312074236E+01 0.  0.
     999903    2    3    3    0    0 -0.90257015008E-02  0.23422405116E-02 -0.13069660769E+00  0.14038141759E+00  0.50382435091E-01 0.  0.
         14    1    1    2    0    0  0.59767549344E-02  0.79107734859E-02 -0.78482709513E-02  0.12645050163E-01  0.00000000000E+00 0.  1.
     999901    1    3    3    0    0  0.30489465664E-02 -0.10253013998E-01  0.13854487864E+00  0.89090353225E+00  0.88000000000E+00 0.  1.
        -11    1    4    4    0    0  0.11353106019E-01 -0.17641210143E-01 -0.73794606558E-01  0.76720338826E-01  0.51100000000E-03 0. -1.
         11    1    4    4    0    0 -0.20378807520E-01  0.19983450654E-01 -0.56902001130E-01  0.63661078766E-01  0.51100000000E-03 0.  1.
</event>
<event>
 8    1  0.2824193E+004  0.1043930E+01  0.7957747E-01            NaN
         13   -1    0    0    0    0  0.00000000000E+00  0.00000000000E+00  0.74505805969E-08  0.10566000000E+00  0.10566000000E+00 0. -1.
     999900   -1    0    0    0    0 -0.00000000000E+00 -0.00000000000E+00 -0.74505805969E-08  0.93827000000E+00  0.93827000000E+00 0.  1.
     999902    2    1    2    0    0 -0.16733952689E-01 -0.50132751137E-04  0.11919683306E-01  0.10233847685E+01  0.10231785171E+01 0.  0.
     999903    2    3    3    0    0  0.44608813512E-01  0.11716491204E+00  0.81457486424E-02  0.13348783952E+00  0.45111941020E-01 0.  0.
         14    1    1    2    0    0  0.16733952689E-01  0.50132751137E-04 -0.11919683306E-01  0.20545231466E-01  0.00000000000E+00 0.  1.
     999901    1    3    3    0    0 -0.61342766200E-01 -0.11721504479E+00  0.37739346633E-02  0.88989692902E+00  0.88000000000E+00 0.  1.
        -11    1    4    4    0    0  0.45491633964E-01  0.56408202468E-01  0.38192565611E-02  0.72568739194E-01  0.51100000000E-03 0. -1.
         11    1    4    4    0    0 -0.88282045275E-03  0.60756709569E-01  0.43264920812E-02  0.60919100324E-01  0.51100000000E-03 0.  1.
</event>
<event>
 8    1  0.2824193E+004  0.1043930E+01  0.7957747E-01            NaN
         13   -1    0    0    0    0  0.00000000000E+00  0.00000000000E+00  0.74505805969E-08  0.10566000000E+00  0.10566000000E+00 0.  1.
     999900   -1    0    0    0    0 -0.00000000000E+00 -0.00000000000E+00 -0.74505805969E-08  0.93827000000E+00  0.93827000000E+00 0. -1.
     999902    2    1    2    0    0 -0.53232892065E-02 -0.82614512228E-02 -0.95717848921E-02  0.10302111061E+01  0.10301197576E+01 0.  0.
     999903    2    3    3    0    0  0.61758037367E-01  0.11209340921E+00  0.29174328555E-01  0.13864705448E+00  0.44641647614E-01 0.  0.
         14    1    1    2    0    0  0.53232892065E-02  0.82614512228E-02  0.95717848921E-02  0.13718893917E-01  0.00000000000E+00 0. -1.
     999901    1    3    3    0    0 -0.67081326573E-01 -0.12035486043E+00 -0.38746113448E-01  0.89156405160E+00  0.88000000000E+00 0.  1.
        -11    1    4    4    0    0  0.64848350969E-01  0.80928018819E-01  0.27449701398E-01  0.10727721138E+00  0.51100000000E-03 0. -1.
         11    1    4    4    0    0 -0.30903136025E-02  0.31165390390E-01  0.17246271574E-02  0.31369843101E-01  0.51100000000E-03 0.  1.
</event>
<event>
 8    1  0.2824193E+004  0.1043930E+01  0.7957747E-01            NaN
         13   -1    0    0    0    0  0.00000000000E+00  0.00000000000E+00  0.74505805969E-08  0.10566000000E+00  0.10566000000E+00 0. -1.
     999900   -1    0    0    0    0 -0.00000000000E+00 -0.00000000000E+00 -0.74505805969E-08  0.93827000000E+00  0.93827000000E+00 0.  1.
     999902    2    1    2    0    0  0.10265206731E-01  0.65742816493E-02 -0.58952653954E-02  0.10303893278E+01  0.10303003529E+01 0.  0.
     999903    2    3    3    0    0 -0.11805267307E+00  0.12311859039E-01 -0.55183179989E-01  0.13969987770E+00  0.48814516110E-01 0.  0.
         14    1    1    2    0    0 -0.10265206731E-01 -0.65742816493E-02  0.58952653954E-02  0.13540672159E-01  0.00000000000E+00 0. -1.
     999901    1    3    3    0    0  0.12831787980E+00 -0.57375773899E-02  0.49287914594E-01  0.89068945014E+00  0.88000000000E+00 0. -1.
        -11    1    4    4    0    0 -0.72602056928E-01  0.22498220534E-01 -0.13515503969E-01  0.77202063223E-01  0.51100000000E-03 0.  1.
         11    1    4    4    0    0 -0.45450616143E-01 -0.10186361494E-01 -0.41667676020E-01  0.62497814475E-01  0.51100000000E-03 0. -1.
</event>
<event>
 8    1  0.2824193E+004  0.1043930E+01  0.7957747E-01            NaN
         13   -1    0    0    0    0  0.00000000000E+00  0.00000000000E+00  0.74505805969E-08  0.10566000000E+00  0.10566000000E+00 0.  1.
     999900   -1    0    0    0    0 -0.00000000000E+00 -0.00000000000E+00 -0.74505805969E-08  0.93827000000E+00  0.93827000000E+00 0.  1.
     999902    2    1    2    0    0  0.99817417969E-03 -0.13268602832E-01  0.15611881642E-01  0.10234170036E+01  0.10232114054E+01 0.  0.
     999903    2    3    3    0    0  0.22200963893E-01 -0.12124090166E+00 -0.32830501006E-01  0.13524233607E+00  0.44948955892E-01 0.  0.
         14    1    1    2    0    0 -0.99817417969E-03  0.13268602832E-01 -0.15611881642E-01  0.20512996398E-01  0.00000000000E+00 0.  1.
     999901    1    3    3    0    0 -0.21202789713E-01  0.10797229883E+00  0.48442382648E-01  0.88817466753E+00  0.88000000000E+00 0. -1.
        -11    1    4    4    0    0  0.59974874189E-02 -0.84046855880E-01 -0.20028259442E-02  0.84285919770E-01  0.51100000000E-03 0.  1.
         11    1    4    4    0    0  0.16203476474E-01 -0.37194045784E-01 -0.30827675062E-01  0.50956416302E-01  0.51100000000E-03 0. -1.
</event>
<event>
 8    1  0.2824193E+004  0.1043930E+01  0.7957747E-01            NaN
         13   -1    0    0    0    0  0.00000000000E+00  0.00000000000E+00  0.74505805969E-08  0.10566000000E+00  0.10566000000E+00 0.  1.
     999900   -1    0    0    0    0 -0.00000000000E+00 -0.00000000000E+00 -0.74505805969E-08  0.93827000000E+00  0.93827000000E+00 0. -1.
     999902    2    1    2    0    0 -0.17254968082E-01  0.22372105319E-02  0.87721881695E-02  0.10244443561E+01  0.10242590240E+01 0.  0.
     999903    2    3    3    0    0  0.11950764756E+00 -0.34847896185E-01  0.13587735493E-01  0.13309565456E+00  0.45092937496E-01 0.  0.
         14    1    1    2    0    0  0.17254968082E-01 -0.22372105319E-02 -0.87721881695E-02  0.19485643940E-01  0.00000000000E+00 0. -1.
     999901    1    3    3    0    0 -0.13676261564E+00  0.37085106717E-01 -0.48155473238E-02  0.89134870150E+00  0.88000000000E+00 0.  1.
        -11    1    4    4    0    0  0.97025987571E-01 -0.31757738947E-01 -0.71602618765E-02  0.10234318110E+00  0.51100000000E-03 0.  1.
         11    1    4    4    0    0  0.22481659989E-01 -0.30901572375E-02  0.20747997370E-01  0.30752473453E-01  0.51100000000E-03 0. -1.
</event>
<event>
 8    1  0.2824193E+004  0.1043930E+01  0.7957747E-01            NaN
         13   -1    0    0    0    0  0.00000000000E+00  0.00000000000E+00  0.74505805969E-08  0.10566000000E+00  0.10566000000E+00 0.  1.
     999900   -1    0    0    0    0 -0.00000000000E+00 -0.00000000000E+00 -0.74505805969E-08  0.93827000000E+00  0.93827000000E+00 0. -1.
     999902    2    1    2    0    0 -0.42695062333E-02  0.23266690905E-02 -0.12604211441E-01  0.10304204397E+01  0.10303318759E+01 0.  0.
     999903    2    3    3    0    0 -0.58944175824E-01  0.11842726731E+00  0.17726957948E-01  0.14059537365E+00  0.44197064916E-01 0.  0.
         14    1    1    2    0    0  0.42695062333E-02 -0.23266690905E-02  0.12604211441E-01  0.13509560266E-01  0.00000000000E+00 0.  1.
     999901    1    3    3    0    0  0.54674669590E-01 -0.11610059822E+00 -0.30331169390E-01  0.88982506609E+00  0.88000000000E+00 0.  1.
        -11    1    4    4    0    0 -0.60967409420E-01  0.81513154367E-01  0.19225408575E-01  0.10359197267E+00  0.51100000000E-03 0. -1.
         11    1    4    4    0    0  0.20232335963E-02  0.36914112941E-01 -0.14984506272E-02  0.37003400974E-01  0.51100000000E-03 0.  1.
</event>
<event>
 8    1  0.2824193E+004  0.1043930E+01  0.7957747E-01            NaN
         13   -1    0    0    0    0  0.00000000000E+00  0.00000000000E+00  0.74505805969E-08  0.10566000000E+00  0.10566000000E+00 0. -1.
     999900   -1    0    0    0    0 -0.00000000000E+00 -0.00000000000E+00 -0.74505805969E-08  0.93827000000E+00  0.93827000000E+00 0.  1.
     999902    2    1    2    0    0 -0.14881693841E-01  0.45745273249E-02 -0.83641224040E-02  0.10262565834E+01  0.10261043930E+01 0.  0.
     999903    2    3    3    0    0 -0.23114272790E-01  0.77965824614E-01  0.99981913843E-01  0.13654150457E+00  0.45102771089E-01 0.  0.
         14    1    1    2    0    0  0.14881693841E-01 -0.45745273249E-02  0.83641224040E-02  0.17673416631E-01  0.00000000000E+00 0. -1.
     999901    1    3    3    0    0  0.82325789488E-02 -0.73391297289E-01 -0.10834603625E+00  0.88971507880E+00  0.88000000000E+00 0.  1.
        -11    1    4    4    0    0 -0.35933027968E-01  0.51774505998E-01  0.59705489291E-01  0.86814679304E-01  0.51100000000E-03 0.  1.
         11    1    4    4    0    0  0.12818755179E-01  0.26191318616E-01  0.40276424552E-01  0.49726825265E-01  0.51100000000E-03 0. -1.
</event>
<event>
 8    1  0.2824193E+004  0.1043930E+01  0.7957747E-01            NaN
         13   -1    0    0    0    0  0.00000000000E+00  0.00000000000E+00  0.74505805969E-08  0.10566000000E+00  0.10566000000E+00 0. -1.
     999900   -1    0    0    0    0 -0.00000000000E+00 -0.00000000000E+00 -0.74505805969E-08  0.93827000000E+00  0.93827000000E+00 0. -1.
     999902    2    1    2    0    0 -0.62001601026E-03  0.83455254492E-02 -0.10740637204E-01  0.10303140717E+01  0.10302240984E+01 0.  0.
     999903    2    3    3    0    0 -0.10099982606E+00 -0.19789623037E-01 -0.85469962654E-01  0.14101537899E+00  0.44582827986E-01 0.  0.
         14    1    1    2    0    0  0.62001601026E-03 -0.83455254492E-02  0.10740637204E-01  0.13615928261E-01  0.00000000000E+00 0. -1.
     999901    1    3    3    0    0  0.10037981005E+00  0.28135148486E-01  0.74729325451E-01  0.88929869275E+00  0.88000000000E+00 0.  1.
        -11    1    4    4    0    0 -0.33317098099E-01 -0.28590792936E-01 -0.33785115753E-01  0.55399978646E-01  0.51100000000E-03 0. -1.
         11    1    4    4    0    0 -0.67682727959E-01  0.88011698996E-02 -0.51684846901E-01  0.85615400342E-01  0.51100000000E-03 0.  1.
</event>
<event>
 7    1  0.2824193E+004  0.1043930E+01  0.7957747E-01            NaN
         13   -1    0    0    0    0  0.00000000000E+00  0.00000000000E+00  0.74505805969E-08  0.10566000000E+00  0.10566000000E+00 0.  1.
     999900   -1    0    0    0    0 -0.00000000000E+00 -0.00000000000E+00 -0.74505805969E-08  0.93827000000E+00  0.93827000000E+00 0. -1.
     999903    2    1    2    0    0  0.19916467077E-01  0.36809903042E-01 -0.71692387981E-01  0.94346527212E-01  0.44831173080E-01 0.  0.
         14    1    1    2    0    0  0.28289775465E-01  0.40948592060E-01 -0.31410241745E-01  0.58853223141E-01  0.00000000000E+00 0. -1.
     999901    1    1    2    0    0 -0.48206242542E-01 -0.77758495102E-01  0.10310262973E+00  0.89073024965E+00  0.88000000000E+00 0.  1.
        -11    1    3    3    0    0  0.30670493640E-01  0.14992946921E-01 -0.55366977384E-01  0.65047912673E-01  0.51100000000E-03 0. -1.
         11    1    3    3    0    0 -0.10754026563E-01  0.21816956122E-01 -0.16325410597E-01  0.29298614539E-01  0.51100000000E-03 0.  1.
</event>
<event>
 8    1  0.2824193E+004  0.1043930E+01  0.7957747E-01            NaN
         13   -1    0    0    0    0  0.00000000000E+00  0.00000000000E+00  0.74505805969E-08  0.10566000000E+00  0.10566000000E+00 0. -1.
     999900   -1    0    0    0    0 -0.00000000000E+00 -0.00000000000E+00 -0.74505805969E-08  0.93827000000E+00  0.93827000000E+00 0. -1.
     999902    2    1    2    0    0  0.11418772675E-01  0.95221533959E-02 -0.26814516797E-02  0.10288220565E+01  0.10287111227E+01 0.  0.
     999903    2    3    3    0    0  0.88804274394E-02  0.13027452241E+00 -0.24821691014E-01  0.14029644174E+00  0.44907260429E-01 0.  0.
         14    1    1    2    0    0 -0.11418772675E-01 -0.95221533959E-02  0.26814516797E-02  0.15107943534E-01  0.00000000000E+00 0. -1.
     999901    1    3    3    0    0  0.25383452360E-02 -0.12075236902E+00  0.22140239335E-01  0.88852561472E+00  0.88000000000E+00 0. -1.
        -11    1    4    4    0    0 -0.20068330276E-02  0.61373964846E-01 -0.33581632235E-01  0.69991271486E-01  0.51100000000E-03 0.  1.
         11    1    4    4    0    0  0.10887260467E-01  0.68900557569E-01  0.87599412203E-02  0.70305170258E-01  0.51100000000E-03 0. -1.
</event>
<event>
 8    1  0.2824193E+004  0.1043930E+01  0.7957747E-01            NaN
         13   -1    0    0    0    0  0.00000000000E+00  0.00000000000E+00  0.74505805969E-08  0.10566000000E+00  0.10566000000E+00 0. -1.
     999900   -1    0    0    0    0 -0.00000000000E+00 -0.00000000000E+00 -0.74505805969E-08  0.93827000000E+00  0.93827000000E+00 0. -1.
     999902    2    1    2    0    0 -0.36720770668E-02 -0.73315312343E-04  0.11971501466E-01  0.10314077649E+01  0.10313317464E+01 0.  0.
     999903    2    3    3    0    0 -0.78076952779E-01 -0.78461561769E-01 -0.74300518564E-01  0.14060831261E+00  0.44697911436E-01 0.  0.
         14    1    1    2    0    0  0.36720770668E-02  0.73315312343E-04 -0.11971501466E-01  0.12522235123E-01  0.00000000000E+00 0.  1.
     999901    1    3    3    0    0  0.74404875712E-01  0.78388246457E-01  0.86272020030E-01  0.89079945226E+00  0.88000000000E+00 0. -1.
        -11    1    4    4    0    0 -0.49460208476E-01 -0.46726855642E-01 -0.70058284875E-01  0.97663379325E-01  0.51100000000E-03 0.  1.
         11    1    4    4    0    0 -0.28616744303E-01 -0.31734706127E-01 -0.42422336895E-02  0.42944933289E-01  0.51100000000E-03 0. -1.
</event>
<event>
 8    1  0.2824193E+004  0.1043930E+01  0.7957747E-01            NaN
         13   -1    0    0    0    0  0.00000000000E+00  0.00000000000E+00  0.74505805969E-08  0.10566000000E+00  0.10566000000E+00 0. -1.
     999900   -1    0    0    0    0 -0.00000000000E+00 -0.00000000000E+00 -0.74505805969E-08  0.93827000000E+00  0.93827000000E+00 0. -1.
     999902    2    1    2    0    0  0.31236024494E-03  0.12866557099E-01  0.46318750168E-02  0.10302515452E+01  0.10301607380E+01 0.  0.
     999903    2    3    3    0    0  0.74028980314E-01 -0.99168451061E-01 -0.44036344211E-01  0.13876145622E+00  0.44731091067E-01 0.  0.
         14    1    1    2    0    0 -0.31236024494E-03 -0.12866557099E-01 -0.46318750168E-02  0.13678454835E-01  0.00000000000E+00 0. -1.
     999901    1    3    3    0    0 -0.73716620069E-01  0.11203500816E+00  0.48668219228E-01  0.89149008895E+00  0.88000000000E+00 0. -1.
        -11    1    4    4    0    0  0.43363785473E-01 -0.74760148435E-01 -0.48837774007E-01  0.99271783380E-01  0.51100000000E-03 0.  1.
         11    1    4    4    0    0  0.30665194842E-01 -0.24408302626E-01  0.48014297959E-02  0.39489672838E-01  0.51100000000E-03 0. -1.
</event>
<event>
 8    1  0.2824193E+004  0.1043930E+01  0.7957747E-01            NaN
         13   -1    0    0    0    0  0.00000000000E+00  0.00000000000E+00  0.74505805969E-08  0.10566000000E+00  0.10566000000E+00 0. -1.
     999900   -1    0    0    0    0 -0.00000000000E+00 -0.00000000000E+00 -0.74505805969E-08  0.93827000000E+00  0.93827000000E+00 0. -1.
     999902    2    1    2    0    0 -0.91433330993E-02  0.86635872268E-02 -0.51400100411E-02  0.10303256629E+01  0.10302358437E+01 0.  0.
     999903    2    3    3    0    0 -0.43527128802E-01 -0.76026657110E-01  0.99600902868E-01  0.13941301754E+00  0.42906713614E-01 0.  0.
         14    1    1    2    0    0  0.91433330993E-02 -0.86635872268E-02  0.51400100411E-02  0.13604337067E-01  0.00000000000E+00 0. -1.
     999901    1    3    3    0    0  0.34383795703E-01  0.84690244337E-01 -0.10474091291E+00  0.89091264540E+00  0.88000000000E+00 0. -1.
        -11    1    4    4    0    0  0.93642136204E-03 -0.18741317536E-01  0.44622825448E-01  0.48410448665E-01  0.51100000000E-03 0. -1.
         11    1    4    4    0    0 -0.44463550164E-01 -0.57285339574E-01  0.54978077420E-01  0.91002568871E-01  0.51100000000E-03 0.  1.
</event>
<event>
 8    1  0.2824193E+004  0.1043930E+01  0.7957747E-01            NaN
         13   -1    0    0    0    0  0.00000000000E+00  0.00000000000E+00  0.74505805969E-08  0.10566000000E+00  0.10566000000E+00 0.  1.
     999900   -1    0    0    0    0 -0.00000000000E+00 -0.00000000000E+00 -0.74505805969E-08  0.93827000000E+00  0.93827000000E+00 0.  1.
     999902    2    1    2    0    0  0.11281050573E-01  0.27496411725E-02 -0.64495024921E-02  0.10306477294E+01  0.10305621396E+01 0.  0.
     999903    2    3    3    0    0  0.84905309860E-01  0.10398375597E+00 -0.94715632328E-02  0.14178440452E+00  0.44627051279E-01 0.  0.
         14    1    1    2    0    0 -0.11281050573E-01 -0.27496411725E-02  0.64495024921E-02  0.13282270551E-01  0.00000000000E+00 0.  1.
     999901    1    3    3    0    0 -0.73624259287E-01 -0.10123411480E+00  0.30220607407E-02  0.88886332493E+00  0.88000000000E+00 0.  1.
        -11    1    4    4    0    0  0.54716410459E-01  0.32000949487E-01 -0.30683793591E-02  0.63463551858E-01  0.51100000000E-03 0.  1.
         11    1    4    4    0    0  0.30188899401E-01  0.71982806487E-01 -0.64031838737E-02  0.78320852660E-01  0.51100000000E-03 0. -1.
</event>
<event>
 8    1  0.2824193E+004  0.1043930E+01  0.7957747E-01            NaN
         13   -1    0    0    0    0  0.00000000000E+00  0.00000000000E+00  0.74505805969E-08  0.10566000000E+00  0.10566000000E+00 0. -1.
     999900   -1    0    0    0    0 -0.00000000000E+00 -0.00000000000E+00 -0.74505805969E-08  0.93827000000E+00  0.93827000000E+00 0. -1.
     999902    2    1    2    0    0  0.77868218066E-02 -0.90271408801E-02  0.71503471371E-02  0.10300285134E+01  0.10299347004E+01 0.  0.
     999903    2    3    3    0    0  0.47516014072E-01  0.10259978930E+00 -0.67125374887E-01  0.13898650362E+00  0.45021593443E-01 0.  0.
         14    1    1    2    0    0 -0.77868218066E-02  0.90271408801E-02 -0.71503471371E-02  0.13901486629E-01  0.00000000000E+00 0.  1.
     999901    1    3    3    0    0 -0.39729192266E-01 -0.11162693018E+00  0.74275722024E-01  0.89104200975E+00  0.88000000000E+00 0.  1.
        -11    1    4    4    0    0  0.37486021486E-01  0.28985520705E-01 -0.27309980181E-01  0.54694225983E-01  0.51100000000E-03 0. -1.
         11    1    4    4    0    0  0.10029992587E-01  0.73614268598E-01 -0.39815394706E-01  0.84292277636E-01  0.51100000000E-03 0.  1.
</event>
<event>
 8    1  0.2824193E+004  0.1043930E+01  0.7957747E-01            NaN
         13   -1    0    0    0    0  0.00000000000E+00  0.00000000000E+00  0.74505805969E-08  0.10566000000E+00  0.10566000000E+00 0.  1.
     999900   -1    0    0    0    0 -0.00000000000E+00 -0.00000000000E+00 -0.74505805969E-08  0.93827000000E+00  0.93827000000E+00 0. -1.
     999902    2    1    2    0    0  0.10689281124E-01  0.69635745175E-02  0.49665499187E-02  0.10302399043E+01  0.10301489416E+01 0.  0.
     999903    2    3    3    0    0 -0.37838523057E-01 -0.83019160432E-01 -0.94361129389E-01  0.13877042744E+00  0.45047463493E-01 0.  0.
         14    1    1    2    0    0 -0.10689281124E-01 -0.69635745175E-02 -0.49665499187E-02  0.13690095657E-01  0.00000000000E+00 0.  1.
     999901    1    3    3    0    0  0.48527804181E-01  0.89982734950E-01  0.99327679308E-01  0.89146947690E+00  0.88000000000E+00 0.  1.
        -11    1    4    4    0    0  0.25632133777E-02 -0.47898968921E-01 -0.39796127795E-01  0.62328758972E-01  0.51100000000E-03 0.  1.
         11    1    4    4    0    0 -0.40401736435E-01 -0.35120191512E-01 -0.54565001594E-01  0.76441668471E-01  0.51100000000E-03 0. -1.
</event>
<event>
 8    1  0.2824193E+004  0.1043930E+01  0.7957747E-01            NaN
         13   -1    0    0    0    0  0.00000000000E+00  0.00000000000E+00  0.74505805969E-08  0.10566000000E+00  0.10566000000E+00 0. -1.
     999900   -1    0    0    0    0 -0.00000000000E+00 -0.00000000000E+00 -0.74505805969E-08  0.93827000000E+00  0.93827000000E+00 0. -1.
     999902    2    1    2    0    0 -0.12059713949E-02  0.42468391464E-03  0.14073148042E-01  0.10297988918E+01  0.10297019323E+01 0.  0.
     999903    2    3    3    0    0 -0.55202295020E-01 -0.61523045649E-01 -0.10158326462E+00  0.13843503233E+00  0.44863348121E-01 0.  0.
         14    1    1    2    0    0  0.12059713949E-02 -0.42468391464E-03 -0.14073148042E-01  0.14131108210E-01  0.00000000000E+00 0.  1.
     999901    1    3    3    0    0  0.53996323625E-01  0.61947729564E-01  0.11565641266E+00  0.89136385946E+00  0.88000000000E+00 0.  1.
        -11    1    4    4    0    0 -0.31486255567E-01 -0.42374188489E-01 -0.30216805831E-01  0.60829866146E-01  0.51100000000E-03 0.  1.
         11    1    4    4    0    0 -0.23716039453E-01 -0.19148857160E-01 -0.71366458785E-01  0.77605166183E-01  0.51100000000E-03 0. -1.
</event>
<event>
 8    1  0.2824193E+004  0.1043930E+01  0.7957747E-01            NaN
         13   -1    0    0    0    0  0.00000000000E+00  0.00000000000E+00  0.74505805969E-08  0.10566000000E+00  0.10566000000E+00 0. -1.
     999900   -1    0    0    0    0 -0.00000000000E+00 -0.00000000000E+00 -0.74505805969E-08  0.93827000000E+00  0.93827000000E+00 0. -1.
     999902    2    1    2    0    0 -0.72659750404E-02 -0.85721898953E-02 -0.83528465800E-02  0.10299283259E+01  0.10298331464E+01 0.  0.
     999903    2    3    3    0    0 -0.97363401260E-02 -0.12968218159E+00 -0.31910390854E-01  0.14131778648E+00  0.45168342794E-01 0.  0.
         14    1    1    2    0    0  0.72659750404E-02  0.85721898953E-02  0.83528465800E-02  0.14001674146E-01  0.00000000000E+00 0. -1.
     999901    1    3    3    0    0  0.24703650856E-02  0.12110999169E+00  0.23557544274E-01  0.88861053937E+00  0.88000000000E+00 0.  1.
        -11    1    4    4    0    0  0.14484150746E-01 -0.79727847078E-01 -0.10070351218E-01  0.81657781731E-01  0.51100000000E-03 0. -1.
         11    1    4    4    0    0 -0.24220490872E-01 -0.49954334512E-01 -0.21840039636E-01  0.59660004751E-01  0.51100000000E-03 0.  1.
</event>
<event>
 8    1  0.2824193E+004  0.1043930E+01  0.7957747E-01            NaN
         13   -1    0    0    0    0  0.00000000000E+00  0.00000000000E+00  0.74505805969E-08  0.10566000000E+00  0.10566000000E+00 0. -1.
     999900   -1    0    0    0    0 -0.00000000000E+00 -0.00000000000E+00 -0.74505805969E-08  0.93827000000E+00  0.93827000000E+00 0. -1.
     999902    2    1    2    0    0 -0.26524489458E-02  0.79522299149E-02 -0.11196393597E-01  0.10299431249E+01  0.10298481479E+01 0.  0.
     999903    2    3    3    0    0 -0.12839362230E+00 -0.33002928779E-01  0.32721220711E-02  0.13994452620E+00  0.44717424751E-01 0.  0.
         14    1    1    2    0    0  0.26524489458E-02 -0.79522299149E-02  0.11196393597E-01  0.13986875119E-01  0.00000000000E+00 0. -1.
     999901    1    3    3    0    0  0.12574117335E+00  0.40955158694E-01 -0.14468515668E-01  0.88999859868E+00  0.88000000000E+00 0.  1.
        -11    1    4    4    0    0 -0.12256070314E+00 -0.38337651990E-01 -0.49688282440E-02  0.12851401437E+00  0.51100000000E-03 0.  1.
         11    1    4    4    0    0 -0.58329191573E-02  0.53347232118E-02  0.82409503150E-02  0.11430511832E-01  0.51100000000E-03 0. -1.
</event>
<event>
 8    1  0.2824193E+004  0.1043930E+01  0.7957747E-01            NaN
         13   -1    0    0    0    0  0.00000000000E+00  0.00000000000E+00  0.74505805969E-08  0.10566000000E+00  0.10566000000E+00 0. -1.
     999900   -1    0    0    0    0 -0.00000000000E+00 -0.00000000000E+00 -0.74505805969E-08  0.93827000000E+00  0.93827000000E+00 0.  1.
     999902    2    1    2    0    0  0.12098395749E-01 -0.55461128972E-02  0.19432239745E-02  0.10304798451E+01  0.10303920635E+01 0.  0.
     999903    2    3    3    0    0 -0.24731452668E-01 -0.58073646228E-02  0.13059311133E+00  0.14036339230E+00  0.44743166381E-01 0.  0.
         14    1    1    2    0    0 -0.12098395749E-01  0.55461128972E-02 -0.19432239745E-02  0.13450154921E-01  0.00000000000E+00 0. -1.
     999901    1    3    3    0    0  0.36829848417E-01  0.26125172561E-03 -0.12864988735E+00  0.89011645278E+00  0.88000000000E+00 0.  1.
        -11    1    4    4    0    0 -0.10944000877E-01 -0.25222144643E-01  0.64880404930E-01  0.70467409491E-01  0.51100000000E-03 0. -1.
         11    1    4    4    0    0 -0.13787451791E-01  0.19414780020E-01  0.65712706398E-01  0.69895982812E-01  0.51100000000E-03 0.  1.
</event>
<event>
 8    1  0.2824193E+004  0.1043930E+01  0.7957747E-01            NaN
         13   -1    0    0    0    0  0.00000000000E+00  0.00000000000E+00  0.74505805969E-08  0.10566000000E+00  0.10566000000E+00 0.  1.
     999900   -1    0    0    0    0 -0.00000000000E+00 -0.00000000000E+00 -0.74505805969E-08  0.93827000000E+00  0.93827000000E+00 0. -1.
     999902    2    1    2    0    0  0.52246080260E-02  0.63424823564E-02 -0.12055558599E-01  0.10293402740E+01  0.10292368724E+01 0.  0.
     999903    2    3    3    0    0 -0.54039304939E-01  0.26251875358E-01  0.11657008598E+00  0.13779490121E+00  0.42301801578E-01 0.  0.
         14    1    1    2    0    0 -0.52246080260E-02 -0.63424823564E-02  0.12055558599E-01  0.14589725995E-01  0.00000000000E+00 0.  1.
     999901    1    3    3    0    0  0.59263912965E-01 -0.19909393001E-01 -0.12862564458E+00  0.89154537280E+00  0.88000000000E+00 0. -1.
        -11    1    4    4    0    0 -0.21176201162E-01  0.32270120106E-01  0.75960280063E-01  0.85205735813E-01  0.51100000000E-03 0.  1.
         11    1    4    4    0    0 -0.32863103777E-01 -0.60182447487E-02  0.40609805914E-01  0.52589165397E-01  0.51100000000E-03 0. -1.
</event>
<event>
 8    1  0.2824193E+004  0.1043930E+01  0.7957747E-01            NaN
         13   -1    0    0    0    0  0.00000000000E+00  0.00000000000E+00  0.74505805969E-08  0.10566000000E+00  0.10566000000E+00 0. -1.
     999900   -1    0    0    0    0 -0.00000000000E+00 -0.00000000000E+00 -0.74505805969E-08  0.93827000000E+00  0.93827000000E+00 0. -1.
     999902    2    1    2    0    0 -0.73500792430E-02  0.13864410439E-01 -0.59252558173E-02  0.10271563839E+01  0.10270194169E+01 0.  0.
     999903    2    3    3    0    0 -0.55187815964E-02 -0.10626282241E-02  0.12917133324E+00  0.13671982885E+00  0.44446508752E-01 0.  0.
         14    1    1    2    0    0  0.73500792430E-02 -0.13864410439E-01  0.59252558173E-02  0.16773616133E-01  0.00000000000E+00 0. -1.
     999901    1    3    3    0    0 -0.18312976466E-02  0.14927038663E-01 -0.13509658906E+00  0.89043655502E+00  0.88000000000E+00 0. -1.
        -11    1    4    4    0    0  0.19404598220E-01 -0.31345525099E-02  0.61918881878E-01  0.64965936501E-01  0.51100000000E-03 0.  1.
         11    1    4    4    0    0 -0.24923379816E-01  0.20719242858E-02  0.67252451364E-01  0.71753892349E-01  0.51100000000E-03 0. -1.
</event>
<event>
 7    1  0.2824193E+004  0.1043930E+01  0.7957747E-01            NaN
         13   -1    0    0    0    0  0.00000000000E+00  0.00000000000E+00  0.74505805969E-08  0.10566000000E+00  0.10566000000E+00 0. -1.
     999900   -1    0    0    0    0 -0.00000000000E+00 -0.00000000000E+00 -0.74505805969E-08  0.93827000000E+00  0.93827000000E+00 0.  1.
     999903    2    1    2    0    0  0.99083923872E-01 -0.17752906371E-01  0.63041279437E-01  0.12704541261E+00  0.45094836699E-01 0.  0.
         14    1    1    2    0    0 -0.19006976537E-01 -0.22943153820E-01  0.24303000913E-02  0.29892471005E-01  0.00000000000E+00 0.  1.
     999901    1    1    2    0    0 -0.80076947335E-01  0.40696060191E-01 -0.65471579528E-01  0.88699211639E+00  0.88000000000E+00 0.  1.
        -11    1    3    3    0    0  0.23538525196E-01 -0.24559951253E-01  0.14453975500E-01  0.36965279692E-01  0.51100000000E-03 0.  1.
         11    1    3    3    0    0  0.75545398676E-01  0.68070448819E-02  0.48587303936E-01  0.90080132914E-01  0.51100000000E-03 0. -1.
</event>
<event>
 8    1  0.2824193E+004  0.1043930E+01  0.7957747E-01            NaN
         13   -1    0    0    0    0  0.00000000000E+00  0.00000000000E+00  0.74505805969E-08  0.10566000000E+00  0.10566000000E+00 0.  1.
     999900   -1    0    0    0    0 -0.00000000000E+00 -0.00000000000E+00 -0.74505805969E-08  0.93827000000E+00  0.93827000000E+00 0.  1.
     999902    2    1    2    0    0 -0.30149126270E-02  0.99918540297E-02 -0.10173877854E-01  0.10293548624E+01  0.10292516690E+01 0.  0.
     999903    2    3    3    0    0  0.58896713022E-01 -0.33785506639E-02  0.11642068839E+00  0.13804234634E+00  0.44963043585E-01 0.  0.
         14    1    1    2    0    0  0.30149126270E-02 -0.99918540297E-02  0.10173877854E-01  0.14575137587E-01  0.00000000000E+00 0.  1.
     999901    1    3    3    0    0 -0.61911625649E-01  0.13370404694E-01 -0.12659456624E+00  0.89131251608E+00  0.88000000000E+00 0.  1.
        -11    1    4    4    0    0  0.40363059197E-01  0.94448060986E-02  0.37279420560E-01  0.55753001966E-01  0.51100000000E-03 0.  1.
         11    1    4    4    0    0  0.18533653825E-01 -0.12823356762E-01  0.79141267827E-01  0.82289344371E-01  0.51100000000E-03 0. -1.
</event>
<event>
 8    1  0.2824193E+004  0.1043930E+01  0.7957747E-01            NaN
         13   -1    0    0    0    0  0.00000000000E+00  0.00000000000E+00  0.74505805969E-08  0.10566000000E+00  0.10566000000E+00 0.  1.
     999900   -1    0    0    0    0 -0.00000000000E+00 -0.00000000000E+00 -0.74505805969E-08  0.93827000000E+00  0.93827000000E+00 0. -1.
     999902    2    1    2    0    0 -0.77671383722E-03  0.88646445796E-02  0.11669345355E-01  0.10292548908E+01  0.10291502667E+01 0.  0.
     999903    2    3    3    0    0  0.11567293808E-02  0.15259293592E-01 -0.12972120442E+00  0.13794354383E+00  0.44346886516E-01 0.  0.
         14    1    1    2    0    0  0.77671383722E-03 -0.88646445796E-02 -0.11669345355E-01  0.14675109162E-01  0.00000000000E+00 0. -1.
     999901    1    3    3    0    0 -0.19334432180E-02 -0.63946490125E-02  0.14139054978E+00  0.89131134701E+00  0.88000000000E+00 0.  1.
        -11    1    4    4    0    0  0.11395567978E-02 -0.15735112098E-01 -0.48734187014E-01  0.51226696627E-01  0.51100000000E-03 0. -1.
         11    1    4    4    0    0  0.17172582916E-04  0.30994405690E-01 -0.80987017409E-01  0.86716847203E-01  0.51100000000E-03 0.  1.
</event>
<event>
 8    1  0.2824193E+004  0.1043930E+01  0.7957747E-01            NaN
         13   -1    0    0    0    0  0.00000000000E+00  0.00000000000E+00  0.74505805969E-08  0.10566000000E+00  0.10566000000E+00 0. -1.
     999900   -1    0    0    0    0 -0.00000000000E+00 -0.00000000000E+00 -0.74505805969E-08  0.93827000000E+00  0.93827000000E+00 0. -1.
     999902    2    1    2    0    0  0.91876430620E-02  0.10796796782E-01 -0.28485106951E-02  0.10294697919E+01  0.10293682309E+01 0.  0.
     999903    2    3    3    0    0 -0.52652958756E-01 -0.45692943368E-01  0.11036386622E+00  0.13827262342E+00  0.45595573034E-01 0.  0.
         14    1    1    2    0    0 -0.91876430620E-02 -0.10796796782E-01  0.28485106951E-02  0.14460208123E-01  0.00000000000E+00 0.  1.
     999901    1    3    3    0    0  0.61840601818E-01  0.56489740150E-01 -0.11321237692E+00  0.89119716846E+00  0.88000000000E+00 0.  1.
        -11    1    4    4    0    0 -0.53556348819E-01 -0.19364411098E-01  0.75221455754E-01  0.94349305470E-01  0.51100000000E-03 0.  1.
         11    1    4    4    0    0  0.90339006300E-03 -0.26328532270E-01  0.35142410471E-01  0.43923317951E-01  0.51100000000E-03 0. -1.
</event>
<event>
 8    1  0.2824193E+004  0.1043930E+01  0.7957747E-01            NaN
         13   -1    0    0    0    0  0.00000000000E+00  0.00000000000E+00  0.74505805969E-08  0.10566000000E+00  0.10566000000E+00 0. -1.
     999900   -1    0    0    0    0 -0.00000000000E+00 -0.00000000000E+00 -0.74505805969E-08  0.93827000000E+00  0.93827000000E+00 0. -1.
     999902    2    1    2    0    0 -0.91806422210E-02 -0.66269113200E-02 -0.72784414437E-02  0.10304698419E+01  0.10303819288E+01 0.  0.
     999903    2    3    3    0    0  0.47203119742E-01 -0.11764738628E+00 -0.42126673997E-01  0.14102109480E+00  0.45202328539E-01 0.  0.
         14    1    1    2    0    0  0.91806422210E-02  0.66269113200E-02  0.72784414437E-02  0.13460158063E-01  0.00000000000E+00 0. -1.
     999901    1    3    3    0    0 -0.56383761963E-01  0.11102047496E+00  0.34848232553E-01  0.88944874714E+00  0.88000000000E+00 0.  1.
        -11    1    4    4    0    0  0.14623212162E-01 -0.24609115523E-01 -0.30379254014E-01  0.41744545706E-01  0.51100000000E-03 0. -1.
         11    1    4    4    0    0  0.32579907581E-01 -0.93038270753E-01 -0.11747419983E-01  0.99276549093E-01  0.51100000000E-03 0.  1.
</event>
<event>
 8    1  0.2824193E+004  0.1043930E+01  0.7957747E-01            NaN
         13   -1    0    0    0    0  0.00000000000E+00  0.00000000000E+00  0.74505805969E-08  0.10566000000E+00  0.10566000000E+00 0. -1.
     999900   -1    0    0    0    0 -0.00000000000E+00 -0.00000000000E+00 -0.74505805969E-08  0.93827000000E+00  0.93827000000E+00 0. -1.
     999902    2    1    2    0    0  0.10615837200E-01 -0.22838152846E-02  0.90697668696E-02  0.10297817675E+01  0.10296845712E+01 0.  0.
     999903    2    3    3    0    0 -0.71891768087E-01 -0.30899673189E-02 -0.10890799926E+00  0.13808287880E+00  0.45032820244E-01 0.  0.
         14    1    1    2    0    0 -0.10615837200E-01  0.22838152846E-02 -0.90697668696E-02  0.14148232497E-01  0.00000000000E+00 0.  1.
     999901    1    3    3    0    0  0.82507605288E-01  0.80615203427E-03  0.11797776613E+00  0.89169888870E+00  0.88000000000E+00 0.  1.
        -11    1    4    4    0    0 -0.38569043524E-01 -0.24001028003E-01 -0.54786079093E-01  0.71171595788E-01  0.51100000000E-03 0.  1.
         11    1    4    4    0    0 -0.33322724563E-01  0.20911060685E-01 -0.54121920164E-01  0.66911283013E-01  0.51100000000E-03 0. -1.
</event>
<event>
 8    1  0.2824193E+004  0.1043930E+01  0.7957747E-01            NaN
         13   -1    0    0    0    0  0.00000000000E+00  0.00000000000E+00  0.74505805969E-08  0.10566000000E+00  0.10566000000E+00 0.  1.
     999900   -1    0    0    0    0 -0.00000000000E+00 -0.00000000000E+00 -0.74505805969E-08  0.93827000000E+00  0.93827000000E+00 0.  1.
     999902    2    1    2    0    0  0.29856988493E-02 -0.11363706548E-01 -0.28790299110E-02  0.10318330154E+01  0.10317621017E+01 0.  0.
     999903    2    3    3    0    0  0.28224359210E-01 -0.67540501979E-01 -0.11102948390E+00  0.14307582522E+00  0.52771314256E-01 0.  0.
         14    1    1    2    0    0 -0.29856988493E-02  0.11363706548E-01  0.28790299110E-02  0.12096984639E-01  0.00000000000E+00 0. -1.
     999901    1    3    3    0    0 -0.25238660360E-01  0.56176795432E-01  0.10815045399E+00  0.88875719014E+00  0.88000000000E+00 0. -1.
        -11    1    4    4    0    0 -0.15036064495E-01 -0.10125968239E-01 -0.26482856674E-01  0.32097060409E-01  0.51100000000E-03 0. -1.
         11    1    4    4    0    0  0.43260423705E-01 -0.57414533741E-01 -0.84546627226E-01  0.11097876482E+00  0.51100000000E-03 0.  1.
</event>
<event>
 8    1  0.2824193E+004  0.1043930E+01  0.7957747E-01            NaN
         13   -1    0    0    0    0  0.00000000000E+00  0.00000000000E+00  0.74505805969E-08  0.10566000000E+00  0.10566000000E+00 0. -1.
     999900   -1    0    0    0    0 -0.00000000000E+00 -0.00000000000E+00 -0.74505805969E-08  0.93827000000E+00  0.93827000000E+00 0.  1.
     999902    2    1    2    0    0 -0.61603472591E-02  0.16543775937E-01  0.54957944146E-02  0.10254408097E+01  0.10252741117E+01 0.  0.
     999903    2    3    3    0    0 -0.94161941960E-01  0.14065739310E-02  0.89139576222E-01  0.13697601145E+00  0.44137443272E-01 0.  0.
         14    1    1    2    0    0  0.61603472591E-02 -0.16543775937E-01 -0.54957944146E-02  0.18489190271E-01  0.00000000000E+00 0. -1.
     999901    1    3    3    0    0  0.88001594701E-01  0.15137202006E-01 -0.83643781807E-01  0.88846479828E+00  0.88000000000E+00 0.  1.
        -11    1    4    4    0    0 -0.29125023933E-01  0.18953087293E-01  0.18519397337E-01  0.39379128174E-01  0.51100000000E-03 0. -1.
         11    1    4    4    0    0 -0.65036918027E-01 -0.17546513362E-01  0.70620178884E-01  0.97596883271E-01  0.51100000000E-03 0.  1.
</event>
<event>
 8    1  0.2824193E+004  0.1043930E+01  0.7957747E-01            NaN
         13   -1    0    0    0    0  0.00000000000E+00  0.00000000000E+00  0.74505805969E-08  0.10566000000E+00  0.10566000000E+00 0. -1.
     999900   -1    0    0    0    0 -0.00000000000E+00 -0.00000000000E+00 -0.74505805969E-08  0.93827000000E+00  0.93827000000E+00 0. -1.
     999902    2    1    2    0    0  0.13649636745E-01 -0.82805259903E-03 -0.19689673649E-02  0.10301142450E+01  0.10300215933E+01 0.  0.
     999903    2    3    3    0    0  0.23322572450E-01 -0.58444214325E-01 -0.11753884494E+00  0.14063710397E+00  0.44763225621E-01 0.  0.
         14    1    1    2    0    0 -0.13649636745E-01  0.82805259903E-03  0.19689673649E-02  0.13815755023E-01  0.00000000000E+00 0.  1.
     999901    1    3    3    0    0 -0.96729357050E-02  0.57616161726E-01  0.11556987758E+00  0.88947714101E+00  0.88000000000E+00 0.  1.
        -11    1    4    4    0    0 -0.70396105579E-02 -0.27208573852E-01 -0.22205607857E-01  0.35821959036E-01  0.51100000000E-03 0.  1.
         11    1    4    4    0    0  0.30362183008E-01 -0.31235640474E-01 -0.95333237084E-01  0.10481514493E+00  0.51100000000E-03 0. -1.
</event>
<event>
 8    1  0.2824193E+004  0.1043930E+01  0.7957747E-01            NaN
         13   -1    0    0    0    0  0.00000000000E+00  0.00000000000E+00  0.74505805969E-08  0.10566000000E+00  0.10566000000E+00 0. -1.
     999900   -1    0    0    0    0 -0.00000000000E+00 -0.00000000000E+00 -0.74505805969E-08  0.93827000000E+00  0.93827000000E+00 0. -1.
     999902    2    1    2    0    0  0.26413629543E-02 -0.13504033795E-01  0.39530705117E-02  0.10296134888E+01  0.10295139503E+01 0.  0.
     999903    2    3    3    0    0 -0.42826306738E-02  0.98681955616E-02  0.13217362175E+00  0.13998732429E+00  0.44842641157E-01 0.  0.
         14    1    1    2    0    0 -0.26413629543E-02  0.13504033795E-01 -0.39530705117E-02  0.14316511218E-01  0.00000000000E+00 0.  1.
     999901    1    3    3    0    0  0.69239936281E-02 -0.23372229356E-01 -0.12822055124E+00  0.88962616449E+00  0.88000000000E+00 0. -1.
        -11    1    4    4    0    0  0.74645571871E-02 -0.15198513283E-01  0.34035906304E-01  0.38018659352E-01  0.51100000000E-03 0. -1.
         11    1    4    4    0    0 -0.11747187861E-01  0.25066708845E-01  0.98137715445E-01  0.10196866494E+00  0.51100000000E-03 0.  1.
</event>
<event>
 8    1  0.2824193E+004  0.1043930E+01  0.7957747E-01            NaN
         13   -1    0    0    0    0  0.00000000000E+00  0.00000000000E+00  0.74505805969E-08  0.10566000000E+00  0.10566000000E+00 0.  1.
     999900   -1    0    0    0    0 -0.00000000000E+00 -0.00000000000E+00 -0.74505805969E-08  0.93827000000E+00  0.93827000000E+00 0. -1.
     999902    2    1    2    0    0 -0.65640475290E-02  0.10041163391E-01 -0.54538080556E-02  0.10307521510E+01  0.10306679102E+01 0.  0.
     999903    2    3    3    0    0 -0.31634321512E-03 -0.25476803665E-01 -0.13115901341E+00  0.14108796803E+00  0.45320639080E-01 0.  0.
         14    1    1    2    0    0  0.65640475290E-02 -0.10041163391E-01  0.54538080556E-02  0.13177849010E-01  0.00000000000E+00 0.  1.
     999901    1    3    3    0    0 -0.62477043139E-02  0.35517967057E-01  0.12570520535E+00  0.88966418296E+00  0.88000000000E+00 0.  1.
        -11    1    4    4    0    0 -0.16825897275E-02 -0.27061537703E-01 -0.32168896584E-01  0.42074421678E-01  0.51100000000E-03 0.  1.
         11    1    4    4    0    0  0.13662465124E-02  0.15847340378E-02 -0.98990116822E-01  0.99013546351E-01  0.51100000000E-03 0. -1.
</event>
<event>
 8    1  0.2824193E+004  0.1043930E+01  0.7957747E-01            NaN
         13   -1    0    0    0    0  0.00000000000E+00  0.00000000000E+00  0.74505805969E-08  0.10566000000E+00  0.10566000000E+00 0. -1.
     999900   -1    0    0    0    0 -0.00000000000E+00 -0.00000000000E+00 -0.74505805969E-08  0.93827000000E+00  0.93827000000E+00 0. -1.
     999902    2    1    2    0    0  0.12249557921E-01 -0.92783211115E-02 -0.43670928561E-02  0.10279546937E+01  0.10278305511E+01 0.  0.
     999903    2    3    3    0    0 -0.49499128948E-01  0.10281177987E+00 -0.60456423271E-01  0.13693106658E+00  0.45549006958E-01 0.  0.
         14    1    1    2    0    0 -0.12249557921E-01  0.92783211115E-02  0.43670928561E-02  0.15975306317E-01  0.00000000000E+00 0.  1.
     999901    1    3    3    0    0  0.61748686869E-01 -0.11209010098E+00  0.56089330414E-01  0.89102362710E+00  0.88000000000E+00 0. -1.
        -11    1    4    4    0    0  0.60011838353E-02  0.25438047232E-01 -0.22256305027E-01  0.34332385423E-01  0.51100000000E-03 0. -1.
         11    1    4    4    0    0 -0.55500312783E-01  0.77373732633E-01 -0.38200118244E-01  0.10259868116E+00  0.51100000000E-03 0.  1.
</event>
<event>
 8    1  0.2824193E+004  0.1043930E+01  0.7957747E-01            NaN
         13   -1    0    0    0    0  0.00000000000E+00  0.00000000000E+00  0.74505805969E-08  0.10566000000E+00  0.10566000000E+00 0.  1.
     999900   -1    0    0    0    0 -0.00000000000E+00 -0.00000000000E+00 -0.74505805969E-08  0.93827000000E+00  0.93827000000E+00 0. -1.
     999902    2    1    2    0    0  0.14605451218E-02 -0.13662350571E-01  0.28251248758E-02  0.10299023721E+01  0.10298068370E+01 0.  0.
     999903    2    3    3    0    0 -0.11075978524E+00  0.32998438728E-01  0.63240753412E-01  0.13949758772E+00  0.45864551688E-01 0.  0.
         14    1    1    2    0    0 -0.14605451218E-02  0.13662350571E-01 -0.28251248758E-02  0.14027627944E-01  0.00000000000E+00 0. -1.
     999901    1    3    3    0    0  0.11222033036E+00 -0.46660789299E-01 -0.60415628536E-01  0.89040478434E+00  0.88000000000E+00 0.  1.
        -11    1    4    4    0    0 -0.83726389248E-02  0.13788167451E-01  0.22387493350E-01  0.27598471402E-01  0.51100000000E-03 0. -1.
         11    1    4    4    0    0 -0.10238714632E+00  0.19210271277E-01  0.40853260061E-01  0.11189911631E+00  0.51100000000E-03 0.  1.
</event>
<event>
 8    1  0.2824193E+004  0.1043930E+01  0.7957747E-01            NaN
         13   -1    0    0    0    0  0.00000000000E+00  0.00000000000E+00  0.74505805969E-08  0.10566000000E+00  0.10566000000E+00 0.  1.
     999900   -1    0    0    0    0 -0.00000000000E+00 -0.00000000000E+00 -0.74505805969E-08  0.93827000000E+00  0.93827000000E+00 0.  1.
     999902    2    1    2    0    0 -0.13812947568E-01  0.43891324296E-02  0.17922249336E-02  0.10293260939E+01  0.10292224898E+01 0.  0.
     999903    2    3    3    0    0 -0.99766638863E-01 -0.87353575855E-01 -0.51131867527E-03  0.14038848758E+00  0.46093779978E-01 0.  0.
         14    1    1    2    0    0  0.13812947568E-01 -0.43891324296E-02 -0.17922249336E-02  0.14603906129E-01  0.00000000000E+00 0. -1.
     999901    1    3    3    0    0  0.85953691295E-01  0.91742708285E-01  0.23035436089E-02  0.88893760629E+00  0.88000000000E+00 0.  1.
        -11    1    4    4    0    0 -0.68284475059E-01 -0.68665040117E-01 -0.20039734093E-01  0.98891401709E-01  0.51100000000E-03 0.  1.
         11    1    4    4    0    0 -0.31482163804E-01 -0.18688535738E-01  0.19528415418E-01  0.41497085868E-01  0.51100000000E-03 0. -1.
</event>
<event>
 8    1  0.2824193E+004  0.1043930E+01  0.7957747E-01            NaN
         13   -1    0    0    0    0  0.00000000000E+00  0.00000000000E+00  0.74505805969E-08  0.10566000000E+00  0.10566000000E+00 0. -1.
     999900   -1    0    0    0    0 -0.00000000000E+00 -0.00000000000E+00 -0.74505805969E-08  0.93827000000E+00  0.93827000000E+00 0. -1.
     999902    2    1    2    0    0  0.11210391938E-01 -0.18411298216E-02  0.76238952317E-02  0.10302483910E+01  0.10301575417E+01 0.  0.
     999903    2    3    3    0    0 -0.11036883403E+00 -0.53746061734E-01 -0.46788223622E-01  0.13871246417E+00  0.44520682497E-01 0.  0.
         14    1    1    2    0    0 -0.11210391938E-01  0.18411298216E-02 -0.76238952317E-02  0.13681609004E-01  0.00000000000E+00 0. -1.
     999901    1    3    3    0    0  0.12157922597E+00  0.51904931913E-01  0.54412118853E-01  0.89153592683E+00  0.88000000000E+00 0.  1.
        -11    1    4    4    0    0 -0.10035315061E+00 -0.39664926204E-01 -0.53154441751E-01  0.12029013678E+00  0.51100000000E-03 0.  1.
         11    1    4    4    0    0 -0.10015683419E-01 -0.14081135530E-01  0.63662181297E-02  0.18422327389E-01  0.51100000000E-03 0. -1.
</event>
<event>
 8    1  0.2824193E+004  0.1043930E+01  0.7957747E-01            NaN
         13   -1    0    0    0    0  0.00000000000E+00  0.00000000000E+00  0.74505805969E-08  0.10566000000E+00  0.10566000000E+00 0.  1.
     999900   -1    0    0    0    0 -0.00000000000E+00 -0.00000000000E+00 -0.74505805969E-08  0.93827000000E+00  0.93827000000E+00 0. -1.
     999902    2    1    2    0    0  0.10674992215E-01 -0.92511108938E-02 -0.32511635648E-02  0.10294348775E+01  0.10293328220E+01 0.  0.
     999903    2    3    3    0    0 -0.14478142722E-01 -0.11335089561E+00 -0.69043624764E-01  0.14050400656E+00  0.43775696287E-01 0.  0.
         14    1    1    2    0    0 -0.10674992215E-01  0.92511108938E-02  0.32511635648E-02  0.14495122493E-01  0.00000000000E+00 0.  1.
     999901    1    3    3    0    0  0.25153134937E-01  0.10409978472E+00  0.65792461199E-01  0.88893087095E+00  0.88000000000E+00 0.  1.
        -11    1    4    4    0    0  0.85729941164E-02 -0.86550528458E-01 -0.50720359509E-01  0.10068419039E+00  0.51100000000E-03 0. -1.
         11    1    4    4    0    0 -0.23051136838E-01 -0.26800367154E-01 -0.18323265255E-01  0.39819816169E-01  0.51100000000E-03 0.  1.
</event>
<event>
 8    1  0.2824193E+004  0.1043930E+01  0.7957747E-01            NaN
         13   -1    0    0    0    0  0.00000000000E+00  0.00000000000E+00  0.74505805969E-08  0.10566000000E+00  0.10566000000E+00 0. -1.
     999900   -1    0    0    0    0 -0.00000000000E+00 -0.00000000000E+00 -0.74505805969E-08  0.93827000000E+00  0.93827000000E+00 0. -1.
     999902    2    1    2    0    0 -0.11369474245E-01  0.77532931838E-02 -0.18283558372E-02  0.10300475872E+01  0.10299540332E+01 0.  0.
     999903    2    3    3    0    0  0.46333151724E-01  0.78214309153E-01  0.96347301825E-01  0.13991680605E+00  0.45051869448E-01 0.  0.
         14    1    1    2    0    0  0.11369474245E-01 -0.77532931838E-02  0.18283558372E-02  0.13882412790E-01  0.00000000000E+00 0. -1.
     999901    1    3    3    0    0 -0.57702625969E-01 -0.70461015969E-01 -0.98175657662E-01  0.89013078116E+00  0.88000000000E+00 0. -1.
        -11    1    4    4    0    0  0.50176403417E-01  0.44052664751E-01  0.58366753305E-01  0.88686231987E-01  0.51100000000E-03 0.  1.
         11    1    4    4    0    0 -0.38432516935E-02  0.34161644402E-01  0.37980548519E-01  0.51230574061E-01  0.51100000000E-03 0. -1.
</event>
<event>
 8    1  0.2824193E+004  0.1043930E+01  0.7957747E-01            NaN
         13   -1    0    0    0    0  0.00000000000E+00  0.00000000000E+00  0.74505805969E-08  0.10566000000E+00  0.10566000000E+00 0. -1.
     999900   -1    0    0    0    0 -0.00000000000E+00 -0.00000000000E+00 -0.74505805969E-08  0.93827000000E+00  0.93827000000E+00 0. -1.
     999902    2    1    2    0    0 -0.16931745006E-02 -0.82788728480E-02  0.10299671387E-01  0.10306074700E+01  0.10305213571E+01 0.  0.
     999903    2    3    3    0    0  0.63170269294E-01  0.11478284203E+00 -0.16455977640E-01  0.13927850895E+00  0.44295824938E-01 0.  0.
         14    1    1    2    0    0  0.16931745006E-02  0.82788728480E-02 -0.10299671387E-01  0.13322530023E-01  0.00000000000E+00 0.  1.
     999901    1    3    3    0    0 -0.64863443795E-01 -0.12306171488E+00  0.26755649027E-01  0.89132896103E+00  0.88000000000E+00 0.  1.
        -11    1    4    4    0    0  0.11793025136E-01  0.42376926470E-01 -0.24112997151E-01  0.50165497022E-01  0.51100000000E-03 0. -1.
         11    1    4    4    0    0  0.51377244158E-01  0.72405915565E-01  0.76570195108E-02  0.89113011928E-01  0.51100000000E-03 0.  1.
</event>
<event>
 8    1  0.2824193E+004  0.1043930E+01  0.7957747E-01            NaN
         13   -1    0    0    0    0  0.00000000000E+00  0.00000000000E+00  0.74505805969E-08  0.10566000000E+00  0.10566000000E+00 0.  1.
     999900   -1    0    0    0    0 -0.00000000000E+00 -0.00000000000E+00 -0.74505805969E-08  0.93827000000E+00  0.93827000000E+00 0.  1.
     999902    2    1    2    0    0 -0.32877966746E-02 -0.10435958625E-01  0.77742999245E-02  0.10305076836E+01  0.10304202673E+01 0.  0.
     999903    2    3    3    0    0 -0.18715903058E-01  0.97367834789E-01  0.88221979629E-01  0.14015297137E+00  0.45043949824E-01 0.  0.
         14    1    1    2    0    0  0.32877966746E-02  0.10435958625E-01 -0.77742999245E-02  0.13422316444E-01  0.00000000000E+00 0. -1.
     999901    1    3    3    0    0  0.15428106384E-01 -0.10780379341E+00 -0.80447679704E-01  0.89035471219E+00  0.88000000000E+00 0.  1.
        -11    1    4    4    0    0 -0.16852341646E-02  0.64814307460E-01  0.79131220601E-01  0.10230222706E+00  0.51100000000E-03 0.  1.
         11    1    4    4    0    0 -0.17030668894E-01  0.32553527329E-01  0.90907590273E-02  0.37850744315E-01  0.51100000000E-03 0. -1.
</event>
<event>
 7    1  0.2824193E+004  0.1043930E+01  0.7957747E-01            NaN
         13   -1    0    0    0    0  0.00000000000E+00  0.00000000000E+00  0.74505805969E-08  0.10566000000E+00  0.10566000000E+00 0.  1.
     999900   -1    0    0    0    0 -0.00000000000E+00 -0.00000000000E+00 -0.74505805969E-08  0.93827000000E+00  0.93827000000E+00 0.  1.
     999903    2    1    2    0    0  0.33415863441E-01  0.95013788462E-01  0.64988275097E-01  0.12807724138E+00  0.45122765124E-01 0.  0.
         14    1    1    2    0    0  0.17081478799E-01 -0.18729589486E-01 -0.15532014431E-01  0.29729075206E-01  0.00000000000E+00 0. -1.
     999901    1    1    2    0    0 -0.50497342240E-01 -0.76284198975E-01 -0.49456260665E-01  0.88612368341E+00  0.88000000000E+00 0.  1.
        -11    1    3    3    0    0  0.42315723673E-02  0.69765786824E-01  0.52825885137E-01  0.87612821421E-01  0.51100000000E-03 0.  1.
         11    1    3    3    0    0  0.29184291074E-01  0.25248001637E-01  0.12162389960E-01  0.40464419960E-01  0.51100000000E-03 0. -1.
</event>
<event>
 8    1  0.2824193E+004  0.1043930E+01  0.7957747E-01            NaN
         13   -1    0    0    0    0  0.00000000000E+00  0.00000000000E+00  0.74505805969E-08  0.10566000000E+00  0.10566000000E+00 0.  1.
     999900   -1    0    0    0    0 -0.00000000000E+00 -0.00000000000E+00 -0.74505805969E-08  0.93827000000E+00  0.93827000000E+00 0. -1.
     999902    2    1    2    0    0 -0.32083855510E-02  0.11903157823E-02  0.10140757838E-01  0.10332274041E+01  0.10331719717E+01 0.  0.
     999903    2    3    3    0    0 -0.10820654696E+00 -0.77326370241E-01  0.26300838497E-01  0.14336750946E+00  0.46631366286E-01 0.  0.
         14    1    1    2    0    0  0.32083855510E-02 -0.11903157823E-02 -0.10140757838E-01  0.10702595902E-01  0.00000000000E+00 0. -1.
     999901    1    3    3    0    0  0.10499816141E+00  0.78516686023E-01 -0.16160080658E-01  0.88985989464E+00  0.88000000000E+00 0. -1.
        -11    1    4    4    0    0 -0.10916950078E+00 -0.80554386380E-01  0.21328064025E-01  0.13733949360E+00  0.51100000000E-03 0. -1.
         11    1    4    4    0    0  0.96295381675E-03  0.32280161388E-02  0.49727744715E-02  0.60280158585E-02  0.51100000000E-03 0.  1.
</event>
<event>
 8    1  0.2824193E+004  0.1043930E+01  0.7957747E-01            NaN
         13   -1    0    0    0    0  0.00000000000E+00  0.00000000000E+00  0.74505805969E-08  0.10566000000E+00  0.10566000000E+00 0. -1.
     999900   -1    0    0    0    0 -0.00000000000E+00 -0.00000000000E+00 -0.74505805969E-08  0.93827000000E+00  0.93827000000E+00 0. -1.
     999902    2    1    2    0    0 -0.62337624136E-02 -0.31910760895E-02 -0.13469681099E-01  0.10287485946E+01  0.10286365713E+01 0.  0.
     999903    2    3    3    0    0  0.43720032865E-01 -0.12350518961E+00 -0.27545971790E-01  0.13904695388E+00  0.37553983641E-01 0.  0.
         14    1    1    2    0    0  0.62337624136E-02  0.31910760895E-02  0.13469681099E-01  0.15181405382E-01  0.00000000000E+00 0. -1.
     999901    1    3    3    0    0 -0.49953795278E-01  0.12031411352E+00  0.14076290690E-01  0.88970164074E+00  0.88000000000E+00 0. -1.
        -11    1    4    4    0    0  0.15221504729E-01 -0.36176579797E-01  0.88500923483E-02  0.40237102127E-01  0.51100000000E-03 0. -1.
         11    1    4    4    0    0  0.28498528136E-01 -0.87328609812E-01 -0.36396064138E-01  0.98809851752E-01  0.51100000000E-03 0.  1.
</event>
<event>
 8    1  0.2824193E+004  0.1043930E+01  0.7957747E-01            NaN
         13   -1    0    0    0    0  0.00000000000E+00  0.00000000000E+00  0.74505805969E-08  0.10566000000E+00  0.10566000000E+00 0. -1.
     999900   -1    0    0    0    0 -0.00000000000E+00 -0.00000000000E+00 -0.74505805969E-08  0.93827000000E+00  0.93827000000E+00 0. -1.
     999902    2    1    2    0    0 -0.59705395832E-02 -0.10563661683E-01  0.69784299653E-02  0.10299322582E+01  0.10298371326E+01 0.  0.
     999903    2    3    3    0    0  0.11539683989E-01  0.36248930797E-01  0.12977554241E+00  0.14000127346E+00  0.36214857070E-01 0.  0.
         14    1    1    2    0    0  0.59705395832E-02  0.10563661683E-01 -0.69784299653E-02  0.13997741812E-01  0.00000000000E+00 0.  1.
     999901    1    3    3    0    0 -0.17510223572E-01 -0.46812592479E-01 -0.12279711245E+00  0.88993098472E+00  0.88000000000E+00 0. -1.
        -11    1    4    4    0    0  0.10703322120E-01  0.46257043151E-02  0.81175815968E-01  0.82010563124E-01  0.51100000000E-03 0.  1.
         11    1    4    4    0    0  0.83636186958E-03  0.31623226481E-01  0.48599726445E-01  0.57990710341E-01  0.51100000000E-03 0. -1.
</event>
<event>
 8    1  0.2824193E+004  0.1043930E+01  0.7957747E-01            NaN
         13   -1    0    0    0    0  0.00000000000E+00  0.00000000000E+00  0.74505805969E-08  0.10566000000E+00  0.10566000000E+00 0.  1.
     999900   -1    0    0    0    0 -0.00000000000E+00 -0.00000000000E+00 -0.74505805969E-08  0.93827000000E+00  0.93827000000E+00 0.  1.
     999902    2    1    2    0    0 -0.87409688659E-02 -0.12177074067E-01  0.11606181354E-02  0.10288956159E+01  0.10287857677E+01 0.  0.
     999903    2    3    3    0    0 -0.10713941518E+00 -0.35832008032E-01 -0.69966073277E-01  0.14024449409E+00  0.44838372285E-01 0.  0.
         14    1    1    2    0    0  0.87409688659E-02  0.12177074067E-01 -0.11606181354E-02  0.15034384058E-01  0.00000000000E+00 0. -1.
     999901    1    3    3    0    0  0.98398446309E-01  0.23654933965E-01  0.71126691413E-01  0.88865112185E+00  0.88000000000E+00 0.  1.
        -11    1    4    4    0    0 -0.28571820443E-01 -0.31461481115E-01 -0.19503389081E-01  0.46763415444E-01  0.51100000000E-03 0. -1.
         11    1    4    4    0    0 -0.78567594732E-01 -0.43705269175E-02 -0.50462684197E-01  0.93481078646E-01  0.51100000000E-03 0.  1.
</event>
<event>
 8    1  0.2824193E+004  0.1043930E+01  0.7957747E-01            NaN
         13   -1    0    0    0    0  0.00000000000E+00  0.00000000000E+00  0.74505805969E-08  0.10566000000E+00  0.10566000000E+00 0. -1.
     999900   -1    0    0    0    0 -0.00000000000E+00 -0.00000000000E+00 -0.74505805969E-08  0.93827000000E+00  0.93827000000E+00 0.  1.
     999902    2    1    2    0    0  0.13631366272E-01 -0.29243914206E-03 -0.45138997882E-02  0.10295677245E+01  0.10294675441E+01 0.  0.
     999903    2    3    3    0    0  0.22179287735E-02 -0.30142106456E-01  0.12809953796E+00  0.13905798670E+00  0.44879463569E-01 0.  0.
         14    1    1    2    0    0 -0.13631366272E-01  0.29243914206E-03  0.45138997882E-02  0.14362275529E-01  0.00000000000E+00 0. -1.
     999901    1    3    3    0    0  0.11413437498E-01  0.29849667314E-01 -0.13261343775E+00  0.89050973777E+00  0.88000000000E+00 0.  1.
        -11    1    4    4    0    0 -0.17938257244E-01 -0.19088287693E-01  0.96401659663E-01  0.99898372894E-01  0.51100000000E-03 0. -1.
         11    1    4    4    0    0  0.20156186018E-01 -0.11053818764E-01  0.31697878294E-01  0.39159613806E-01  0.51100000000E-03 0.  1.
</event>
<event>
 8    1  0.2824193E+004  0.1043930E+01  0.7957747E-01            NaN
         13   -1    0    0    0    0  0.00000000000E+00  0.00000000000E+00  0.74505805969E-08  0.10566000000E+00  0.10566000000E+00 0. -1.
     999900   -1    0    0    0    0 -0.00000000000E+00 -0.00000000000E+00 -0.74505805969E-08  0.93827000000E+00  0.93827000000E+00 0. -1.
     999902    2    1    2    0    0  0.52351526545E-03 -0.91330136025E-02 -0.10805986730E-01  0.10297717743E+01  0.10296744397E+01 0.  0.
     999903    2    3    3    0    0 -0.29406202758E-01  0.99880282595E-01  0.79415935342E-01  0.13796479856E+00  0.43435000201E-01 0.  0.
         14    1    1    2    0    0 -0.52351526545E-03  0.91330136025E-02  0.10805986730E-01  0.14158225697E-01  0.00000000000E+00 0. -1.
     999901    1    3    3    0    0  0.29929718024E-01 -0.10901329620E+00 -0.90221922071E-01  0.89180697575E+00  0.88000000000E+00 0. -1.
        -11    1    4    4    0    0 -0.21033589880E-01  0.75227799606E-01  0.33116176214E-01  0.84844422238E-01  0.51100000000E-03 0.  1.
         11    1    4    4    0    0 -0.83726128784E-02  0.24652482989E-01  0.46299759127E-01  0.53120376318E-01  0.51100000000E-03 0. -1.
</event>
<event>
 8    1  0.2824193E+004  0.1043930E+01  0.7957747E-01            NaN
         13   -1    0    0    0    0  0.00000000000E+00  0.00000000000E+00  0.74505805969E-08  0.10566000000E+00  0.10566000000E+00 0.  1.
     999900   -1    0    0    0    0 -0.00000000000E+00 -0.00000000000E+00 -0.74505805969E-08  0.93827000000E+00  0.93827000000E+00 0.  1.
     999902    2    1    2    0    0  0.59769315476E-02 -0.66669883028E-02  0.60236923703E-02  0.10331384610E+01  0.10330820985E+01 0.  0.
     999903    2    3    3    0    0 -0.12206482190E+00 -0.12753590440E-02  0.50101989355E-01  0.14276401364E+00  0.54496852812E-01 0.  0.
         14    1    1    2    0    0 -0.59769315476E-02  0.66669883028E-02 -0.60236923703E-02  0.10791538979E-01  0.00000000000E+00 0. -1.
     999901    1    3    3    0    0  0.12804175345E+00 -0.53916292588E-02 -0.44078296985E-01  0.89037444739E+00  0.88000000000E+00 0.  1.
        -11    1    4    4    0    0 -0.10016254249E+00  0.10056625123E-01  0.17973467648E-01  0.10225936284E+00  0.51100000000E-03 0. -1.
         11    1    4    4    0    0 -0.21902279407E-01 -0.11331984167E-01  0.32128521708E-01  0.40504650801E-01  0.51100000000E-03 0.  1.
</event>
<event>
 8    1  0.2824193E+004  0.1043930E+01  0.7957747E-01            NaN
         13   -1    0    0    0    0  0.00000000000E+00  0.00000000000E+00  0.74505805969E-08  0.10566000000E+00  0.10566000000E+00 0.  1.
     999900   -1    0    0    0    0 -0.00000000000E+00 -0.00000000000E+00 -0.74505805969E-08  0.93827000000E+00  0.93827000000E+00 0. -1.
     999902    2    1    2    0    0  0.57370110093E-02  0.90852053379E-02  0.10501016344E-01  0.10289058329E+01  0.10287961350E+01 0.  0.
     999903    2    3    3    0    0  0.56321195207E-01  0.11810434794E+00  0.25961862617E-01  0.14060241017E+00  0.44433156588E-01 0.  0.
         14    1    1    2    0    0 -0.57370110093E-02 -0.90852053379E-02 -0.10501016344E-01  0.15024167052E-01  0.00000000000E+00 0. -1.
     999901    1    3    3    0    0 -0.50584184198E-01 -0.10901914260E+00 -0.15460846273E-01  0.88830342277E+00  0.88000000000E+00 0.  1.
        -11    1    4    4    0    0  0.76743386836E-04  0.46594659637E-01  0.25948939058E-02  0.46669720287E-01  0.51100000000E-03 0.  1.
         11    1    4    4    0    0  0.56244451820E-01  0.71509688303E-01  0.23366968711E-01  0.93932689887E-01  0.51100000000E-03 0. -1.
</event>
<event>
 8    1  0.2824193E+004  0.1043930E+01  0.7957747E-01            NaN
         13   -1    0    0    0    0  0.00000000000E+00  0.00000000000E+00  0.74505805969E-08  0.10566000000E+00  0.10566000000E+00 0. -1.
     999900   -1    0    0    0    0 -0.00000000000E+00 -0.00000000000E+00 -0.74505805969E-08  0.93827000000E+00  0.93827000000E+00 0. -1.
     999902    2    1    2    0    0 -0.56131924160E-02  0.21499614406E-02 -0.94394939860E-02  0.10327391864E+01  0.10326785525E+01 0.  0.
     999903    2    3    3    0    0  0.24300491316E-01 -0.81349680095E-01  0.10329915253E+00  0.14112434741E+00  0.45134046898E-01 0.  0.
         14    1    1    2    0    0  0.56131924160E-02 -0.21499614406E-02  0.94394939860E-02  0.11190813644E-01  0.00000000000E+00 0. -1.
     999901    1    3    3    0    0 -0.29913683732E-01  0.83499641536E-01 -0.11273864651E+00  0.89161483895E+00  0.88000000000E+00 0.  1.
        -11    1    4    4    0    0 -0.80284612167E-02 -0.47899991309E-01  0.42292166643E-01  0.64403057670E-01  0.51100000000E-03 0.  1.
         11    1    4    4    0    0  0.32328952532E-01 -0.33449688786E-01  0.61006985884E-01  0.76721289740E-01  0.51100000000E-03 0. -1.
</event>
<event>
 8    1  0.2824193E+004  0.1043930E+01  0.7957747E-01            NaN
         13   -1    0    0    0    0  0.00000000000E+00  0.00000000000E+00  0.74505805969E-08  0.10566000000E+00  0.10566000000E+00 0. -1.
     999900   -1    0    0    0    0 -0.00000000000E+00 -0.00000000000E+00 -0.74505805969E-08  0.93827000000E+00  0.93827000000E+00 0.  1.
     999902    2    1    2    0    0 -0.11387757912E-01 -0.51548051243E-02 -0.84273108656E-02  0.10288544365E+01  0.10287439812E+01 0.  0.
     999903    2    3    3    0    0 -0.11119310063E+00  0.50404455872E-01  0.49686788723E-01  0.13957091227E+00  0.45899322197E-01 0.  0.
         14    1    1    2    0    0  0.11387757912E-01  0.51548051243E-02  0.84273108656E-02  0.15075563491E-01  0.00000000000E+00 0. -1.
     999901    1    3    3    0    0  0.99805342718E-01 -0.55559260996E-01 -0.58114099588E-01  0.88928352424E+00  0.88000000000E+00 0.  1.
        -11    1    4    4    0    0 -0.74678894292E-01  0.14614071438E-01  0.14407385310E-01  0.77448965191E-01  0.51100000000E-03 0.  1.
         11    1    4    4    0    0 -0.36514206338E-01  0.35790384434E-01  0.35279403413E-01  0.62121947076E-01  0.51100000000E-03 0. -1.
</event>
<event>
 8    1  0.2824193E+004  0.1043930E+01  0.7957747E-01            NaN
         13   -1    0    0    0    0  0.00000000000E+00  0.00000000000E+00  0.74505805969E-08  0.10566000000E+00  0.10566000000E+00 0. -1.
     999900   -1    0    0    0    0 -0.00000000000E+00 -0.00000000000E+00 -0.74505805969E-08  0.93827000000E+00  0.93827000000E+00 0. -1.
     999902    2    1    2    0    0  0.96140708322E-02 -0.77705709798E-02 -0.60275051608E-02  0.10301770749E+01  0.10300852696E+01 0.  0.
     999903    2    3    3    0    0  0.60399337930E-01  0.46002738142E-01  0.10817242339E+00  0.13972082338E+00  0.45346481278E-01 0.  0.
         14    1    1    2    0    0 -0.96140708322E-02  0.77705709798E-02  0.60275051608E-02  0.13752925135E-01  0.00000000000E+00 0. -1.
     999901    1    3    3    0    0 -0.50785267098E-01 -0.53773309122E-01 -0.11419992855E+00  0.89045625149E+00  0.88000000000E+00 0. -1.
        -11    1    4    4    0    0  0.45620022803E-01  0.19700341319E-01  0.35614712304E-01  0.61138848387E-01  0.51100000000E-03 0. -1.
         11    1    4    4    0    0  0.14779315127E-01  0.26302396823E-01  0.72557711088E-01  0.78581974992E-01  0.51100000000E-03 0.  1.
</event>
<event>
 8    1  0.2824193E+004  0.1043930E+01  0.7957747E-01            NaN
         13   -1    0    0    0    0  0.00000000000E+00  0.00000000000E+00  0.74505805969E-08  0.10566000000E+00  0.10566000000E+00 0.  1.
     999900   -1    0    0    0    0 -0.00000000000E+00 -0.00000000000E+00 -0.74505805969E-08  0.93827000000E+00  0.93827000000E+00 0. -1.
     999902    2    1    2    0    0 -0.10503774201E-01 -0.17713742504E-02 -0.68988588155E-02  0.10312390074E+01  0.10311609133E+01 0.  0.
     999903    2    3    3    0    0 -0.11350896873E+00  0.51444498934E-01  0.50568462697E-01  0.14177597150E+00  0.44860162987E-01 0.  0.
         14    1    1    2    0    0  0.10503774201E-01  0.17713742504E-02  0.68988588155E-02  0.12690992560E-01  0.00000000000E+00 0.  1.
     999901    1    3    3    0    0  0.10300519453E+00 -0.53215873184E-01 -0.57467321512E-01  0.88946303594E+00  0.88000000000E+00 0. -1.
        -11    1    4    4    0    0 -0.41725116475E-02 -0.60970391661E-02  0.84586716960E-02  0.11242508079E-01  0.51100000000E-03 0.  1.
         11    1    4    4    0    0 -0.10933645708E+00  0.57541538100E-01  0.42109791001E-01  0.13053346342E+00  0.51100000000E-03 0. -1.
</event>
<event>
 8    1  0.2824193E+004  0.1043930E+01  0.7957747E-01            NaN
         13   -1    0    0    0    0  0.00000000000E+00  0.00000000000E+00  0.74505805969E-08  0.10566000000E+00  0.10566000000E+00 0. -1.
     999900   -1    0    0    0    0 -0.00000000000E+00 -0.00000000000E+00 -0.74505805969E-08  0.93827000000E+00  0.93827000000E+00 0. -1.
     999902    2    1    2    0    0 -0.10958425185E-01 -0.39771309828E-02  0.77071439464E-02  0.10299548534E+01  0.10298600368E+01 0.  0.
     999903    2    3    3    0    0 -0.45985968050E-01  0.78792638818E-02  0.12548639880E+00  0.14133825686E+00  0.45308658229E-01 0.  0.
         14    1    1    2    0    0  0.10958425185E-01  0.39771309828E-02 -0.77071439464E-02  0.13975146554E-01  0.00000000000E+00 0.  1.
     999901    1    3    3    0    0  0.35027542865E-01 -0.11856394865E-01 -0.11777925486E+00  0.88861659659E+00  0.88000000000E+00 0. -1.
        -11    1    4    4    0    0 -0.19413126404E-02  0.14218259557E-03  0.70197087172E-01  0.70225928823E-01  0.51100000000E-03 0. -1.
         11    1    4    4    0    0 -0.44044655410E-01  0.77370812863E-02  0.55289311630E-01  0.71112328035E-01  0.51100000000E-03 0.  1.
</event>
<event>
 8    1  0.2824193E+004  0.1043930E+01  0.7957747E-01            NaN
         13   -1    0    0    0    0  0.00000000000E+00  0.00000000000E+00  0.74505805969E-08  0.10566000000E+00  0.10566000000E+00 0.  1.
     999900   -1    0    0    0    0 -0.00000000000E+00 -0.00000000000E+00 -0.74505805969E-08  0.93827000000E+00  0.93827000000E+00 0.  1.
     999902    2    1    2    0    0  0.89301315086E-02  0.70564385226E-02  0.71302124774E-02  0.10304994191E+01  0.10304118945E+01 0.  0.
     999903    2    3    3    0    0  0.80066915956E-02 -0.11458545223E+00 -0.65171684407E-01  0.13919410293E+00  0.43974047679E-01 0.  0.
         14    1    1    2    0    0 -0.89301315086E-02 -0.70564385226E-02 -0.71302124774E-02  0.13430580902E-01  0.00000000000E+00 0. -1.
     999901    1    3    3    0    0  0.92343991298E-03  0.12164189076E+00  0.72301896884E-01  0.89130531616E+00  0.88000000000E+00 0. -1.
        -11    1    4    4    0    0  0.70856146527E-02 -0.78333324228E-01 -0.19799980697E-01  0.81108667701E-01  0.51100000000E-03 0. -1.
         11    1    4    4    0    0  0.92107694290E-03 -0.36252128006E-01 -0.45371703710E-01  0.58085435234E-01  0.51100000000E-03 0.  1.
</event>
<event>
 8    1  0.2824193E+004  0.1043930E+01  0.7957747E-01            NaN
         13   -1    0    0    0    0  0.00000000000E+00  0.00000000000E+00  0.74505805969E-08  0.10566000000E+00  0.10566000000E+00 0.  1.
     999900   -1    0    0    0    0 -0.00000000000E+00 -0.00000000000E+00 -0.74505805969E-08  0.93827000000E+00  0.93827000000E+00 0.  1.
     999902    2    1    2    0    0 -0.58467644631E-02 -0.13133210134E-01 -0.42197082465E-02  0.10289476170E+01  0.10288385329E+01 0.  0.
     999903    2    3    3    0    0 -0.81894113005E-01 -0.32563277918E-01  0.97836532299E-01  0.13957918771E+00  0.46296325732E-01 0.  0.
         14    1    1    2    0    0  0.58467644631E-02  0.13133210134E-01  0.42197082465E-02  0.14982383014E-01  0.00000000000E+00 0.  1.
     999901    1    3    3    0    0  0.76047348542E-01  0.19430067785E-01 -0.10205624055E+00  0.88936842927E+00  0.88000000000E+00 0.  1.
        -11    1    4    4    0    0 -0.34735505252E-01  0.97261380856E-02  0.38973672131E-01  0.53107074176E-01  0.51100000000E-03 0. -1.
         11    1    4    4    0    0 -0.47158607753E-01 -0.42289416004E-01  0.58862860169E-01  0.86472113536E-01  0.51100000000E-03 0.  1.
</event>
<event>
 8    1  0.2824193E+004  0.1043930E+01  0.7957747E-01            NaN
         13   -1    0    0    0    0  0.00000000000E+00  0.00000000000E+00  0.74505805969E-08  0.10566000000E+00  0.10566000000E+00 0.  1.
     999900   -1    0    0    0    0 -0.00000000000E+00 -0.00000000000E+00 -0.74505805969E-08  0.93827000000E+00  0.93827000000E+00 0.  1.
     999902    2    1    2    0    0  0.33216480604E-02 -0.13197821363E-01  0.19373557518E-02  0.10301833938E+01  0.10300916734E+01 0.  0.
     999903    2    3    3    0    0  0.59260104380E-01  0.18581692702E-01 -0.11715056625E+00  0.13983459610E+00  0.44411933302E-01 0.  0.
         14    1    1    2    0    0 -0.33216480604E-02  0.13197821363E-01 -0.19373557518E-02  0.13746606195E-01  0.00000000000E+00 0. -1.
     999901    1    3    3    0    0 -0.55938456319E-01 -0.31779514065E-01  0.11908792200E+00  0.89034879771E+00  0.88000000000E+00 0. -1.
        -11    1    4    4    0    0  0.43884082776E-01  0.31771833641E-01 -0.97853089375E-01  0.11185146559E+00  0.51100000000E-03 0.  1.
         11    1    4    4    0    0  0.15376021604E-01 -0.13190140939E-01 -0.19297476871E-01  0.27983130507E-01  0.51100000000E-03 0. -1.
</event>
<event>
 8    1  0.2824193E+004  0.1043930E+01  0.7957747E-01            NaN
         13   -1    0    0    0    0  0.00000000000E+00  0.00000000000E+00  0.74505805969E-08  0.10566000000E+00  0.10566000000E+00 0. -1.
     999900   -1    0    0    0    0 -0.00000000000E+00 -0.00000000000E+00 -0.74505805969E-08  0.93827000000E+00  0.93827000000E+00 0.  1.
     999902    2    1    2    0    0  0.29395804873E-02  0.61558042660E-02  0.11692489968E-01  0.10303930365E+01  0.10303041106E+01 0.  0.
     999903    2    3    3    0    0  0.97357182171E-01 -0.20310938365E-01 -0.86979288134E-01  0.13946582747E+00  0.44658317576E-01 0.  0.
         14    1    1    2    0    0 -0.29395804873E-02 -0.61558042660E-02 -0.11692489968E-01  0.13536963517E-01  0.00000000000E+00 0.  1.
     999901    1    3    3    0    0 -0.94417601684E-01  0.26466742631E-01  0.98671778103E-01  0.89092720902E+00  0.88000000000E+00 0. -1.
        -11    1    4    4    0    0  0.31224943210E-01 -0.27802898747E-01 -0.26270111969E-01  0.49379936827E-01  0.51100000000E-03 0.  1.
         11    1    4    4    0    0  0.66132238961E-01  0.74919603826E-02 -0.60709176166E-01  0.90085890638E-01  0.51100000000E-03 0. -1.
</event>
<event>
 8    1  0.2824193E+004  0.1043930E+01  0.7957747E-01            NaN
         13   -1    0    0    0    0  0.00000000000E+00  0.00000000000E+00  0.74505805969E-08  0.10566000000E+00  0.10566000000E+00 0.  1.
     999900   -1    0    0    0    0 -0.00000000000E+00 -0.00000000000E+00 -0.74505805969E-08  0.93827000000E+00  0.93827000000E+00 0. -1.
     999902    2    1    2    0    0 -0.12166317591E-01  0.39078843292E-02 -0.57195495167E-02  0.10299298539E+01  0.10298346954E+01 0.  0.
     999903    2    3    3    0    0  0.70816979141E-01  0.61633941262E-01  0.91722581005E-01  0.13879939546E+00  0.45149231048E-01 0.  0.
         14    1    1    2    0    0  0.12166317591E-01 -0.39078843292E-02  0.57195495167E-02  0.14000146083E-01  0.00000000000E+00 0. -1.
     999901    1    3    3    0    0 -0.82983296733E-01 -0.57726056933E-01 -0.97442130522E-01  0.89113045846E+00  0.88000000000E+00 0. -1.
        -11    1    4    4    0    0  0.63701114402E-01  0.42688044572E-01  0.47604645014E-01  0.90258320798E-01  0.51100000000E-03 0.  1.
         11    1    4    4    0    0  0.71158647390E-02  0.18945896691E-01  0.44117935991E-01  0.48541074664E-01  0.51100000000E-03 0. -1.
</event>
<event>
 8    1  0.2824193E+004  0.1043930E+01  0.7957747E-01            NaN
         13   -1    0    0    0    0  0.00000000000E+00  0.00000000000E+00  0.74505805969E-08  0.10566000000E+00  0.10566000000E+00 0.  1.
     999900   -1    0    0    0    0 -0.00000000000E+00 -0.00000000000E+00 -0.74505805969E-08  0.93827000000E+00  0.93827000000E+00 0. -1.
     999902    2    1    2    0    0 -0.25501442144E-03 -0.14118387655E-01  0.12601499970E-02  0.10297531922E+01  0.10296556001E+01 0.  0.
     999903    2    3    3    0    0 -0.10295408391E+00  0.74033773583E-01  0.34093070465E-01  0.13880094705E+00  0.44975798198E-01 0.  0.
         14    1    1    2    0    0  0.25501442144E-03  0.14118387655E-01 -0.12601499970E-02  0.14176807834E-01  0.00000000000E+00 0.  1.
     999901    1    3    3    0    0  0.10269906949E+00 -0.88152161239E-01 -0.32832920468E-01  0.89095224511E+00  0.88000000000E+00 0. -1.
        -11    1    4    4    0    0 -0.75808902119E-01  0.37925163758E-01  0.39093540330E-01  0.93348131760E-01  0.51100000000E-03 0.  1.
         11    1    4    4    0    0 -0.27145181795E-01  0.36108609825E-01 -0.50004698650E-02  0.45452815293E-01  0.51100000000E-03 0. -1.
</event>
<event>
 8    1  0.2824193E+004  0.1043930E+01  0.7957747E-01            NaN
         13   -1    0    0    0    0  0.00000000000E+00  0.00000000000E+00  0.74505805969E-08  0.10566000000E+00  0.10566000000E+00 0. -1.
     999900   -1    0    0    0    0 -0.00000000000E+00 -0.00000000000E+00 -0.74505805969E-08  0.93827000000E+00  0.93827000000E+00 0. -1.
     999902    2    1    2    0    0  0.11300553091E-01  0.40379894551E-02 -0.90179769071E-02  0.10289189452E+01  0.10288094401E+01 0.  0.
     999903    2    3    3    0    0 -0.60772924078E-01 -0.64647719123E-01 -0.96846363112E-01  0.13896044161E+00  0.45366401613E-01 0.  0.
         14    1    1    2    0    0 -0.11300553091E-01 -0.40379894551E-02  0.90179769071E-02  0.15011054809E-01  0.00000000000E+00 0. -1.
     999901    1    3    3    0    0  0.72073477169E-01  0.68685708578E-01  0.87828386205E-01  0.88995850358E+00  0.88000000000E+00 0.  1.
        -11    1    4    4    0    0 -0.32124199096E-01 -0.26067092543E-01 -0.14923045203E-01  0.43981994956E-01  0.51100000000E-03 0.  1.
         11    1    4    4    0    0 -0.28648724982E-01 -0.38580626580E-01 -0.81923317909E-01  0.94978446653E-01  0.51100000000E-03 0. -1.
</event>
<event>
 8    1  0.2824193E+004  0.1043930E+01  0.7957747E-01            NaN
         13   -1    0    0    0    0  0.00000000000E+00  0.00000000000E+00  0.74505805969E-08  0.10566000000E+00  0.10566000000E+00 0.  1.
     999900   -1    0    0    0    0 -0.00000000000E+00 -0.00000000000E+00 -0.74505805969E-08  0.93827000000E+00  0.93827000000E+00 0. -1.
     999902    2    1    2    0    0  0.80851386911E-02  0.83523207446E-02  0.75319965198E-02  0.10300785849E+01  0.10299854510E+01 0.  0.
     999903    2    3    3    0    0 -0.27226012045E-01  0.27672351614E-01 -0.12245479840E+00  0.13961987847E+00  0.54694771553E-01 0.  0.
         14    1    1    2    0    0 -0.80851386911E-02 -0.83523207446E-02 -0.75319965198E-02  0.13851415128E-01  0.00000000000E+00 0. -1.
     999901    1    3    3    0    0  0.35311150736E-01 -0.19320030870E-01  0.12998679492E+00  0.89045870641E+00  0.88000000000E+00 0.  1.
        -11    1    4    4    0    0 -0.22944613195E-01  0.37900747961E-01 -0.52091654586E-01  0.68386574481E-01  0.51100000000E-03 0. -1.
         11    1    4    4    0    0 -0.42813988505E-02 -0.10228396347E-01 -0.70363143817E-01  0.71233303986E-01  0.51100000000E-03 0.  1.
</event>
<event>
 8    1  0.2824193E+004  0.1043930E+01  0.7957747E-01            NaN
         13   -1    0    0    0    0  0.00000000000E+00  0.00000000000E+00  0.74505805969E-08  0.10566000000E+00  0.10566000000E+00 0.  1.
     999900   -1    0    0    0    0 -0.00000000000E+00 -0.00000000000E+00 -0.74505805969E-08  0.93827000000E+00  0.93827000000E+00 0.  1.
     999902    2    1    2    0    0 -0.12676654224E-01 -0.54378386381E-02  0.62064758125E-02  0.10288042606E+01  0.10286930633E+01 0.  0.
     999903    2    3    3    0    0  0.95308842534E-01  0.29984336069E-01  0.83549846806E-01  0.13813170850E+00  0.46010391401E-01 0.  0.
         14    1    1    2    0    0  0.12676654224E-01  0.54378386381E-02 -0.62064758125E-02  0.15125739433E-01  0.00000000000E+00 0. -1.
     999901    1    3    3    0    0 -0.10798549676E+00 -0.35422174707E-01 -0.77343370993E-01  0.89067255207E+00  0.88000000000E+00 0. -1.
        -11    1    4    4    0    0  0.35545283415E-01 -0.10457172488E-01  0.36323580191E-01  0.51889143647E-01  0.51100000000E-03 0. -1.
         11    1    4    4    0    0  0.59763559119E-01  0.40441508557E-01  0.47226266615E-01  0.86242564852E-01  0.51100000000E-03 0.  1.
</event>
<event>
 8    1  0.2824193E+004  0.1043930E+01  0.7957747E-01            NaN
         13   -1    0    0    0    0  0.00000000000E+00  0.00000000000E+00  0.74505805969E-08  0.10566000000E+00  0.10566000000E+00 0.  1.
     999900   -1    0    0    0    0 -0.00000000000E+00 -0.00000000000E+00 -0.74505805969E-08  0.93827000000E+00  0.93827000000E+00 0. -1.
     999902    2    1    2    0    0 -0.26189291812E-02 -0.13327865601E-01  0.93339567890E-04  0.10303469406E+01  0.10302574040E+01 0.  0.
     999903    2    3    3    0    0  0.52758659191E-01 -0.79313770770E-02 -0.12179953261E+00  0.14020443979E+00  0.44449701153E-01 0.  0.
         14    1    1    2    0    0  0.26189291812E-02  0.13327865601E-01 -0.93339567890E-04  0.13583059442E-01  0.00000000000E+00 0. -1.
     999901    1    3    3    0    0 -0.55377588372E-01 -0.53964885237E-02  0.12189287217E+00  0.89014250077E+00  0.88000000000E+00 0.  1.
        -11    1    4    4    0    0  0.60857634094E-01 -0.72454813132E-02 -0.10680924018E+00  0.12314472598E+00  0.51100000000E-03 0.  1.
         11    1    4    4    0    0 -0.80989749031E-02 -0.68589576385E-03 -0.14990292421E-01  0.17059713812E-01  0.51100000000E-03 0. -1.
</event>
<event>
 8    1  0.2824193E+004  0.1043930E+01  0.7957747E-01            NaN
         13   -1    0    0    0    0  0.00000000000E+00  0.00000000000E+00  0.74505805969E-08  0.10566000000E+00  0.10566000000E+00 0.  1.
     999900   -1    0    0    0    0 -0.00000000000E+00 -0.00000000000E+00 -0.74505805969E-08  0.93827000000E+00  0.93827000000E+00 0.  1.
     999902    2    1    2    0    0  0.36668869351E-02  0.12537373365E-01 -0.39591978910E-02  0.10302805664E+01  0.10301901467E+01 0.  0.
     999903    2    3    3    0    0  0.11734453656E-01  0.13355244720E+00 -0.13676766701E-01  0.14190892967E+00  0.44465006666E-01 0.  0.
         14    1    1    2    0    0 -0.36668869351E-02 -0.12537373365E-01  0.39591978910E-02  0.13649433638E-01  0.00000000000E+00 0.  1.
     999901    1    3    3    0    0 -0.80675667206E-02 -0.12101507384E+00  0.97175688104E-02  0.88837163669E+00  0.88000000000E+00 0.  1.
        -11    1    4    4    0    0  0.21995229959E-01  0.94707877648E-01  0.55038274530E-02  0.97385447923E-01  0.51100000000E-03 0. -1.
         11    1    4    4    0    0 -0.10260776303E-01  0.38844569553E-01 -0.19180594154E-01  0.44523481751E-01  0.51100000000E-03 0.  1.
</event>
<event>
 8    1  0.2824193E+004  0.1043930E+01  0.7957747E-01            NaN
         13   -1    0    0    0    0  0.00000000000E+00  0.00000000000E+00  0.74505805969E-08  0.10566000000E+00  0.10566000000E+00 0. -1.
     999900   -1    0    0    0    0 -0.00000000000E+00 -0.00000000000E+00 -0.74505805969E-08  0.93827000000E+00  0.93827000000E+00 0. -1.
     999902    2    1    2    0    0 -0.11700122790E-01 -0.70922057246E-02  0.13777841089E-01  0.10245129673E+01  0.10243289505E+01 0.  0.
     999903    2    3    3    0    0 -0.22270027018E-01 -0.11831067841E+00 -0.42957608193E-01  0.13563717012E+00  0.45373065640E-01 0.  0.
         14    1    1    2    0    0  0.11700122790E-01  0.70922057246E-02 -0.13777841089E-01  0.19417032739E-01  0.00000000000E+00 0.  1.
     999901    1    3    3    0    0  0.10569904228E-01  0.11121847269E+00  0.56735449282E-01  0.88887579714E+00  0.88000000000E+00 0.  1.
        -11    1    4    4    0    0 -0.28080800020E-01 -0.10737656006E+00 -0.24919136664E-01  0.11375184163E+00  0.51100000000E-03 0.  1.
         11    1    4    4    0    0  0.58107730025E-02 -0.10934118352E-01 -0.18038471529E-01  0.21885328490E-01  0.51100000000E-03 0. -1.
</event>
<event>
 8    1  0.2824193E+004  0.1043930E+01  0.7957747E-01            NaN
         13   -1    0    0    0    0  0.00000000000E+00  0.00000000000E+00  0.74505805969E-08  0.10566000000E+00  0.10566000000E+00 0. -1.
     999900   -1    0    0    0    0 -0.00000000000E+00 -0.00000000000E+00 -0.74505805969E-08  0.93827000000E+00  0.93827000000E+00 0.  1.
     999902    2    1    2    0    0  0.23694119705E-02  0.23106246276E-04  0.13762370150E-01  0.10299651341E+01  0.10298704579E+01 0.  0.
     999903    2    3    3    0    0 -0.91377952068E-01 -0.70861976118E-01 -0.62234173059E-01  0.13890467728E+00  0.45277668769E-01 0.  0.
         14    1    1    2    0    0 -0.23694119705E-02 -0.23106246276E-04 -0.13762370150E-01  0.13964865883E-01  0.00000000000E+00 0.  1.
     999901    1    3    3    0    0  0.93747364039E-01  0.70885082365E-01  0.75996543209E-01  0.89106045684E+00  0.88000000000E+00 0. -1.
        -11    1    4    4    0    0 -0.42824007308E-01 -0.56471520438E-01 -0.50195908927E-01  0.86849401936E-01  0.51100000000E-03 0.  1.
         11    1    4    4    0    0 -0.48553944760E-01 -0.14390455680E-01 -0.12038264131E-01  0.52055275340E-01  0.51100000000E-03 0. -1.
</event>
<event>
 8    1  0.2824193E+004  0.1043930E+01  0.7957747E-01            NaN
         13   -1    0    0    0    0  0.00000000000E+00  0.00000000000E+00  0.74505805969E-08  0.10566000000E+00  0.10566000000E+00 0. -1.
     999900   -1    0    0    0    0 -0.00000000000E+00 -0.00000000000E+00 -0.74505805969E-08  0.93827000000E+00  0.93827000000E+00 0. -1.
     999902    2    1    2    0    0 -0.21815309308E-02 -0.53784284235E-02 -0.12187040603E-01  0.10304314620E+01  0.10303430435E+01 0.  0.
     999903    2    3    3    0    0  0.91989264239E-01  0.94645472585E-01 -0.13489367214E-01  0.13977181012E+00  0.43981878763E-01 0.  0.
         14    1    1    2    0    0  0.21815309308E-02  0.53784284235E-02  0.12187040603E-01  0.13498538001E-01  0.00000000000E+00 0. -1.
     999901    1    3    3    0    0 -0.94170795170E-01 -0.10002390101E+00  0.13023266111E-02  0.89065965188E+00  0.88000000000E+00 0.  1.
        -11    1    4    4    0    0  0.37676515464E-01  0.30745141415E-01  0.15492777875E-01  0.51039894450E-01  0.51100000000E-03 0. -1.
         11    1    4    4    0    0  0.54312748775E-01  0.63900331170E-01 -0.28982145089E-01  0.88731915667E-01  0.51100000000E-03 0.  1.
</event>
<event>
 8    1  0.2824193E+004  0.1043930E+01  0.7957747E-01            NaN
         13   -1    0    0    0    0  0.00000000000E+00  0.00000000000E+00  0.74505805969E-08  0.10566000000E+00  0.10566000000E+00 0. -1.
     999900   -1    0    0    0    0 -0.00000000000E+00 -0.00000000000E+00 -0.74505805969E-08  0.93827000000E+00  0.93827000000E+00 0. -1.
     999902    2    1    2    0    0 -0.69269224651E-02 -0.91906029612E-02 -0.72442918954E-02  0.10303311323E+01  0.10302413858E+01 0.  0.
     999903    2    3    3    0    0  0.12205635981E+00 -0.62197073876E-02 -0.50805035161E-01  0.13985763372E+00  0.45194760562E-01 0.  0.
         14    1    1    2    0    0  0.69269224651E-02  0.91906029612E-02  0.72442918954E-02  0.13598867699E-01  0.00000000000E+00 0. -1.
     999901    1    3    3    0    0 -0.12898328227E+00 -0.29708955736E-02  0.43560743266E-01  0.89047349858E+00  0.88000000000E+00 0.  1.
        -11    1    4    4    0    0 -0.87317871406E-03 -0.68985685886E-02 -0.53585141838E-02  0.87936047726E-02  0.51100000000E-03 0.  1.
         11    1    4    4    0    0  0.12292953852E+00  0.67886120104E-03 -0.45446520977E-01  0.13106402894E+00  0.51100000000E-03 0. -1.
</event>
<event>
 8    1  0.2824193E+004  0.1043930E+01  0.7957747E-01            NaN
         13   -1    0    0    0    0  0.00000000000E+00  0.00000000000E+00  0.74505805969E-08  0.10566000000E+00  0.10566000000E+00 0. -1.
     999900   -1    0    0    0    0 -0.00000000000E+00 -0.00000000000E+00 -0.74505805969E-08  0.93827000000E+00  0.93827000000E+00 0. -1.
     999902    2    1    2    0    0 -0.80446305925E-02 -0.34603184272E-02 -0.10576900574E-01  0.10301982590E+01  0.10301067382E+01 0.  0.
     999903    2    3    3    0    0  0.37573559181E-01 -0.11169427326E+00  0.59256583837E-01  0.13965217723E+00  0.45869432625E-01 0.  0.
         14    1    1    2    0    0  0.80446305925E-02  0.34603184272E-02  0.10576900574E-01  0.13731740995E-01  0.00000000000E+00 0. -1.
     999901    1    3    3    0    0 -0.45618189774E-01  0.10823395483E+00 -0.69833484411E-01  0.89054608177E+00  0.88000000000E+00 0. -1.
        -11    1    4    4    0    0 -0.37510752418E-02 -0.58531244729E-01  0.21624187120E-01  0.62512748816E-01  0.51100000000E-03 0. -1.
         11    1    4    4    0    0  0.41324634423E-01 -0.53163028530E-01  0.37632396717E-01  0.77139428416E-01  0.51100000000E-03 0.  1.
</event>
<event>
 8    1  0.2824193E+004  0.1043930E+01  0.7957747E-01            NaN
         13   -1    0    0    0    0  0.00000000000E+00  0.00000000000E+00  0.74505805969E-08  0.10566000000E+00  0.10566000000E+00 0. -1.
     999900   -1    0    0    0    0 -0.00000000000E+00 -0.00000000000E+00 -0.74505805969E-08  0.93827000000E+00  0.93827000000E+00 0. -1.
     999902    2    1    2    0    0  0.76536325380E-02  0.10726365227E-01 -0.19158674590E-03  0.10307516197E+01  0.10306673720E+01 0.  0.
     999903    2    3    3    0    0  0.57169861495E-01  0.78871535639E-01 -0.92810840439E-01  0.14189058031E+00  0.45055215904E-01 0.  0.
         14    1    1    2    0    0 -0.76536325380E-02 -0.10726365227E-01  0.19158674590E-03  0.13178380306E-01  0.00000000000E+00 0. -1.
     999901    1    3    3    0    0 -0.49516228957E-01 -0.68145170412E-01  0.92619253693E-01  0.88886103938E+00  0.88000000000E+00 0.  1.
        -11    1    4    4    0    0  0.29134133991E-01  0.76317927871E-02 -0.19440713142E-01  0.35850306456E-01  0.51100000000E-03 0.  1.
         11    1    4    4    0    0  0.28035727505E-01  0.71239742852E-01 -0.73370127297E-01  0.10604027385E+00  0.51100000000E-03 0. -1.
</event>
<event>
 8    1  0.2824193E+004  0.1043930E+01  0.7957747E-01            NaN
         13   -1    0    0    0    0  0.00000000000E+00  0.00000000000E+00  0.74505805969E-08  0.10566000000E+00  0.10566000000E+00 0.  1.
     999900   -1    0    0    0    0 -0.00000000000E+00 -0.00000000000E+00 -0.74505805969E-08  0.93827000000E+00  0.93827000000E+00 0.  1.
     999902    2    1    2    0    0  0.10570347393E-02  0.10818167797E-01  0.10521055681E-01  0.10288024526E+01  0.10286912286E+01 0.  0.
     999903    2    3    3    0    0  0.78046092958E-01  0.27136956416E-01 -0.10131353220E+00  0.13824049914E+00  0.44926570837E-01 0.  0.
         14    1    1    2    0    0 -0.10570347393E-02 -0.10818167797E-01 -0.10521055681E-01  0.15127547374E-01  0.00000000000E+00 0. -1.
     999901    1    3    3    0    0 -0.76989058218E-01 -0.16318788620E-01  0.11183458788E+00  0.89056195348E+00  0.88000000000E+00 0. -1.
        -11    1    4    4    0    0  0.68882919332E-01  0.31556750213E-01 -0.62826264658E-01  0.98428073798E-01  0.51100000000E-03 0. -1.
         11    1    4    4    0    0  0.91631736256E-02 -0.44197937971E-02 -0.38487267539E-01  0.39812425344E-01  0.51100000000E-03 0.  1.
</event>
<event>
 8    1  0.2824193E+004  0.1043930E+01  0.7957747E-01            NaN
         13   -1    0    0    0    0  0.00000000000E+00  0.00000000000E+00  0.74505805969E-08  0.10566000000E+00  0.10566000000E+00 0.  1.
     999900   -1    0    0    0    0 -0.00000000000E+00 -0.00000000000E+00 -0.74505805969E-08  0.93827000000E+00  0.93827000000E+00 0.  1.
     999902    2    1    2    0    0 -0.75719176629E-02  0.47767395426E-02  0.87941904162E-02  0.10313805393E+01  0.10313041879E+01 0.  0.
     999903    2    3    3    0    0 -0.32665906661E-01 -0.37820882592E-01  0.12584628423E+00  0.14225430626E+00  0.43606418968E-01 0.  0.
         14    1    1    2    0    0  0.75719176629E-02 -0.47767395426E-02 -0.87941904162E-02  0.12549460659E-01  0.00000000000E+00 0. -1.
     999901    1    3    3    0    0  0.25093988998E-01  0.42597622134E-01 -0.11705209382E+00  0.88912623309E+00  0.88000000000E+00 0.  1.
        -11    1    4    4    0    0  0.26189533191E-02 -0.64126426466E-02  0.64267658412E-01  0.64641889986E-01  0.51100000000E-03 0.  1.
         11    1    4    4    0    0 -0.35284859980E-01 -0.31408239945E-01  0.61578625819E-01  0.77612416269E-01  0.51100000000E-03 0. -1.
</event>
<event>
 8    1  0.2824193E+004  0.1043930E+01  0.7957747E-01            NaN
         13   -1    0    0    0    0  0.00000000000E+00  0.00000000000E+00  0.74505805969E-08  0.10566000000E+00  0.10566000000E+00 0. -1.
     999900   -1    0    0    0    0 -0.00000000000E+00 -0.00000000000E+00 -0.74505805969E-08  0.93827000000E+00  0.93827000000E+00 0. -1.
     999902    2    1    2    0    0 -0.13037440189E-01 -0.99597499723E-03  0.12589081640E-02  0.10307941078E+01  0.10307104060E+01 0.  0.
     999903    2    3    3    0    0  0.12294122617E-01  0.90349259648E-01 -0.95507958517E-01  0.14042931381E+00  0.47796316473E-01 0.  0.
         14    1    1    2    0    0  0.13037440189E-01  0.99597499723E-03 -0.12589081640E-02  0.13135892153E-01  0.00000000000E+00 0. -1.
     999901    1    3    3    0    0 -0.25331562806E-01 -0.91345234645E-01  0.96766866681E-01  0.89036479403E+00  0.88000000000E+00 0.  1.
        -11    1    4    4    0    0  0.18120245858E-01  0.91881935436E-01 -0.77914396956E-01  0.12182589110E+00  0.51100000000E-03 0.  1.
         11    1    4    4    0    0 -0.58261232412E-02 -0.15326757887E-02 -0.17593561561E-01  0.18603422709E-01  0.51100000000E-03 0. -1.
</event>
<event>
 8    1  0.2824193E+004  0.1043930E+01  0.7957747E-01            NaN
         13   -1    0    0    0    0  0.00000000000E+00  0.00000000000E+00  0.74505805969E-08  0.10566000000E+00  0.10566000000E+00 0. -1.
     999900   -1    0    0    0    0 -0.00000000000E+00 -0.00000000000E+00 -0.74505805969E-08  0.93827000000E+00  0.93827000000E+00 0. -1.
     999902    2    1    2    0    0 -0.12412692621E-02  0.80601594547E-02  0.10369468490E-01  0.10307378509E+01  0.10306534260E+01 0.  0.
     999903    2    3    3    0    0  0.10039126988E+00  0.87932670110E-01  0.11243417447E-01  0.14129445491E+00  0.45023849356E-01 0.  0.
         14    1    1    2    0    0  0.12412692621E-02 -0.80601594547E-02 -0.10369468490E-01  0.13192149051E-01  0.00000000000E+00 0.  1.
     999901    1    3    3    0    0 -0.10163253915E+00 -0.79872510655E-01 -0.87394895747E-03  0.88944339604E+00  0.88000000000E+00 0.  1.
        -11    1    4    4    0    0  0.44133585330E-01  0.18398830071E-01  0.19133060630E-01  0.51503644843E-01  0.51100000000E-03 0.  1.
         11    1    4    4    0    0  0.56257684554E-01  0.69533840038E-01 -0.78896431828E-02  0.89790810067E-01  0.51100000000E-03 0. -1.
</event>
<event>
 8    1  0.2824193E+004  0.1043930E+01  0.7957747E-01            NaN
         13   -1    0    0    0    0  0.00000000000E+00  0.00000000000E+00  0.74505805969E-08  0.10566000000E+00  0.10566000000E+00 0. -1.
     999900   -1    0    0    0    0 -0.00000000000E+00 -0.00000000000E+00 -0.74505805969E-08  0.93827000000E+00  0.93827000000E+00 0.  1.
     999902    2    1    2    0    0  0.66294117046E-02  0.13295287061E-01  0.18659872697E-02  0.10289568351E+01  0.10288478862E+01 0.  0.
     999903    2    3    3    0    0  0.11260691592E+00  0.57438708119E-01  0.41866124650E-01  0.14059886449E+00  0.45119237560E-01 0.  0.
         14    1    1    2    0    0 -0.66294117046E-02 -0.13295287061E-01 -0.18659872697E-02  0.14973164865E-01  0.00000000000E+00 0. -1.
     999901    1    3    3    0    0 -0.10597750422E+00 -0.44143421058E-01 -0.40000137381E-01  0.88835797065E+00  0.88000000000E+00 0. -1.
        -11    1    4    4    0    0  0.68762245227E-01  0.19428663001E-01  0.41369430447E-01  0.82567609940E-01  0.51100000000E-03 0. -1.
         11    1    4    4    0    0  0.43844670694E-01  0.38010045118E-01  0.49669420337E-03  0.58031254547E-01  0.51100000000E-03 0.  1.
</event>
<event>
 8    1  0.2824193E+004  0.1043930E+01  0.7957747E-01            NaN
         13   -1    0    0    0    0  0.00000000000E+00  0.00000000000E+00  0.74505805969E-08  0.10566000000E+00  0.10566000000E+00 0. -1.
     999900   -1    0    0    0    0 -0.00000000000E+00 -0.00000000000E+00 -0.74505805969E-08  0.93827000000E+00  0.93827000000E+00 0.  1.
     999902    2    1    2    0    0 -0.12216185506E-01  0.36623250034E-02  0.32193903218E-02  0.10307765865E+01  0.10306926598E+01 0.  0.
     999903    2    3    3    0    0  0.55093871013E-01 -0.88964088214E-01 -0.81199691400E-01  0.13935251374E+00  0.43310386592E-01 0.  0.
         14    1    1    2    0    0  0.12216185506E-01 -0.36623250034E-02 -0.32193903218E-02  0.13153413504E-01  0.00000000000E+00 0.  1.
     999901    1    3    3    0    0 -0.67310056519E-01  0.92626413217E-01  0.84419081722E-01  0.89142407276E+00  0.88000000000E+00 0. -1.
        -11    1    4    4    0    0  0.19389861639E-01 -0.94652127167E-02 -0.21456315958E-02  0.21689210269E-01  0.51100000000E-03 0.  1.
         11    1    4    4    0    0  0.35704009373E-01 -0.79498875497E-01 -0.79054059804E-01  0.11766330347E+00  0.51100000000E-03 0. -1.
</event>
<event>
 8    1  0.2824193E+004  0.1043930E+01  0.7957747E-01            NaN
         13   -1    0    0    0    0  0.00000000000E+00  0.00000000000E+00  0.74505805969E-08  0.10566000000E+00  0.10566000000E+00 0. -1.
     999900   -1    0    0    0    0 -0.00000000000E+00 -0.00000000000E+00 -0.74505805969E-08  0.93827000000E+00  0.93827000000E+00 0. -1.
     999902    2    1    2    0    0 -0.11598469242E-01  0.10786375015E-01 -0.21125503466E-02  0.10279508497E+01  0.10278266470E+01 0.  0.
     999903    2    3    3    0    0  0.20820745644E-02  0.94063504332E-01  0.91873513826E-01  0.13893137985E+00  0.44820842061E-01 0.  0.
         14    1    1    2    0    0  0.11598469242E-01 -0.10786375015E-01  0.21125503466E-02  0.15979150281E-01  0.00000000000E+00 0. -1.
     999901    1    3    3    0    0 -0.13680543806E-01 -0.83277129317E-01 -0.93986064172E-01  0.88901946987E+00  0.88000000000E+00 0.  1.
        -11    1    4    4    0    0 -0.11442801120E-01  0.72422828224E-01  0.85478120411E-01  0.11261782246E+00  0.51100000000E-03 0. -1.
         11    1    4    4    0    0  0.13524875685E-01  0.21640676108E-01  0.63953934146E-02  0.26313557392E-01  0.51100000000E-03 0.  1.
</event>
<event>
 8    1  0.2824193E+004  0.1043930E+01  0.7957747E-01            NaN
         13   -1    0    0    0    0  0.00000000000E+00  0.00000000000E+00  0.74505805969E-08  0.10566000000E+00  0.10566000000E+00 0. -1.
     999900   -1    0    0    0    0 -0.00000000000E+00 -0.00000000000E+00 -0.74505805969E-08  0.93827000000E+00  0.93827000000E+00 0.  1.
     999902    2    1    2    0    0  0.10301477789E-01  0.37636387681E-02 -0.76286462408E-02  0.10305702970E+01  0.10304836997E+01 0.  0.
     999903    2    3    3    0    0  0.88490357654E-01 -0.93208417180E-01 -0.40778332936E-01  0.14117950419E+00  0.41838111032E-01 0.  0.
         14    1    1    2    0    0 -0.10301477789E-01 -0.37636387681E-02  0.76286462408E-02  0.13359703024E-01  0.00000000000E+00 0. -1.
     999901    1    3    3    0    0 -0.78188879864E-01  0.96972055948E-01  0.33149686695E-01  0.88939079279E+00  0.88000000000E+00 0.  1.
        -11    1    4    4    0    0  0.83862318541E-01 -0.68566463586E-01 -0.41724224925E-01  0.11608367873E+00  0.51100000000E-03 0. -1.
         11    1    4    4    0    0  0.46280391123E-02 -0.24641953594E-01  0.94589198977E-03  0.25095825462E-01  0.51100000000E-03 0.  1.
</event>
<event>
 8    1  0.2824193E+004  0.1043930E+01  0.7957747E-01            NaN
         13   -1    0    0    0    0  0.00000000000E+00  0.00000000000E+00  0.74505805969E-08  0.10566000000E+00  0.10566000000E+00 0. -1.
     999900   -1    0    0    0    0 -0.00000000000E+00 -0.00000000000E+00 -0.74505805969E-08  0.93827000000E+00  0.93827000000E+00 0.  1.
     999902    2    1    2    0    0  0.56741327421E-02 -0.10164198482E-01  0.82905309234E-02  0.10296387574E+01  0.10295395724E+01 0.  0.
     999903    2    3    3    0    0 -0.79089170459E-01  0.98839909607E-01 -0.31489482999E-01  0.13798346373E+00  0.44982486694E-01 0.  0.
         14    1    1    2    0    0 -0.56741327421E-02  0.10164198482E-01 -0.82905309234E-02  0.14291242638E-01  0.00000000000E+00 0.  1.
     999901    1    3    3    0    0  0.84763303201E-01 -0.10900410809E+00  0.39780013922E-01  0.89165529363E+00  0.88000000000E+00 0. -1.
        -11    1    4    4    0    0 -0.14747647549E-01  0.53537944084E-01 -0.15861025985E-01  0.57754981009E-01  0.51100000000E-03 0.  1.
         11    1    4    4    0    0 -0.64341522910E-01  0.45301965522E-01 -0.15628457013E-01  0.80228482724E-01  0.51100000000E-03 0. -1.
</event>
<event>
 8    1  0.2824193E+004  0.1043930E+01  0.7957747E-01            NaN
         13   -1    0    0    0    0  0.00000000000E+00  0.00000000000E+00  0.74505805969E-08  0.10566000000E+00  0.10566000000E+00 0. -1.
     999900   -1    0    0    0    0 -0.00000000000E+00 -0.00000000000E+00 -0.74505805969E-08  0.93827000000E+00  0.93827000000E+00 0.  1.
     999902    2    1    2    0    0  0.35570625856E-02 -0.52592949437E-02 -0.12029932554E-01  0.10303273475E+01  0.10302375507E+01 0.  0.
     999903    2    3    3    0    0 -0.54070322244E-01 -0.10568244959E+00 -0.62446052433E-01  0.14131243728E+00  0.44467016601E-01 0.  0.
         14    1    1    2    0    0 -0.35570625856E-02  0.52592949437E-02  0.12029932554E-01  0.13602652491E-01  0.00000000000E+00 0. -1.
     999901    1    3    3    0    0  0.57627384830E-01  0.10042315465E+00  0.50416119879E-01  0.88901491023E+00  0.88000000000E+00 0.  1.
        -11    1    4    4    0    0 -0.52105632190E-01 -0.85271576974E-01 -0.32634692918E-01  0.10512622436E+00  0.51100000000E-03 0.  1.
         11    1    4    4    0    0 -0.19646900540E-02 -0.20410872616E-01 -0.29811359515E-01  0.36186212915E-01  0.51100000000E-03 0. -1.
</event>
<event>
 8    1  0.2824193E+004  0.1043930E+01  0.7957747E-01            NaN
         13   -1    0    0    0    0  0.00000000000E+00  0.00000000000E+00  0.74505805969E-08  0.10566000000E+00  0.10566000000E+00 0. -1.
     999900   -1    0    0    0    0 -0.00000000000E+00 -0.00000000000E+00 -0.74505805969E-08  0.93827000000E+00  0.93827000000E+00 0.  1.
     999902    2    1    2    0    0 -0.45524526035E-02  0.13199271651E-01 -0.97950334852E-04  0.10299673645E+01  0.10298727187E+01 0.  0.
     999903    2    3    3    0    0 -0.37860633139E-01  0.13734833189E-01  0.12659995773E+00  0.14026961712E+00  0.45010476622E-01 0.  0.
         14    1    1    2    0    0  0.45524526035E-02 -0.13199271651E-01  0.97950334852E-04  0.13962635536E-01  0.00000000000E+00 0.  1.
     999901    1    3    3    0    0  0.33308180536E-01 -0.53556153731E-03 -0.12669790807E+00  0.88969774734E+00  0.88000000000E+00 0.  1.
        -11    1    4    4    0    0 -0.26553546782E-01  0.11033595585E-01  0.25300950279E-01  0.38304442096E-01  0.51100000000E-03 0. -1.
         11    1    4    4    0    0 -0.11307086357E-01  0.27012376039E-02  0.10129900745E+00  0.10196517503E+00  0.51100000000E-03 0.  1.
</event>
<event>
 8    1  0.2824193E+004  0.1043930E+01  0.7957747E-01            NaN
         13   -1    0    0    0    0  0.00000000000E+00  0.00000000000E+00  0.74505805969E-08  0.10566000000E+00  0.10566000000E+00 0.  1.
     999900   -1    0    0    0    0 -0.00000000000E+00 -0.00000000000E+00 -0.74505805969E-08  0.93827000000E+00  0.93827000000E+00 0. -1.
     999902    2    1    2    0    0  0.10973112475E-01 -0.35766999299E-02  0.64530392117E-02  0.10307071525E+01  0.10306223317E+01 0.  0.
     999903    2    3    3    0    0  0.11063053486E+00 -0.49949529659E-01 -0.57267895062E-01  0.14158264009E+00  0.45077282700E-01 0.  0.
         14    1    1    2    0    0 -0.10973112475E-01  0.35766999299E-02 -0.64530392117E-02  0.13222847456E-01  0.00000000000E+00 0. -1.
     999901    1    3    3    0    0 -0.99657422381E-01  0.46372829729E-01  0.63720934274E-01  0.88912451245E+00  0.88000000000E+00 0.  1.
        -11    1    4    4    0    0  0.12361958848E-02 -0.14024228971E-01 -0.35679401033E-02  0.14532669957E-01  0.51100000000E-03 0.  1.
         11    1    4    4    0    0  0.10939433897E+00 -0.35925300689E-01 -0.53699954959E-01  0.12704997014E+00  0.51100000000E-03 0. -1.
</event>
<event>
 8    1  0.2824193E+004  0.1043930E+01  0.7957747E-01            NaN
         13   -1    0    0    0    0  0.00000000000E+00  0.00000000000E+00  0.74505805969E-08  0.10566000000E+00  0.10566000000E+00 0.  1.
     999900   -1    0    0    0    0 -0.00000000000E+00 -0.00000000000E+00 -0.74505805969E-08  0.93827000000E+00  0.93827000000E+00 0.  1.
     999902    2    1    2    0    0  0.40322372833E-02  0.16761674352E-01 -0.91528076137E-03  0.10266658637E+01  0.10265206989E+01 0.  0.
     999903    2    3    3    0    0 -0.60886611457E-01  0.63307728261E-01 -0.92096866103E-01  0.13835562869E+00  0.54271533344E-01 0.  0.
         14    1    1    2    0    0 -0.40322372833E-02 -0.16761674352E-01  0.91528076137E-03  0.17264136337E-01  0.00000000000E+00 0. -1.
     999901    1    3    3    0    0  0.64918848740E-01 -0.46546053909E-01  0.91181585342E-01  0.88831023498E+00  0.88000000000E+00 0. -1.
        -11    1    4    4    0    0 -0.45231876729E-01  0.71914919315E-01 -0.71115606627E-01  0.11079426393E+00  0.51100000000E-03 0. -1.
         11    1    4    4    0    0 -0.15654734728E-01 -0.86071910541E-02 -0.20981259476E-01  0.27561364760E-01  0.51100000000E-03 0.  1.
</event>
<event>
 7    1  0.2824193E+004  0.1043930E+01  0.7957747E-01            NaN
         13   -1    0    0    0    0  0.00000000000E+00  0.00000000000E+00  0.74505805969E-08  0.10566000000E+00  0.10566000000E+00 0.  1.
     999900   -1    0    0    0    0 -0.00000000000E+00 -0.00000000000E+00 -0.74505805969E-08  0.93827000000E+00  0.93827000000E+00 0.  1.
     999903    2    1    2    0    0  0.55959809943E-01  0.11737108690E-01  0.35443029020E-01  0.81021867188E-01  0.45156113730E-01 0.  0.
         14    1    1    2    0    0  0.69628547787E-01 -0.19111057431E-01  0.94988441421E-02  0.72825786801E-01  0.00000000000E+00 0.  1.
     999901    1    1    2    0    0 -0.12558835773E+00  0.73739487411E-02 -0.44941873162E-01  0.89008234601E+00  0.88000000000E+00 0. -1.
        -11    1    3    3    0    0  0.59361402101E-01  0.16278886818E-03  0.22945102324E-01  0.63643863815E-01  0.51100000000E-03 0. -1.
         11    1    3    3    0    0 -0.34015921576E-02  0.11574319822E-01  0.12497926696E-01  0.17378003373E-01  0.51100000000E-03 0.  1.
</event>
<event>
 8    1  0.2824193E+004  0.1043930E+01  0.7957747E-01            NaN
         13   -1    0    0    0    0  0.00000000000E+00  0.00000000000E+00  0.74505805969E-08  0.10566000000E+00  0.10566000000E+00 0.  1.
     999900   -1    0    0    0    0 -0.00000000000E+00 -0.00000000000E+00 -0.74505805969E-08  0.93827000000E+00  0.93827000000E+00 0. -1.
     999902    2    1    2    0    0 -0.90884931416E-02  0.14482579152E-03 -0.10212851111E-01  0.10302579844E+01  0.10301672633E+01 0.  0.
     999903    2    3    3    0    0  0.10932462602E+00  0.48811068794E-01  0.53954910703E-01  0.13868209217E+00  0.44577976712E-01 0.  0.
         14    1    1    2    0    0  0.90884931416E-02 -0.14482579152E-03  0.10212851111E-01  0.13672015576E-01  0.00000000000E+00 0.  1.
     999901    1    3    3    0    0 -0.11841311916E+00 -0.48666243003E-01 -0.64167761814E-01  0.89157589226E+00  0.88000000000E+00 0. -1.
        -11    1    4    4    0    0  0.10072269925E+00  0.26965689981E-01  0.44282093974E-01  0.11328448944E+00  0.51100000000E-03 0. -1.
         11    1    4    4    0    0  0.86019267671E-02  0.21845378814E-01  0.96728167296E-02  0.25397602723E-01  0.51100000000E-03 0.  1.
</event>
<event>
 8    1  0.2824193E+004  0.1043930E+01  0.7957747E-01            NaN
         13   -1    0    0    0    0  0.00000000000E+00  0.00000000000E+00  0.74505805969E-08  0.10566000000E+00  0.10566000000E+00 0. -1.
     999900   -1    0    0    0    0 -0.00000000000E+00 -0.00000000000E+00 -0.74505805969E-08  0.93827000000E+00  0.93827000000E+00 0. -1.
     999902    2    1    2    0    0 -0.57937538047E-02  0.13960083931E-01  0.45544031283E-04  0.10288153184E+01  0.10287042849E+01 0.  0.
     999903    2    3    3    0    0 -0.11354056709E+00 -0.41554875393E-01 -0.54702541327E-01  0.13882170079E+00  0.40753264154E-01 0.  0.
         14    1    1    2    0    0  0.57937538047E-02 -0.13960083931E-01 -0.45544031283E-04  0.15114681630E-01  0.00000000000E+00 0. -1.
     999901    1    3    3    0    0  0.10774681328E+00  0.55514959324E-01  0.54748085358E-01  0.88999361758E+00  0.88000000000E+00 0.  1.
        -11    1    4    4    0    0 -0.67010404194E-01 -0.10289209821E-01 -0.46385158660E-01  0.82146857359E-01  0.51100000000E-03 0.  1.
         11    1    4    4    0    0 -0.46530162894E-01 -0.31265665572E-01 -0.83173826664E-02  0.56674843432E-01  0.51100000000E-03 0. -1.
</event>
<event>
 8    1  0.2824193E+004  0.1043930E+01  0.7957747E-01            NaN
         13   -1    0    0    0    0  0.00000000000E+00  0.00000000000E+00  0.74505805969E-08  0.10566000000E+00  0.10566000000E+00 0.  1.
     999900   -1    0    0    0    0 -0.00000000000E+00 -0.00000000000E+00 -0.74505805969E-08  0.93827000000E+00  0.93827000000E+00 0. -1.
     999902    2    1    2    0    0 -0.60153529185E-02  0.92354668228E-02 -0.17402565694E-01  0.10233307862E+01  0.10231234384E+01 0.  0.
     999903    2    3    3    0    0 -0.50891565100E-01  0.10965957902E+00 -0.43334001417E-01  0.13610403042E+00  0.45069909578E-01 0.  0.
         14    1    1    2    0    0  0.60153529185E-02 -0.92354668228E-02  0.17402565694E-01  0.20599213842E-01  0.00000000000E+00 0.  1.
     999901    1    3    3    0    0  0.44876212181E-01 -0.10042411220E+00  0.25931435724E-01  0.88722675573E+00  0.88000000000E+00 0.  1.
        -11    1    4    4    0    0 -0.28926523738E-01  0.71554664291E-01 -0.49495814198E-01  0.91689206025E-01  0.51100000000E-03 0.  1.
         11    1    4    4    0    0 -0.21965041361E-01  0.38104914732E-01  0.61618127808E-02  0.44414824400E-01  0.51100000000E-03 0. -1.
</event>
<event>
 8    1  0.2824193E+004  0.1043930E+01  0.7957747E-01            NaN
         13   -1    0    0    0    0  0.00000000000E+00  0.00000000000E+00  0.74505805969E-08  0.10566000000E+00  0.10566000000E+00 0.  1.
     999900   -1    0    0    0    0 -0.00000000000E+00 -0.00000000000E+00 -0.74505805969E-08  0.93827000000E+00  0.93827000000E+00 0. -1.
     999902    2    1    2    0    0  0.57070925973E-02 -0.82116718276E-02 -0.94395960141E-02  0.10301783298E+01  0.10300865414E+01 0.  0.
     999903    2    3    3    0    0  0.27496876640E-01 -0.43534321429E-01 -0.12359238650E+00  0.14183529706E+00  0.46806603410E-01 0.  0.
         14    1    1    2    0    0 -0.57070925973E-02  0.82116718276E-02  0.94395960141E-02  0.13751670190E-01  0.00000000000E+00 0. -1.
     999901    1    3    3    0    0 -0.21789784042E-01  0.35322649602E-01  0.11415279049E+00  0.88834303275E+00  0.88000000000E+00 0.  1.
        -11    1    4    4    0    0  0.55141324805E-02 -0.45104684483E-01 -0.65674012520E-01  0.79863478893E-01  0.51100000000E-03 0. -1.
         11    1    4    4    0    0  0.21982744159E-01  0.15703630541E-02 -0.57918373982E-01  0.61971818164E-01  0.51100000000E-03 0.  1.
</event>
<event>
 8    1  0.2824193E+004  0.1043930E+01  0.7957747E-01            NaN
         13   -1    0    0    0    0  0.00000000000E+00  0.00000000000E+00  0.74505805969E-08  0.10566000000E+00  0.10566000000E+00 0. -1.
     999900   -1    0    0    0    0 -0.00000000000E+00 -0.00000000000E+00 -0.74505805969E-08  0.93827000000E+00  0.93827000000E+00 0. -1.
     999902    2    1    2    0    0  0.65197836873E-02  0.29590420667E-02  0.97483407390E-02  0.10318348085E+01  0.10317639160E+01 0.  0.
     999903    2    3    3    0    0 -0.34745551906E-01  0.70321764570E-02 -0.12801384635E+00  0.14015222010E+00  0.44703412147E-01 0.  0.
         14    1    1    2    0    0 -0.65197836873E-02 -0.29590420667E-02 -0.97483407390E-02  0.12095191460E-01  0.00000000000E+00 0.  1.
     999901    1    3    3    0    0  0.41265335593E-01 -0.40731343903E-02  0.13776218709E+00  0.89168258845E+00  0.88000000000E+00 0.  1.
        -11    1    4    4    0    0 -0.10803291001E-01  0.98634184395E-02 -0.10750203292E+00  0.10849399210E+00  0.51100000000E-03 0.  1.
         11    1    4    4    0    0 -0.23942260905E-01 -0.28312419826E-02 -0.20511813431E-01  0.31658227992E-01  0.51100000000E-03 0. -1.
</event>
<event>
 8    1  0.2824193E+004  0.1043930E+01  0.7957747E-01            NaN
         13   -1    0    0    0    0  0.00000000000E+00  0.00000000000E+00  0.74505805969E-08  0.10566000000E+00  0.10566000000E+00 0. -1.
     999900   -1    0    0    0    0 -0.00000000000E+00 -0.00000000000E+00 -0.74505805969E-08  0.93827000000E+00  0.93827000000E+00 0.  1.
     999902    2    1    2    0    0 -0.12904218532E-01 -0.28431741813E-02  0.41602931023E-02  0.10300768222E+01  0.10299836645E+01 0.  0.
     999903    2    3    3    0    0 -0.64417032751E-01 -0.90494260337E-01  0.75035592036E-01  0.14139263147E+00  0.44975225383E-01 0.  0.
         14    1    1    2    0    0  0.12904218532E-01  0.28431741813E-02 -0.41602931023E-02  0.13853177760E-01  0.00000000000E+00 0.  1.
     999901    1    3    3    0    0  0.51512814219E-01  0.87651086156E-01 -0.70875298933E-01  0.88868419077E+00  0.88000000000E+00 0.  1.
        -11    1    4    4    0    0 -0.44951935936E-01 -0.50828801845E-01  0.69034064871E-01  0.96799828900E-01  0.51100000000E-03 0. -1.
         11    1    4    4    0    0 -0.19465096814E-01 -0.39665458492E-01  0.60015271651E-02  0.44592802566E-01  0.51100000000E-03 0.  1.
</event>
<event>
 8    1  0.2824193E+004  0.1043930E+01  0.7957747E-01            NaN
         13   -1    0    0    0    0  0.00000000000E+00  0.00000000000E+00  0.74505805969E-08  0.10566000000E+00  0.10566000000E+00 0. -1.
     999900   -1    0    0    0    0 -0.00000000000E+00 -0.00000000000E+00 -0.74505805969E-08  0.93827000000E+00  0.93827000000E+00 0.  1.
     999902    2    1    2    0    0  0.12700702203E-01  0.50721226428E-02  0.79079730431E-03  0.10302311086E+01  0.10301400281E+01 0.  0.
     999903    2    3    3    0    0  0.90419652131E-01  0.41804173503E-01 -0.89877147536E-01  0.14140595430E+00  0.44659151901E-01 0.  0.
         14    1    1    2    0    0 -0.12700702203E-01 -0.50721226428E-02 -0.79079730431E-03  0.13698891376E-01  0.00000000000E+00 0.  1.
     999901    1    3    3    0    0 -0.77718949929E-01 -0.36732050860E-01  0.90667944840E-01  0.88882515432E+00  0.88000000000E+00 0. -1.
        -11    1    4    4    0    0  0.70812138631E-01  0.99968520298E-02 -0.54121561928E-01  0.89686680251E-01  0.51100000000E-03 0. -1.
         11    1    4    4    0    0  0.19607513501E-01  0.31807321473E-01 -0.35755585607E-01  0.51719274048E-01  0.51100000000E-03 0.  1.
</event>
<event>
 8    1  0.2824193E+004  0.1043930E+01  0.7957747E-01            NaN
         13   -1    0    0    0    0  0.00000000000E+00  0.00000000000E+00  0.74505805969E-08  0.10566000000E+00  0.10566000000E+00 0. -1.
     999900   -1    0    0    0    0 -0.00000000000E+00 -0.00000000000E+00 -0.74505805969E-08  0.93827000000E+00  0.93827000000E+00 0. -1.
     999902    2    1    2    0    0  0.96786216796E-02  0.12536383150E-01  0.10678455621E-01  0.10248285332E+01  0.10246505045E+01 0.  0.
     999903    2    3    3    0    0  0.74671271915E-01  0.96797915861E-01 -0.42010571728E-01  0.13685320465E+00  0.44925228122E-01 0.  0.
         14    1    1    2    0    0 -0.96786216796E-02 -0.12536383150E-01 -0.10678455621E-01  0.19101466817E-01  0.00000000000E+00 0.  1.
     999901    1    3    3    0    0 -0.64992650235E-01 -0.84261532711E-01  0.52689027349E-01  0.88797532853E+00  0.88000000000E+00 0. -1.
        -11    1    4    4    0    0  0.41196910026E-01  0.49320563121E-01 -0.45363583272E-01  0.78662692241E-01  0.51100000000E-03 0.  1.
         11    1    4    4    0    0  0.33474361888E-01  0.47477352741E-01  0.33530115446E-02  0.58190512410E-01  0.51100000000E-03 0. -1.
</event>
<event>
 7    1  0.2824193E+004  0.1043930E+01  0.7957747E-01            NaN
         13   -1    0    0    0    0  0.00000000000E+00  0.00000000000E+00  0.74505805969E-08  0.10566000000E+00  0.10566000000E+00 0.  1.
     999900   -1    0    0    0    0 -0.00000000000E+00 -0.00000000000E+00 -0.74505805969E-08  0.93827000000E+00  0.93827000000E+00 0. -1.
     999903    2    1    2    0    0  0.24547105952E-01 -0.49137786472E-01  0.57987326143E-01  0.91827190657E-01  0.45305854818E-01 0.  0.
         14    1    1    2    0    0  0.39644601144E-01 -0.49521145571E-02 -0.55153458300E-01  0.68103757612E-01  0.00000000000E+00 0. -1.
     999901    1    1    2    0    0 -0.64191707096E-01  0.54089901029E-01 -0.28338678433E-02  0.88399905173E+00  0.88000000000E+00 0.  1.
        -11    1    3    3    0    0 -0.84734150960E-02 -0.18856641135E-01  0.29989055126E-02  0.20895603211E-01  0.51100000000E-03 0. -1.
         11    1    3    3    0    0  0.33020521048E-01 -0.30281145337E-01  0.54988420630E-01  0.70931587446E-01  0.51100000000E-03 0.  1.
</event>
<event>
 8    1  0.2824193E+004  0.1043930E+01  0.7957747E-01            NaN
         13   -1    0    0    0    0  0.00000000000E+00  0.00000000000E+00  0.74505805969E-08  0.10566000000E+00  0.10566000000E+00 0. -1.
     999900   -1    0    0    0    0 -0.00000000000E+00 -0.00000000000E+00 -0.74505805969E-08  0.93827000000E+00  0.93827000000E+00 0.  1.
     999902    2    1    2    0    0  0.57389462271E-02  0.16583456849E-01 -0.16143862645E-01  0.10200852763E+01  0.10198065504E+01 0.  0.
     999903    2    3    3    0    0 -0.57573754021E-01 -0.26927484338E-01 -0.10693798169E+00  0.13208456009E+00  0.44393383761E-01 0.  0.
         14    1    1    2    0    0 -0.57389462271E-02 -0.16583456849E-01  0.16143862645E-01  0.23844723650E-01  0.00000000000E+00 0. -1.
     999901    1    3    3    0    0  0.63312700248E-01  0.43510941187E-01  0.90794119049E-01  0.88800071626E+00  0.88000000000E+00 0. -1.
        -11    1    4    4    0    0 -0.65668071544E-02 -0.25363320424E-01 -0.31003376508E-01  0.40594229331E-01  0.51100000000E-03 0.  1.
         11    1    4    4    0    0 -0.51006946867E-01 -0.15641639148E-02 -0.75934605186E-01  0.91490330763E-01  0.51100000000E-03 0. -1.
</event>
<event>
 8    1  0.2824193E+004  0.1043930E+01  0.7957747E-01            NaN
         13   -1    0    0    0    0  0.00000000000E+00  0.00000000000E+00  0.74505805969E-08  0.10566000000E+00  0.10566000000E+00 0.  1.
     999900   -1    0    0    0    0 -0.00000000000E+00 -0.00000000000E+00 -0.74505805969E-08  0.93827000000E+00  0.93827000000E+00 0.  1.
     999902    2    1    2    0    0  0.42600981613E-02  0.11513407905E-01  0.63344174959E-02  0.10301158101E+01  0.10300231795E+01 0.  0.
     999903    2    3    3    0    0  0.89413369737E-01 -0.82109871813E-01 -0.51596758259E-01  0.13917674411E+00  0.44397735308E-01 0.  0.
         14    1    1    2    0    0 -0.42600981613E-02 -0.11513407905E-01 -0.63344174959E-02  0.13814189913E-01  0.00000000000E+00 0. -1.
     999901    1    3    3    0    0 -0.85153271575E-01  0.93623279719E-01  0.57931175755E-01  0.89093906598E+00  0.88000000000E+00 0. -1.
        -11    1    4    4    0    0  0.26732010250E-01 -0.29888359901E-01  0.42211700719E-02  0.40323613768E-01  0.51100000000E-03 0.  1.
         11    1    4    4    0    0  0.62681359487E-01 -0.52221511913E-01 -0.55817928331E-01  0.98853130339E-01  0.51100000000E-03 0. -1.
</event>
<event>
 8    1  0.2824193E+004  0.1043930E+01  0.7957747E-01            NaN
         13   -1    0    0    0    0  0.00000000000E+00  0.00000000000E+00  0.74505805969E-08  0.10566000000E+00  0.10566000000E+00 0.  1.
     999900   -1    0    0    0    0 -0.00000000000E+00 -0.00000000000E+00 -0.74505805969E-08  0.93827000000E+00  0.93827000000E+00 0.  1.
     999902    2    1    2    0    0  0.13749994386E-01  0.56318722094E-03 -0.25215581179E-03  0.10301661667E+01  0.10300742147E+01 0.  0.
     999903    2    3    3    0    0 -0.12728673170E+00  0.26315428732E-01  0.14056537688E-01  0.13844912929E+00  0.45564912960E-01 0.  0.
         14    1    1    2    0    0 -0.13749994386E-01 -0.56318722094E-03  0.25215581179E-03  0.13763833333E-01  0.00000000000E+00 0. -1.
     999901    1    3    3    0    0  0.14103672608E+00 -0.25752241511E-01 -0.14308693500E-01  0.89171703738E+00  0.88000000000E+00 0. -1.
        -11    1    4    4    0    0 -0.45723085797E-01  0.46031025526E-04 -0.14749319609E-01  0.48045876447E-01  0.51100000000E-03 0.  1.
         11    1    4    4    0    0 -0.81563645898E-01  0.26269397707E-01  0.28805857297E-01  0.90403252838E-01  0.51100000000E-03 0. -1.
</event>
<event>
 8    1  0.2824193E+004  0.1043930E+01  0.7957747E-01            NaN
         13   -1    0    0    0    0  0.00000000000E+00  0.00000000000E+00  0.74505805969E-08  0.10566000000E+00  0.10566000000E+00 0. -1.
     999900   -1    0    0    0    0 -0.00000000000E+00 -0.00000000000E+00 -0.74505805969E-08  0.93827000000E+00  0.93827000000E+00 0. -1.
     999902    2    1    2    0    0 -0.18968324623E-02 -0.12445221233E-01  0.50787351452E-02  0.10303552051E+01  0.10302657782E+01 0.  0.
     999903    2    3    3    0    0 -0.12923227669E+00  0.15416711070E-01 -0.26250717601E-01  0.14020233218E+00  0.45043728244E-01 0.  0.
         14    1    1    2    0    0  0.18968324623E-02  0.12445221233E-01 -0.50787351452E-02  0.13574794864E-01  0.00000000000E+00 0.  1.
     999901    1    3    3    0    0  0.12733544423E+00 -0.27861932303E-01  0.31329452746E-01  0.89015287296E+00  0.88000000000E+00 0.  1.
        -11    1    4    4    0    0 -0.25688839882E-01 -0.73403556200E-02 -0.21123219652E-01  0.34062425700E-01  0.51100000000E-03 0. -1.
         11    1    4    4    0    0 -0.10354343681E+00  0.22757066690E-01 -0.51274979494E-02  0.10613990648E+00  0.51100000000E-03 0.  1.
</event>
<event>
 8    1  0.2824193E+004  0.1043930E+01  0.7957747E-01            NaN
         13   -1    0    0    0    0  0.00000000000E+00  0.00000000000E+00  0.74505805969E-08  0.10566000000E+00  0.10566000000E+00 0.  1.
     999900   -1    0    0    0    0 -0.00000000000E+00 -0.00000000000E+00 -0.74505805969E-08  0.93827000000E+00  0.93827000000E+00 0.  1.
     999902    2    1    2    0    0 -0.90741081796E-03  0.14570613444E-02 -0.14930341361E-01  0.10289013103E+01  0.10287915458E+01 0.  0.
     999903    2    3    3    0    0  0.12162034394E-01  0.19901798751E-01  0.12753313961E+00  0.13715759027E+00  0.44760542825E-01 0.  0.
         14    1    1    2    0    0  0.90741081796E-03 -0.14570613444E-02  0.14930341361E-01  0.15028689741E-01  0.00000000000E+00 0.  1.
     999901    1    3    3    0    0 -0.13069445212E-01 -0.18444737406E-01 -0.14246348097E+00  0.89174371999E+00  0.88000000000E+00 0.  1.
        -11    1    4    4    0    0 -0.13157140174E-02  0.13295082038E-01  0.11926773407E+00  0.12001476501E+00  0.51100000000E-03 0. -1.
         11    1    4    4    0    0  0.13477748411E-01  0.66067167126E-02  0.82654055461E-02  0.17142825257E-01  0.51100000000E-03 0.  1.
</event>
<event>
 8    1  0.2824193E+004  0.1043930E+01  0.7957747E-01            NaN
         13   -1    0    0    0    0  0.00000000000E+00  0.00000000000E+00  0.74505805969E-08  0.10566000000E+00  0.10566000000E+00 0.  1.
     999900   -1    0    0    0    0 -0.00000000000E+00 -0.00000000000E+00 -0.74505805969E-08  0.93827000000E+00  0.93827000000E+00 0.  1.
     999902    2    1    2    0    0 -0.12083153653E-01  0.51275138187E-02 -0.12180426687E-02  0.10307475257E+01  0.10306632254E+01 0.  0.
     999903    2    3    3    0    0 -0.44434578506E-02 -0.11463015058E+00 -0.65994934037E-01  0.14024412382E+00  0.46403310314E-01 0.  0.
         14    1    1    2    0    0  0.12083153653E-01 -0.51275138187E-02  0.12180426687E-02  0.13182474279E-01  0.00000000000E+00 0. -1.
     999901    1    3    3    0    0 -0.76396958023E-02  0.11975766440E+00  0.64776891368E-01  0.89050340190E+00  0.88000000000E+00 0. -1.
        -11    1    4    4    0    0  0.16417821229E-01 -0.32802587044E-01 -0.73043535001E-02  0.37405471147E-01  0.51100000000E-03 0. -1.
         11    1    4    4    0    0 -0.20861279079E-01 -0.81827563540E-01 -0.58690580536E-01  0.10283865268E+00  0.51100000000E-03 0.  1.
</event>
<event>
 8    1  0.2824193E+004  0.1043930E+01  0.7957747E-01            NaN
         13   -1    0    0    0    0  0.00000000000E+00  0.00000000000E+00  0.74505805969E-08  0.10566000000E+00  0.10566000000E+00 0.  1.
     999900   -1    0    0    0    0 -0.00000000000E+00 -0.00000000000E+00 -0.74505805969E-08  0.93827000000E+00  0.93827000000E+00 0.  1.
     999902    2    1    2    0    0 -0.29957926663E-02  0.12903139830E-01  0.40973728916E-02  0.10300644219E+01  0.10299710962E+01 0.  0.
     999903    2    3    3    0    0  0.50608627355E-01 -0.10172355305E+00  0.66108951758E-01  0.13885280367E+00  0.44730226671E-01 0.  0.
         14    1    1    2    0    0  0.29957926663E-02 -0.12903139830E-01 -0.40973728916E-02  0.13865578090E-01  0.00000000000E+00 0.  1.
     999901    1    3    3    0    0 -0.53604420022E-01  0.11462669288E+00 -0.62011578867E-01  0.89121161824E+00  0.88000000000E+00 0. -1.
        -11    1    4    4    0    0  0.16663510238E-01 -0.66902929677E-01  0.56814929685E-01  0.89341322628E-01  0.51100000000E-03 0.  1.
         11    1    4    4    0    0  0.33945117117E-01 -0.34820623371E-01  0.92940220734E-02  0.49511481046E-01  0.51100000000E-03 0. -1.
</event>
<event>
 8    1  0.2824193E+004  0.1043930E+01  0.7957747E-01            NaN
         13   -1    0    0    0    0  0.00000000000E+00  0.00000000000E+00  0.74505805969E-08  0.10566000000E+00  0.10566000000E+00 0.  1.
     999900   -1    0    0    0    0 -0.00000000000E+00 -0.00000000000E+00 -0.74505805969E-08  0.93827000000E+00  0.93827000000E+00 0.  1.
     999902    2    1    2    0    0 -0.89791161830E-02 -0.11820404079E-02 -0.95736323431E-02  0.10307513740E+01  0.10306671232E+01 0.  0.
     999903    2    3    3    0    0 -0.74713935178E-01  0.11082607669E+00  0.25589760079E-02  0.14113680302E+00  0.45259887565E-01 0.  0.
         14    1    1    2    0    0  0.89791161830E-02  0.11820404079E-02  0.95736323431E-02  0.13178625998E-01  0.00000000000E+00 0.  1.
     999901    1    3    3    0    0  0.65734818995E-01 -0.11200811710E+00 -0.12132608351E-01  0.88961457099E+00  0.88000000000E+00 0. -1.
        -11    1    4    4    0    0 -0.52046620895E-01  0.85203276358E-01  0.21352343716E-01  0.10210109085E+00  0.51100000000E-03 0. -1.
         11    1    4    4    0    0 -0.22667314283E-01  0.25622800336E-01 -0.18793367708E-01  0.39035712171E-01  0.51100000000E-03 0.  1.
</event>
<event>
 8    1  0.2824193E+004  0.1043930E+01  0.7957747E-01            NaN
         13   -1    0    0    0    0  0.00000000000E+00  0.00000000000E+00  0.74505805969E-08  0.10566000000E+00  0.10566000000E+00 0.  1.
     999900   -1    0    0    0    0 -0.00000000000E+00 -0.00000000000E+00 -0.74505805969E-08  0.93827000000E+00  0.93827000000E+00 0. -1.
     999902    2    1    2    0    0  0.10876006431E-02 -0.13742135830E-01  0.44673378045E-02  0.10294390967E+01  0.10293371010E+01 0.  0.
     999903    2    3    3    0    0 -0.19335330995E-01 -0.11029010820E+00 -0.72349847044E-01  0.14059744204E+00  0.44669646856E-01 0.  0.
         14    1    1    2    0    0 -0.10876006431E-02  0.13742135830E-01 -0.44673378045E-02  0.14490903332E-01  0.00000000000E+00 0. -1.
     999901    1    3    3    0    0  0.20422931638E-01  0.96547972372E-01  0.76817184849E-01  0.88884165462E+00  0.88000000000E+00 0.  1.
        -11    1    4    4    0    0  0.14368889965E-01 -0.34880147840E-01 -0.18747399371E-01  0.42128562952E-01  0.51100000000E-03 0.  1.
         11    1    4    4    0    0 -0.33704220960E-01 -0.75409960361E-01 -0.53602447673E-01  0.98468879093E-01  0.51100000000E-03 0. -1.
</event>
<event>
 8    1  0.2824193E+004  0.1043930E+01  0.7957747E-01            NaN
         13   -1    0    0    0    0  0.00000000000E+00  0.00000000000E+00  0.74505805969E-08  0.10566000000E+00  0.10566000000E+00 0.  1.
     999900   -1    0    0    0    0 -0.00000000000E+00 -0.00000000000E+00 -0.74505805969E-08  0.93827000000E+00  0.93827000000E+00 0. -1.
     999902    2    1    2    0    0 -0.55421952469E-02  0.61653844755E-02 -0.11965429657E-01  0.10293732352E+01  0.10292703037E+01 0.  0.
     999903    2    3    3    0    0  0.61174859522E-01  0.79203471542E-01 -0.87974596723E-01  0.14057453977E+00  0.44789711112E-01 0.  0.
         14    1    1    2    0    0  0.55421952469E-02 -0.61653844755E-02  0.11965429657E-01  0.14556764777E-01  0.00000000000E+00 0.  1.
     999901    1    3    3    0    0 -0.66717054768E-01 -0.73038087067E-01  0.76009167066E-01  0.88879869545E+00  0.88000000000E+00 0.  1.
        -11    1    4    4    0    0  0.30107576591E-02  0.38565857808E-01 -0.31314976178E-01  0.49772270434E-01  0.51100000000E-03 0.  1.
         11    1    4    4    0    0  0.58164101862E-01  0.40637613734E-01 -0.56659620545E-01  0.90802269337E-01  0.51100000000E-03 0. -1.
</event>
<event>
 8    1  0.2824193E+004  0.1043930E+01  0.7957747E-01            NaN
         13   -1    0    0    0    0  0.00000000000E+00  0.00000000000E+00  0.74505805969E-08  0.10566000000E+00  0.10566000000E+00 0. -1.
     999900   -1    0    0    0    0 -0.00000000000E+00 -0.00000000000E+00 -0.74505805969E-08  0.93827000000E+00  0.93827000000E+00 0.  1.
     999902    2    1    2    0    0 -0.48619333414E-02  0.11572549339E-01  0.48531388213E-02  0.10304720934E+01  0.10303842099E+01 0.  0.
     999903    2    3    3    0    0  0.37835928332E-02 -0.74890446183E-02 -0.13200107173E+00  0.13964822503E+00  0.44798911297E-01 0.  0.
         14    1    1    2    0    0  0.48619333414E-02 -0.11572549339E-01 -0.48531388213E-02  0.13457906614E-01  0.00000000000E+00 0. -1.
     999901    1    3    3    0    0 -0.86455261746E-02  0.19061593957E-01  0.13685421055E+00  0.89082386836E+00  0.88000000000E+00 0. -1.
        -11    1    4    4    0    0 -0.14830166648E-01 -0.18295792524E-01 -0.58689159466E-01  0.63240401854E-01  0.51100000000E-03 0.  1.
         11    1    4    4    0    0  0.18613759481E-01  0.10806747906E-01 -0.73311912260E-01  0.76407823176E-01  0.51100000000E-03 0. -1.
</event>
<event>
 8    1  0.2824193E+004  0.1043930E+01  0.7957747E-01            NaN
         13   -1    0    0    0    0  0.00000000000E+00  0.00000000000E+00  0.74505805969E-08  0.10566000000E+00  0.10566000000E+00 0.  1.
     999900   -1    0    0    0    0 -0.00000000000E+00 -0.00000000000E+00 -0.74505805969E-08  0.93827000000E+00  0.93827000000E+00 0. -1.
     999902    2    1    2    0    0  0.39032295332E-02  0.10208265107E-01  0.24027099330E-01  0.10175340651E+01  0.10171916379E+01 0.  0.
     999903    2    3    3    0    0  0.63618116390E-02 -0.10671049764E+00 -0.50990353022E-01  0.12663358812E+00  0.44815695746E-01 0.  0.
         14    1    1    2    0    0 -0.39032295332E-02 -0.10208265107E-01 -0.24027099330E-01  0.26395934905E-01  0.00000000000E+00 0.  1.
     999901    1    3    3    0    0 -0.24585821058E-02  0.11691876275E+00  0.75017452352E-01  0.89090047697E+00  0.88000000000E+00 0.  1.
        -11    1    4    4    0    0  0.33681147104E-02  0.36629540144E-02 -0.48437459720E-02  0.69630758186E-02  0.51100000000E-03 0.  1.
         11    1    4    4    0    0  0.29936969286E-02 -0.11037345166E+00 -0.46146607050E-01  0.11967051231E+00  0.51100000000E-03 0. -1.
</event>
<event>
 8    1  0.2824193E+004  0.1043930E+01  0.7957747E-01            NaN
         13   -1    0    0    0    0  0.00000000000E+00  0.00000000000E+00  0.74505805969E-08  0.10566000000E+00  0.10566000000E+00 0.  1.
     999900   -1    0    0    0    0 -0.00000000000E+00 -0.00000000000E+00 -0.74505805969E-08  0.93827000000E+00  0.93827000000E+00 0.  1.
     999902    2    1    2    0    0  0.16859817622E-01 -0.66361350549E-02  0.22079973135E-03  0.10258098319E+01  0.10256497798E+01 0.  0.
     999903    2    3    3    0    0  0.20455716224E-01  0.62040210099E-01  0.11083815624E+00  0.13622252849E+00  0.44766688436E-01 0.  0.
         14    1    1    2    0    0 -0.16859817622E-01  0.66361350549E-02 -0.22079973135E-03  0.18120168080E-01  0.00000000000E+00 0. -1.
     999901    1    3    3    0    0 -0.35958986017E-02 -0.68676345154E-01 -0.11061735651E+00  0.88958730343E+00  0.88000000000E+00 0.  1.
        -11    1    4    4    0    0  0.20261154034E-01  0.67806598426E-02  0.16947267782E-01  0.27275679955E-01  0.51100000000E-03 0. -1.
         11    1    4    4    0    0  0.19456219007E-03  0.55259550256E-01  0.93890888455E-01  0.10894684853E+00  0.51100000000E-03 0.  1.
</event>
<event>
 7    1  0.2824193E+004  0.1043930E+01  0.7957747E-01            NaN
         13   -1    0    0    0    0  0.00000000000E+00  0.00000000000E+00  0.74505805969E-08  0.10566000000E+00  0.10566000000E+00 0. -1.
     999900   -1    0    0    0    0 -0.00000000000E+00 -0.00000000000E+00 -0.74505805969E-08  0.93827000000E+00  0.93827000000E+00 0. -1.
     999903    2    1    2    0    0  0.93264198986E-02 -0.63511194612E-01  0.23016820076E-01  0.81608346433E-01  0.44827382837E-01 0.  0.
         14    1    1    2    0    0 -0.90785685893E-02 -0.50465968094E-01 -0.53952764424E-01  0.74432084025E-01  0.00000000000E+00 0.  1.
     999901    1    1    2    0    0 -0.24785130928E-03  0.11397716271E+00  0.30935944348E-01  0.88788956954E+00  0.88000000000E+00 0.  1.
        -11    1    3    3    0    0 -0.10828806816E-01 -0.36979528516E-01 -0.39540878115E-02  0.38738153256E-01  0.51100000000E-03 0. -1.
         11    1    3    3    0    0  0.20155226714E-01 -0.26531666096E-01  0.26970907887E-01  0.42870193177E-01  0.51100000000E-03 0.  1.
</event>
<event>
 8    1  0.2824193E+004  0.1043930E+01  0.7957747E-01            NaN
         13   -1    0    0    0    0  0.00000000000E+00  0.00000000000E+00  0.74505805969E-08  0.10566000000E+00  0.10566000000E+00 0. -1.
     999900   -1    0    0    0    0 -0.00000000000E+00 -0.00000000000E+00 -0.74505805969E-08  0.93827000000E+00  0.93827000000E+00 0.  1.
     999902    2    1    2    0    0  0.65149070480E-02  0.38617910701E-02  0.11485195129E-01  0.10301725601E+01  0.10300806942E+01 0.  0.
     999903    2    3    3    0    0  0.95670692624E-01  0.60399780976E-01  0.72723219190E-01  0.14174957868E+00  0.44757809136E-01 0.  0.
         14    1    1    2    0    0 -0.65149070480E-02 -0.38617910701E-02 -0.11485195129E-01  0.13757439851E-01  0.00000000000E+00 0.  1.
     999901    1    3    3    0    0 -0.89155785576E-01 -0.56537989906E-01 -0.61238024061E-01  0.88842298146E+00  0.88000000000E+00 0.  1.
        -11    1    4    4    0    0  0.66380578574E-01  0.26793707349E-01  0.23514599761E-01  0.75349064282E-01  0.51100000000E-03 0.  1.
         11    1    4    4    0    0  0.29290114050E-01  0.33606073627E-01  0.49208619429E-01  0.66400514402E-01  0.51100000000E-03 0. -1.
</event>
<event>
 8    1  0.2824193E+004  0.1043930E+01  0.7957747E-01            NaN
         13   -1    0    0    0    0  0.00000000000E+00  0.00000000000E+00  0.74505805969E-08  0.10566000000E+00  0.10566000000E+00 0.  1.
     999900   -1    0    0    0    0 -0.00000000000E+00 -0.00000000000E+00 -0.74505805969E-08  0.93827000000E+00  0.93827000000E+00 0. -1.
     999902    2    1    2    0    0  0.13772883169E-01 -0.49274305969E-02 -0.10155336553E-02  0.10292670129E+01  0.10291625628E+01 0.  0.
     999903    2    3    3    0    0 -0.17068466498E-01 -0.10324902054E+00 -0.79431010104E-01  0.13979114988E+00  0.47755496301E-01 0.  0.
         14    1    1    2    0    0 -0.13772883169E-01  0.49274305969E-02  0.10155336553E-02  0.14662987133E-01  0.00000000000E+00 0. -1.
     999901    1    3    3    0    0  0.30841349667E-01  0.98321589940E-01  0.78415476449E-01  0.88947586299E+00  0.88000000000E+00 0.  1.
        -11    1    4    4    0    0 -0.28454884893E-01 -0.39055542173E-01 -0.45130291749E-01  0.66121253792E-01  0.51100000000E-03 0. -1.
         11    1    4    4    0    0  0.11386418394E-01 -0.64193478363E-01 -0.34300718356E-01  0.73669896083E-01  0.51100000000E-03 0.  1.
</event>
<event>
 8    1  0.2824193E+004  0.1043930E+01  0.7957747E-01            NaN
         13   -1    0    0    0    0  0.00000000000E+00  0.00000000000E+00  0.74505805969E-08  0.10566000000E+00  0.10566000000E+00 0.  1.
     999900   -1    0    0    0    0 -0.00000000000E+00 -0.00000000000E+00 -0.74505805969E-08  0.93827000000E+00  0.93827000000E+00 0.  1.
     999902    2    1    2    0    0  0.84641544667E-02  0.98390393196E-02 -0.48494218182E-02  0.10300748386E+01  0.10299816540E+01 0.  0.
     999903    2    3    3    0    0 -0.81836509011E-01  0.88578442234E-01 -0.57712319975E-01  0.14038467376E+00  0.42822775661E-01 0.  0.
         14    1    1    2    0    0 -0.84641544667E-02 -0.98390393196E-02  0.48494218182E-02  0.13855161404E-01  0.00000000000E+00 0. -1.
     999901    1    3    3    0    0  0.90300663478E-01 -0.78739402914E-01  0.52862898157E-01  0.88969016483E+00  0.88000000000E+00 0. -1.
        -11    1    4    4    0    0 -0.33269340444E-01  0.60687593977E-01 -0.17361579044E-01  0.71354878068E-01  0.51100000000E-03 0. -1.
         11    1    4    4    0    0 -0.48567168568E-01  0.27890848257E-01 -0.40350740931E-01  0.69029795696E-01  0.51100000000E-03 0.  1.
</event>
<event>
 8    1  0.2824193E+004  0.1043930E+01  0.7957747E-01            NaN
         13   -1    0    0    0    0  0.00000000000E+00  0.00000000000E+00  0.74505805969E-08  0.10566000000E+00  0.10566000000E+00 0.  1.
     999900   -1    0    0    0    0 -0.00000000000E+00 -0.00000000000E+00 -0.74505805969E-08  0.93827000000E+00  0.93827000000E+00 0. -1.
     999902    2    1    2    0    0  0.34694861603E-02  0.10397522135E-01 -0.68568994094E-02  0.10310008519E+01  0.10309197805E+01 0.  0.
     999903    2    3    3    0    0  0.95391275367E-02  0.11528965657E+00 -0.69765462043E-01  0.14252086471E+00  0.45412303568E-01 0.  0.
         14    1    1    2    0    0 -0.34694861603E-02 -0.10397522135E-01  0.68568994094E-02  0.12929148088E-01  0.00000000000E+00 0.  1.
     999901    1    3    3    0    0 -0.60696413764E-02 -0.10489213444E+00  0.62908562634E-01  0.88847998721E+00  0.88000000000E+00 0.  1.
        -11    1    4    4    0    0 -0.18496378557E-02  0.33324929988E-01  0.13510147200E-02  0.33407461452E-01  0.51100000000E-03 0. -1.
         11    1    4    4    0    0  0.11388765392E-01  0.81964726586E-01 -0.71116476763E-01  0.10911340325E+00  0.51100000000E-03 0.  1.
</event>
<event>
 8    1  0.2824193E+004  0.1043930E+01  0.7957747E-01            NaN
         13   -1    0    0    0    0  0.00000000000E+00  0.00000000000E+00  0.74505805969E-08  0.10566000000E+00  0.10566000000E+00 0.  1.
     999900   -1    0    0    0    0 -0.00000000000E+00 -0.00000000000E+00 -0.74505805969E-08  0.93827000000E+00  0.93827000000E+00 0. -1.
     999902    2    1    2    0    0 -0.24101563074E-02  0.10567620254E-01  0.11902235698E-01  0.10278319670E+01  0.10277058946E+01 0.  0.
     999903    2    3    3    0    0 -0.12819581031E+00 -0.71339424404E-02 -0.22604569734E-01  0.13804205041E+00  0.45382619958E-01 0.  0.
         14    1    1    2    0    0  0.24101563074E-02 -0.10567620254E-01 -0.11902235698E-01  0.16098032981E-01  0.00000000000E+00 0. -1.
     999901    1    3    3    0    0  0.12578565400E+00  0.17701562694E-01  0.34506805432E-01  0.88978991661E+00  0.88000000000E+00 0.  1.
        -11    1    4    4    0    0 -0.73981373933E-01 -0.20095462819E-01 -0.28927778086E-01  0.81939909574E-01  0.51100000000E-03 0.  1.
         11    1    4    4    0    0 -0.54214436373E-01  0.12961520379E-01  0.63232083516E-02  0.56102140838E-01  0.51100000000E-03 0. -1.
</event>
<event>
 8    1  0.2824193E+004  0.1043930E+01  0.7957747E-01            NaN
         13   -1    0    0    0    0  0.00000000000E+00  0.00000000000E+00  0.74505805969E-08  0.10566000000E+00  0.10566000000E+00 0.  1.
     999900   -1    0    0    0    0 -0.00000000000E+00 -0.00000000000E+00 -0.74505805969E-08  0.93827000000E+00  0.93827000000E+00 0.  1.
     999902    2    1    2    0    0  0.11448634273E-01  0.27100545061E-02 -0.69276766450E-02  0.10302768566E+01  0.10301863874E+01 0.  0.
     999903    2    3    3    0    0  0.86453113121E-01  0.53814641185E-02  0.10095498313E+00  0.14051763264E+00  0.45279085009E-01 0.  0.
         14    1    1    2    0    0 -0.11448634273E-01 -0.27100545061E-02  0.69276766450E-02  0.13653143442E-01  0.00000000000E+00 0.  1.
     999901    1    3    3    0    0 -0.75004478849E-01 -0.26714096124E-02 -0.10788265977E+00  0.88975922392E+00  0.88000000000E+00 0.  1.
        -11    1    4    4    0    0  0.49293913744E-01 -0.19130827312E-01  0.48914565469E-01  0.72033147383E-01  0.51100000000E-03 0. -1.
         11    1    4    4    0    0  0.37159199378E-01  0.24512291430E-01  0.52040417656E-01  0.68484485253E-01  0.51100000000E-03 0.  1.
</event>
<event>
 8    1  0.2824193E+004  0.1043930E+01  0.7957747E-01            NaN
         13   -1    0    0    0    0  0.00000000000E+00  0.00000000000E+00  0.74505805969E-08  0.10566000000E+00  0.10566000000E+00 0. -1.
     999900   -1    0    0    0    0 -0.00000000000E+00 -0.00000000000E+00 -0.74505805969E-08  0.93827000000E+00  0.93827000000E+00 0.  1.
     999902    2    1    2    0    0  0.18713150879E-02  0.13274029674E-01 -0.69641155803E-03  0.10305066370E+01  0.10304192071E+01 0.  0.
     999903    2    3    3    0    0  0.14904856494E-01 -0.72916305277E-01 -0.10919733725E+00  0.13956831263E+00  0.44903375215E-01 0.  0.
         14    1    1    2    0    0 -0.18713150879E-02 -0.13274029674E-01  0.69641155803E-03  0.13423362955E-01  0.00000000000E+00 0.  1.
     999901    1    3    3    0    0 -0.13033541406E-01  0.86190334952E-01  0.10850092569E+00  0.89093832442E+00  0.88000000000E+00 0. -1.
        -11    1    4    4    0    0  0.93854125539E-02 -0.59856291614E-01 -0.49591177919E-01  0.78296919882E-01  0.51100000000E-03 0. -1.
         11    1    4    4    0    0  0.55194439398E-02 -0.13060013663E-01 -0.59606159327E-01  0.61271392746E-01  0.51100000000E-03 0.  1.
</event>
<event>
 8    1  0.2824193E+004  0.1043930E+01  0.7957747E-01            NaN
         13   -1    0    0    0    0  0.00000000000E+00  0.00000000000E+00  0.74505805969E-08  0.10566000000E+00  0.10566000000E+00 0.  1.
     999900   -1    0    0    0    0 -0.00000000000E+00 -0.00000000000E+00 -0.74505805969E-08  0.93827000000E+00  0.93827000000E+00 0. -1.
     999902    2    1    2    0    0  0.40287472715E-02  0.47507498967E-02  0.11453926977E-01  0.10308918685E+01  0.10308094158E+01 0.  0.
     999903    2    3    3    0    0  0.13286824355E+00  0.12203264566E-01  0.17850753016E-01  0.14145605007E+00  0.43454285255E-01 0.  0.
         14    1    1    2    0    0 -0.40287472715E-02 -0.47507498967E-02 -0.11453926977E-01  0.13038131475E-01  0.00000000000E+00 0. -1.
     999901    1    3    3    0    0 -0.12883949628E+00 -0.74525146689E-02 -0.63968260386E-02  0.88943581846E+00  0.88000000000E+00 0.  1.
        -11    1    4    4    0    0  0.66394296159E-01  0.24875830057E-01 -0.20005974161E-02  0.70931466885E-01  0.51100000000E-03 0.  1.
         11    1    4    4    0    0  0.66473947390E-01 -0.12672565492E-01  0.19851350432E-01  0.70524583180E-01  0.51100000000E-03 0. -1.
</event>
<event>
 8    1  0.2824193E+004  0.1043930E+01  0.7957747E-01            NaN
         13   -1    0    0    0    0  0.00000000000E+00  0.00000000000E+00  0.74505805969E-08  0.10566000000E+00  0.10566000000E+00 0. -1.
     999900   -1    0    0    0    0 -0.00000000000E+00 -0.00000000000E+00 -0.74505805969E-08  0.93827000000E+00  0.93827000000E+00 0.  1.
     999902    2    1    2    0    0 -0.15350165429E-01  0.60663023770E-02  0.34494959026E-02  0.10270680124E+01  0.10269295864E+01 0.  0.
     999903    2    3    3    0    0  0.99515056563E-01 -0.59178573468E-02  0.81966691604E-01  0.13605589728E+00  0.43062758074E-01 0.  0.
         14    1    1    2    0    0  0.15350165429E-01 -0.60663023770E-02 -0.34494959026E-02  0.16861987582E-01  0.00000000000E+00 0. -1.
     999901    1    3    3    0    0 -0.11486522199E+00  0.11984159724E-01 -0.78517195701E-01  0.89101211514E+00  0.88000000000E+00 0. -1.
        -11    1    4    4    0    0  0.27748737805E-01 -0.16023070473E-01  0.43423350319E-01  0.53968321367E-01  0.51100000000E-03 0.  1.
         11    1    4    4    0    0  0.71766318758E-01  0.10105213127E-01  0.38543341284E-01  0.82087575910E-01  0.51100000000E-03 0. -1.
</event>
<event>
 8    1  0.2824193E+004  0.1043930E+01  0.7957747E-01            NaN
         13   -1    0    0    0    0  0.00000000000E+00  0.00000000000E+00  0.74505805969E-08  0.10566000000E+00  0.10566000000E+00 0.  1.
     999900   -1    0    0    0    0 -0.00000000000E+00 -0.00000000000E+00 -0.74505805969E-08  0.93827000000E+00  0.93827000000E+00 0. -1.
     999902    2    1    2    0    0 -0.92926852931E-02  0.10722268629E-01  0.31237153929E-02  0.10294014542E+01  0.10292989242E+01 0.  0.
     999903    2    3    3    0    0  0.11506777183E+00 -0.23948367601E-03 -0.61072697024E-01  0.13827471651E+00  0.46361335574E-01 0.  0.
         14    1    1    2    0    0  0.92926852931E-02 -0.10722268629E-01 -0.31237153929E-02  0.14528545776E-01  0.00000000000E+00 0. -1.
     999901    1    3    3    0    0 -0.12436045712E+00  0.10961752305E-01  0.64196412417E-01  0.89112673772E+00  0.88000000000E+00 0.  1.
        -11    1    4    4    0    0  0.19297179429E-01  0.65150856156E-02 -0.32043899738E-01  0.37972359762E-01  0.51100000000E-03 0. -1.
         11    1    4    4    0    0  0.95770592402E-01 -0.67545692916E-02 -0.29028797286E-01  0.10030235674E+00  0.51100000000E-03 0.  1.
</event>
<event>
 8    1  0.2824193E+004  0.1043930E+01  0.7957747E-01            NaN
         13   -1    0    0    0    0  0.00000000000E+00  0.00000000000E+00  0.74505805969E-08  0.10566000000E+00  0.10566000000E+00 0.  1.
     999900   -1    0    0    0    0 -0.00000000000E+00 -0.00000000000E+00 -0.74505805969E-08  0.93827000000E+00  0.93827000000E+00 0.  1.
     999902    2    1    2    0    0  0.40982216037E-02  0.52936581159E-02  0.12204393210E-01  0.10300100341E+01  0.10299159698E+01 0.  0.
     999903    2    3    3    0    0  0.68333770824E-01 -0.65910263088E-01 -0.91727023811E-01  0.13871998951E+00  0.42611284609E-01 0.  0.
         14    1    1    2    0    0 -0.40982216037E-02 -0.52936581159E-02 -0.12204393210E-01  0.13919965883E-01  0.00000000000E+00 0. -1.
     999901    1    3    3    0    0 -0.64235549221E-01  0.71203921203E-01  0.10393141702E+00  0.89129004461E+00  0.88000000000E+00 0. -1.
        -11    1    4    4    0    0  0.50220343154E-01 -0.43462033694E-01 -0.87049671940E-01  0.10949400781E+00  0.51100000000E-03 0.  1.
         11    1    4    4    0    0  0.18113427670E-01 -0.22448229394E-01 -0.46773518711E-02  0.29225981701E-01  0.51100000000E-03 0. -1.
</event>
<event>
 8    1  0.2824193E+004  0.1043930E+01  0.7957747E-01            NaN
         13   -1    0    0    0    0  0.00000000000E+00  0.00000000000E+00  0.74505805969E-08  0.10566000000E+00  0.10566000000E+00 0.  1.
     999900   -1    0    0    0    0 -0.00000000000E+00 -0.00000000000E+00 -0.74505805969E-08  0.93827000000E+00  0.93827000000E+00 0.  1.
     999902    2    1    2    0    0 -0.11734368998E-01 -0.45287144910E-02  0.24748448906E-02  0.10311108921E+01  0.10310312033E+01 0.  0.
     999903    2    3    3    0    0 -0.48545239688E-01  0.72889405039E-01  0.10183402130E+00  0.14138011742E+00  0.44143675036E-01 0.  0.
         14    1    1    2    0    0  0.11734368998E-01  0.45287144910E-02 -0.24748448906E-02  0.12819107923E-01  0.00000000000E+00 0. -1.
     999901    1    3    3    0    0  0.36810870690E-01 -0.77418119530E-01 -0.99359176405E-01  0.88973077466E+00  0.88000000000E+00 0. -1.
        -11    1    4    4    0    0 -0.26520123627E-01  0.60075523470E-02  0.34711364133E-01  0.44097024427E-01  0.51100000000E-03 0. -1.
         11    1    4    4    0    0 -0.22025116061E-01  0.66881852692E-01  0.67122657163E-01  0.97283092995E-01  0.51100000000E-03 0.  1.
</event>
<event>
 8    1  0.2824193E+004  0.1043930E+01  0.7957747E-01            NaN
         13   -1    0    0    0    0  0.00000000000E+00  0.00000000000E+00  0.74505805969E-08  0.10566000000E+00  0.10566000000E+00 0.  1.
     999900   -1    0    0    0    0 -0.00000000000E+00 -0.00000000000E+00 -0.74505805969E-08  0.93827000000E+00  0.93827000000E+00 0. -1.
     999902    2    1    2    0    0  0.30004835739E-02  0.15128225282E-01  0.32389158380E-02  0.10281706638E+01  0.10280498807E+01 0.  0.
     999903    2    3    3    0    0 -0.11356234566E+00 -0.16521611970E-03 -0.63742690795E-01  0.13782953920E+00  0.45137762462E-01 0.  0.
         14    1    1    2    0    0 -0.30004835739E-02 -0.15128225282E-01 -0.32389158380E-02  0.15759336206E-01  0.00000000000E+00 0.  1.
     999901    1    3    3    0    0  0.11656282923E+00  0.15293441401E-01  0.66981606633E-01  0.89034112459E+00  0.88000000000E+00 0.  1.
        -11    1    4    4    0    0 -0.12784778309E-01 -0.13935887426E-01 -0.24563477140E-02  0.19077585798E-01  0.51100000000E-03 0.  1.
         11    1    4    4    0    0 -0.10077756735E+00  0.13770671306E-01 -0.61286343081E-01  0.11875195341E+00  0.51100000000E-03 0. -1.
</event>
<event>
 8    1  0.2824193E+004  0.1043930E+01  0.7957747E-01            NaN
         13   -1    0    0    0    0  0.00000000000E+00  0.00000000000E+00  0.74505805969E-08  0.10566000000E+00  0.10566000000E+00 0.  1.
     999900   -1    0    0    0    0 -0.00000000000E+00 -0.00000000000E+00 -0.74505805969E-08  0.93827000000E+00  0.93827000000E+00 0.  1.
     999902    2    1    2    0    0 -0.89986759847E-03  0.99157618541E-02 -0.97784251157E-02  0.10299747253E+01  0.10298801799E+01 0.  0.
     999903    2    3    3    0    0  0.40931411265E-01 -0.25085398361E-01 -0.12439151057E+00  0.14086781581E+00  0.45451468508E-01 0.  0.
         14    1    1    2    0    0  0.89986759847E-03 -0.99157618541E-02  0.97784251157E-02  0.13955274723E-01  0.00000000000E+00 0.  1.
     999901    1    3    3    0    0 -0.41831278863E-01  0.35001160215E-01  0.11461308545E+00  0.88910690947E+00  0.88000000000E+00 0. -1.
        -11    1    4    4    0    0  0.45303205173E-01 -0.25398673537E-01 -0.74710203275E-01  0.90990925981E-01  0.51100000000E-03 0. -1.
         11    1    4    4    0    0 -0.43717939080E-02  0.31327517611E-03 -0.49681307296E-01  0.49876889828E-01  0.51100000000E-03 0.  1.
</event>
<event>
 8    1  0.2824193E+004  0.1043930E+01  0.7957747E-01            NaN
         13   -1    0    0    0    0  0.00000000000E+00  0.00000000000E+00  0.74505805969E-08  0.10566000000E+00  0.10566000000E+00 0.  1.
     999900   -1    0    0    0    0 -0.00000000000E+00 -0.00000000000E+00 -0.74505805969E-08  0.93827000000E+00  0.93827000000E+00 0. -1.
     999902    2    1    2    0    0 -0.10779759007E-01  0.50655018119E-03 -0.97125984105E-02  0.10294112409E+01  0.10293088499E+01 0.  0.
     999903    2    3    3    0    0 -0.93835786481E-01  0.77092537416E-01 -0.54772426371E-01  0.14104526609E+00  0.46317753032E-01 0.  0.
         14    1    1    2    0    0  0.10779759007E-01 -0.50655018119E-03  0.97125984105E-02  0.14518759080E-01  0.00000000000E+00 0.  1.
     999901    1    3    3    0    0  0.83056027475E-01 -0.76585987235E-01  0.45059827961E-01  0.88836597483E+00  0.88000000000E+00 0.  1.
        -11    1    4    4    0    0 -0.77899004885E-01  0.60564845278E-01 -0.22116238431E-01  0.10112242367E+00  0.51100000000E-03 0. -1.
         11    1    4    4    0    0 -0.15936781596E-01  0.16527692138E-01 -0.32656187941E-01  0.39922842420E-01  0.51100000000E-03 0.  1.
</event>
<event>
 8    1  0.2824193E+004  0.1043930E+01  0.7957747E-01            NaN
         13   -1    0    0    0    0  0.00000000000E+00  0.00000000000E+00  0.74505805969E-08  0.10566000000E+00  0.10566000000E+00 0. -1.
     999900   -1    0    0    0    0 -0.00000000000E+00 -0.00000000000E+00 -0.74505805969E-08  0.93827000000E+00  0.93827000000E+00 0.  1.
     999902    2    1    2    0    0 -0.10377749305E-01 -0.72017992541E-02  0.70686784892E-02  0.10294548555E+01  0.10293530831E+01 0.  0.
     999903    2    3    3    0    0  0.11849007633E+00  0.43626952037E-01  0.34040444069E-01  0.13820968463E+00  0.44720867168E-01 0.  0.
         14    1    1    2    0    0  0.10377749305E-01  0.72017992541E-02 -0.70686784892E-02  0.14475144515E-01  0.00000000000E+00 0.  1.
     999901    1    3    3    0    0 -0.12886782563E+00 -0.50828751291E-01 -0.26971765579E-01  0.89124517086E+00  0.88000000000E+00 0.  1.
        -11    1    4    4    0    0  0.24272019105E-01  0.19712291691E-01 -0.80335680807E-02  0.32287841245E-01  0.51100000000E-03 0.  1.
         11    1    4    4    0    0  0.94218057221E-01  0.23914660346E-01  0.42074012149E-01  0.10592184338E+00  0.51100000000E-03 0. -1.
</event>
<event>
 8    1  0.2824193E+004  0.1043930E+01  0.7957747E-01            NaN
         13   -1    0    0    0    0  0.00000000000E+00  0.00000000000E+00  0.74505805969E-08  0.10566000000E+00  0.10566000000E+00 0.  1.
     999900   -1    0    0    0    0 -0.00000000000E+00 -0.00000000000E+00 -0.74505805969E-08  0.93827000000E+00  0.93827000000E+00 0. -1.
     999902    2    1    2    0    0 -0.13277534471E-02 -0.11462393122E-01  0.10831232248E-01  0.10281039147E+01  0.10279820983E+01 0.  0.
     999903    2    3    3    0    0  0.10676420768E-01  0.49013993899E-01  0.12162161181E+00  0.13901674132E+00  0.44916370620E-01 0.  0.
         14    1    1    2    0    0  0.13277534471E-02  0.11462393122E-01 -0.10831232248E-01  0.15826085344E-01  0.00000000000E+00 0. -1.
     999901    1    3    3    0    0 -0.12004174215E-01 -0.60476387021E-01 -0.11079037956E+00  0.88908717334E+00  0.88000000000E+00 0. -1.
        -11    1    4    4    0    0 -0.73022725744E-02  0.43141233027E-01  0.58085428285E-01  0.72723223745E-01  0.51100000000E-03 0. -1.
         11    1    4    4    0    0  0.17978693342E-01  0.58727608719E-02  0.63536183526E-01  0.66293517576E-01  0.51100000000E-03 0.  1.
</event>
<event>
 8    1  0.2824193E+004  0.1043930E+01  0.7957747E-01            NaN
         13   -1    0    0    0    0  0.00000000000E+00  0.00000000000E+00  0.74505805969E-08  0.10566000000E+00  0.10566000000E+00 0.  1.
     999900   -1    0    0    0    0 -0.00000000000E+00 -0.00000000000E+00 -0.74505805969E-08  0.93827000000E+00  0.93827000000E+00 0.  1.
     999902    2    1    2    0    0 -0.10385914250E-02  0.10689005643E-01  0.79913534855E-02  0.10305436172E+01  0.10304566714E+01 0.  0.
     999903    2    3    3    0    0 -0.11756456443E+00 -0.51729433332E-01  0.34000759027E-01  0.14029036499E+00  0.45033030229E-01 0.  0.
         14    1    1    2    0    0  0.10385914250E-02 -0.10689005643E-01 -0.79913534855E-02  0.13386382794E-01  0.00000000000E+00 0. -1.
     999901    1    3    3    0    0  0.11652597300E+00  0.62418438975E-01 -0.26009405541E-01  0.89025325222E+00  0.88000000000E+00 0.  1.
        -11    1    4    4    0    0 -0.73459314880E-01 -0.20045655281E-01  0.39360479137E-01  0.85718187552E-01  0.51100000000E-03 0.  1.
         11    1    4    4    0    0 -0.44105249549E-01 -0.31683778051E-01 -0.53597201100E-02  0.54572177435E-01  0.51100000000E-03 0. -1.
</event>
<event>
 8    1  0.2824193E+004  0.1043930E+01  0.7957747E-01            NaN
         13   -1    0    0    0    0  0.00000000000E+00  0.00000000000E+00  0.74505805969E-08  0.10566000000E+00  0.10566000000E+00 0. -1.
     999900   -1    0    0    0    0 -0.00000000000E+00 -0.00000000000E+00 -0.74505805969E-08  0.93827000000E+00  0.93827000000E+00 0.  1.
     999902    2    1    2    0    0 -0.12543044516E-01  0.16930318022E-02  0.66691844406E-02  0.10296236258E+01  0.10295242292E+01 0.  0.
     999903    2    3    3    0    0  0.36920489458E-01 -0.12383153065E+00  0.27367997212E-01  0.13910046615E+00  0.43618366404E-01 0.  0.
         14    1    1    2    0    0  0.12543044516E-01 -0.16930318022E-02 -0.66691844406E-02  0.14306374227E-01  0.00000000000E+00 0.  1.
     999901    1    3    3    0    0 -0.49463533974E-01  0.12552456245E+00 -0.20698812772E-01  0.89052315962E+00  0.88000000000E+00 0.  1.
        -11    1    4    4    0    0  0.20217036692E-01 -0.75472001137E-01  0.37932673897E-01  0.86855629629E-01  0.51100000000E-03 0.  1.
         11    1    4    4    0    0  0.16703452766E-01 -0.48359529511E-01 -0.10564676685E-01  0.52244836523E-01  0.51100000000E-03 0. -1.
</event>
<event>
 8    1  0.2824193E+004  0.1043930E+01  0.7957747E-01            NaN
         13   -1    0    0    0    0  0.00000000000E+00  0.00000000000E+00  0.74505805969E-08  0.10566000000E+00  0.10566000000E+00 0. -1.
     999900   -1    0    0    0    0 -0.00000000000E+00 -0.00000000000E+00 -0.74505805969E-08  0.93827000000E+00  0.93827000000E+00 0. -1.
     999902    2    1    2    0    0  0.15577619206E-01 -0.15247849488E-02 -0.11282521238E-02  0.10282373220E+01  0.10281175664E+01 0.  0.
     999903    2    3    3    0    0  0.26445718626E-01  0.12736684185E+00  0.16502539084E-01  0.13860705509E+00  0.44920969341E-01 0.  0.
         14    1    1    2    0    0 -0.15577619206E-01  0.15247849488E-02  0.11282521238E-02  0.15692677978E-01  0.00000000000E+00 0.  1.
     999901    1    3    3    0    0 -0.10868099419E-01 -0.12889162680E+00 -0.17630791208E-01  0.88963026693E+00  0.88000000000E+00 0.  1.
        -11    1    4    4    0    0 -0.97860195390E-02  0.26954034735E-01 -0.64969046181E-02  0.29406751904E-01  0.51100000000E-03 0. -1.
         11    1    4    4    0    0  0.36231738165E-01  0.10041280712E+00  0.22999443702E-01  0.10920030318E+00  0.51100000000E-03 0.  1.
</event>
<event>
 7    1  0.2824193E+004  0.1043930E+01  0.7957747E-01            NaN
         13   -1    0    0    0    0  0.00000000000E+00  0.00000000000E+00  0.74505805969E-08  0.10566000000E+00  0.10566000000E+00 0. -1.
     999900   -1    0    0    0    0 -0.00000000000E+00 -0.00000000000E+00 -0.74505805969E-08  0.93827000000E+00  0.93827000000E+00 0. -1.
     999903    2    1    2    0    0  0.41711811284E-02  0.58105210548E-01  0.83864925996E-01  0.11145159060E+00  0.44660015554E-01 0.  0.
         14    1    1    2    0    0  0.19991126258E-01  0.38016920924E-01 -0.77857549228E-02  0.43652598838E-01  0.00000000000E+00 0.  1.
     999901    1    1    2    0    0 -0.24162307387E-01 -0.96122131472E-01 -0.76079171073E-01  0.88882581057E+00  0.88000000000E+00 0. -1.
        -11    1    3    3    0    0 -0.16940067395E-01  0.44409748502E-01  0.47270832689E-01  0.67037186617E-01  0.51100000000E-03 0. -1.
         11    1    3    3    0    0  0.21111248524E-01  0.13695462046E-01  0.36594093306E-01  0.44414403979E-01  0.51100000000E-03 0.  1.
</event>
<event>
 8    1  0.2824193E+004  0.1043930E+01  0.7957747E-01            NaN
         13   -1    0    0    0    0  0.00000000000E+00  0.00000000000E+00  0.74505805969E-08  0.10566000000E+00  0.10566000000E+00 0. -1.
     999900   -1    0    0    0    0 -0.00000000000E+00 -0.00000000000E+00 -0.74505805969E-08  0.93827000000E+00  0.93827000000E+00 0. -1.
     999902    2    1    2    0    0  0.60602231751E-02 -0.57281173862E-02  0.10746287851E-01  0.10303277819E+01  0.10302379909E+01 0.  0.
     999903    2    3    3    0    0  0.62176455621E-01 -0.64709414214E-01  0.10281225951E+00  0.14178742379E+00  0.38471975743E-01 0.  0.
         14    1    1    2    0    0 -0.60602231751E-02  0.57281173862E-02 -0.10746287851E-01  0.13602218065E-01  0.00000000000E+00 0. -1.
     999901    1    3    3    0    0 -0.56116232446E-01  0.58981296828E-01 -0.92065971657E-01  0.88854035815E+00  0.88000000000E+00 0. -1.
        -11    1    4    4    0    0  0.44645732252E-01 -0.66344439308E-01  0.86050902409E-01  0.11747274136E+00  0.51100000000E-03 0.  1.
         11    1    4    4    0    0  0.17530723369E-01  0.16350250944E-02  0.16761357099E-01  0.24314682431E-01  0.51100000000E-03 0. -1.
</event>
<event>
 8    1  0.2824193E+004  0.1043930E+01  0.7957747E-01            NaN
         13   -1    0    0    0    0  0.00000000000E+00  0.00000000000E+00  0.74505805969E-08  0.10566000000E+00  0.10566000000E+00 0. -1.
     999900   -1    0    0    0    0 -0.00000000000E+00 -0.00000000000E+00 -0.74505805969E-08  0.93827000000E+00  0.93827000000E+00 0.  1.
     999902    2    1    2    0    0  0.72934716648E-02 -0.69574626504E-02  0.93848031097E-02  0.10301577255E+01  0.10300656600E+01 0.  0.
     999903    2    3    3    0    0  0.33342910686E-01 -0.22378016081E-01  0.12793040461E+00  0.14169307996E+00  0.45806278908E-01 0.  0.
         14    1    1    2    0    0 -0.72934716648E-02  0.69574626504E-02 -0.93848031097E-02  0.13772274499E-01  0.00000000000E+00 0.  1.
     999901    1    3    3    0    0 -0.26049439022E-01  0.15420553430E-01 -0.11854560150E+00  0.88846464554E+00  0.88000000000E+00 0.  1.
        -11    1    4    4    0    0 -0.87913254987E-02 -0.15236700073E-01  0.46695758172E-01  0.49901897613E-01  0.51100000000E-03 0.  1.
         11    1    4    4    0    0  0.42134236185E-01 -0.71413160075E-02  0.81234646441E-01  0.91791182346E-01  0.51100000000E-03 0. -1.
</event>
<event>
 8    1  0.2824193E+004  0.1043930E+01  0.7957747E-01            NaN
         13   -1    0    0    0    0  0.00000000000E+00  0.00000000000E+00  0.74505805969E-08  0.10566000000E+00  0.10566000000E+00 0.  1.
     999900   -1    0    0    0    0 -0.00000000000E+00 -0.00000000000E+00 -0.74505805969E-08  0.93827000000E+00  0.93827000000E+00 0.  1.
     999902    2    1    2    0    0 -0.35760086808E-02 -0.13114608548E-01 -0.37220714086E-02  0.10298362208E+01  0.10297397764E+01 0.  0.
     999903    2    3    3    0    0  0.54069720624E-01  0.98229994465E-01 -0.67922634225E-01  0.13863345884E+00  0.45089745721E-01 0.  0.
         14    1    1    2    0    0  0.35760086808E-02  0.13114608548E-01  0.37220714086E-02  0.14093779160E-01  0.00000000000E+00 0.  1.
     999901    1    3    3    0    0 -0.57645729305E-01 -0.11134460301E+00  0.64200562816E-01  0.89120276200E+00  0.88000000000E+00 0. -1.
        -11    1    4    4    0    0  0.23414134183E-01  0.45327411208E-01 -0.57038289116E-01  0.76527272476E-01  0.51100000000E-03 0. -1.
         11    1    4    4    0    0  0.30655586441E-01  0.52902583257E-01 -0.10884345109E-01  0.62106186365E-01  0.51100000000E-03 0.  1.
</event>
<event>
 8    1  0.2824193E+004  0.1043930E+01  0.7957747E-01            NaN
         13   -1    0    0    0    0  0.00000000000E+00  0.00000000000E+00  0.74505805969E-08  0.10566000000E+00  0.10566000000E+00 0.  1.
     999900   -1    0    0    0    0 -0.00000000000E+00 -0.00000000000E+00 -0.74505805969E-08  0.93827000000E+00  0.93827000000E+00 0.  1.
     999902    2    1    2    0    0 -0.32586332926E-02  0.13496992941E-01  0.16504741609E-02  0.10299474547E+01  0.10298525369E+01 0.  0.
     999903    2    3    3    0    0 -0.65499205407E-01  0.74330972423E-01  0.90009106835E-01  0.14125070669E+00  0.45109682512E-01 0.  0.
         14    1    1    2    0    0  0.32586332926E-02 -0.13496992941E-01 -0.16504741609E-02  0.13982545346E-01  0.00000000000E+00 0. -1.
     999901    1    3    3    0    0  0.62240572115E-01 -0.60833979482E-01 -0.88358632674E-01  0.88869674797E+00  0.88000000000E+00 0.  1.
        -11    1    4    4    0    0 -0.39030333056E-01  0.33532951240E-01  0.18324318302E-01  0.54624788142E-01  0.51100000000E-03 0.  1.
         11    1    4    4    0    0 -0.26468872351E-01  0.40798021183E-01  0.71684788533E-01  0.86625918546E-01  0.51100000000E-03 0. -1.
</event>
<event>
 8    1  0.2824193E+004  0.1043930E+01  0.7957747E-01            NaN
         13   -1    0    0    0    0  0.00000000000E+00  0.00000000000E+00  0.74505805969E-08  0.10566000000E+00  0.10566000000E+00 0. -1.
     999900   -1    0    0    0    0 -0.00000000000E+00 -0.00000000000E+00 -0.74505805969E-08  0.93827000000E+00  0.93827000000E+00 0.  1.
     999902    2    1    2    0    0 -0.13324207096E-01 -0.55951679402E-02 -0.59491525657E-02  0.10283020502E+01  0.10281832879E+01 0.  0.
     999903    2    3    3    0    0  0.86553813441E-01  0.47117581570E-01  0.83416186765E-01  0.13659558682E+00  0.44592207942E-01 0.  0.
         14    1    1    2    0    0  0.13324207096E-01  0.55951679402E-02  0.59491525657E-02  0.15627949810E-01  0.00000000000E+00 0. -1.
     999901    1    3    3    0    0 -0.99878020537E-01 -0.52712749510E-01 -0.89365339331E-01  0.89170646337E+00  0.88000000000E+00 0.  1.
        -11    1    4    4    0    0  0.34876863721E-01  0.65020403868E-03  0.11867540665E-01  0.36849939359E-01  0.51100000000E-03 0. -1.
         11    1    4    4    0    0  0.51676949720E-01  0.46467377532E-01  0.71548646101E-01  0.99745647458E-01  0.51100000000E-03 0.  1.
</event>
<event>
 8    1  0.2824193E+004  0.1043930E+01  0.7957747E-01            NaN
         13   -1    0    0    0    0  0.00000000000E+00  0.00000000000E+00  0.74505805969E-08  0.10566000000E+00  0.10566000000E+00 0.  1.
     999900   -1    0    0    0    0 -0.00000000000E+00 -0.00000000000E+00 -0.74505805969E-08  0.93827000000E+00  0.93827000000E+00 0. -1.
     999902    2    1    2    0    0 -0.98335245992E-02 -0.69259636234E-03 -0.81743152177E-02  0.10311238560E+01  0.10310443293E+01 0.  0.
     999903    2    3    3    0    0  0.13203535948E+00 -0.43938706040E-02 -0.92401528117E-02  0.13975321717E+00  0.44642345723E-01 0.  0.
         14    1    1    2    0    0  0.98335245992E-02  0.69259636234E-03  0.81743152177E-02  0.12806144035E-01  0.00000000000E+00 0.  1.
     999901    1    3    3    0    0 -0.14186888408E+00  0.37012742417E-02  0.10658375940E-02  0.89137063880E+00  0.88000000000E+00 0.  1.
        -11    1    4    4    0    0  0.71150707497E-01  0.80656718928E-02  0.14791888006E-01  0.73120033590E-01  0.51100000000E-03 0.  1.
         11    1    4    4    0    0  0.60884651987E-01 -0.12459542497E-01 -0.24032040817E-01  0.66633183577E-01  0.51100000000E-03 0. -1.
</event>
<event>
 7    1  0.2824193E+004  0.1043930E+01  0.7957747E-01            NaN
         13   -1    0    0    0    0  0.00000000000E+00  0.00000000000E+00  0.74505805969E-08  0.10566000000E+00  0.10566000000E+00 0. -1.
     999900   -1    0    0    0    0 -0.00000000000E+00 -0.00000000000E+00 -0.74505805969E-08  0.93827000000E+00  0.93827000000E+00 0.  1.
     999902    2    1    2    0    0 -0.51881346781E-02 -0.16067224155E-02 -0.12845276779E-01  0.10299836946E+01  0.10298892716E+01 0.  0.
         14    1    1    2    0    0  0.51881346781E-02  0.16067224155E-02  0.12845276779E-01  0.13946305385E-01  0.00000000000E+00 0. -1.
     999901    1    3    3    0    0 -0.62598560008E-01  0.89026336518E-01  0.72853127836E-01  0.88969199532E+00  0.88000000000E+00 0. -1.
        -11    1    3    3    0    0 -0.17907030323E-02 -0.99705988488E-02 -0.13592789467E-01  0.16960085650E-01  0.51100000000E-03 0. -1.
         11    1    3    3    0    0  0.59201128363E-01 -0.80662460085E-01 -0.72105615148E-01  0.12333161364E+00  0.51100000000E-03 0.  1.
</event>
<event>
 8    1  0.2824193E+004  0.1043930E+01  0.7957747E-01            NaN
         13   -1    0    0    0    0  0.00000000000E+00  0.00000000000E+00  0.74505805969E-08  0.10566000000E+00  0.10566000000E+00 0. -1.
     999900   -1    0    0    0    0 -0.00000000000E+00 -0.00000000000E+00 -0.74505805969E-08  0.93827000000E+00  0.93827000000E+00 0.  1.
     999902    2    1    2    0    0  0.44928014406E-02  0.11188026907E-01  0.78265451768E-02  0.10295559950E+01  0.10294556497E+01 0.  0.
     999903    2    3    3    0    0  0.47512633738E-02  0.13321036201E+00  0.92103031614E-02  0.14113524339E+00  0.45461546308E-01 0.  0.
         14    1    1    2    0    0 -0.44928014406E-02 -0.11188026907E-01 -0.78265451768E-02  0.14374005018E-01  0.00000000000E+00 0.  1.
     999901    1    3    3    0    0 -0.25846193316E-03 -0.12202233510E+00 -0.13837579846E-02  0.88842075159E+00  0.88000000000E+00 0.  1.
        -11    1    4    4    0    0 -0.80294302650E-02  0.58412314114E-01  0.24284160322E-01  0.63768736494E-01  0.51100000000E-03 0. -1.
         11    1    4    4    0    0  0.12780693639E-01  0.74798047897E-01 -0.15073857161E-01  0.77366506899E-01  0.51100000000E-03 0.  1.
</event>
<event>
 8    1  0.2824193E+004  0.1043930E+01  0.7957747E-01            NaN
         13   -1    0    0    0    0  0.00000000000E+00  0.00000000000E+00  0.74505805969E-08  0.10566000000E+00  0.10566000000E+00 0. -1.
     999900   -1    0    0    0    0 -0.00000000000E+00 -0.00000000000E+00 -0.74505805969E-08  0.93827000000E+00  0.93827000000E+00 0.  1.
     999902    2    1    2    0    0  0.12504148597E-01  0.48078685881E-02  0.32192309319E-02  0.10301520183E+01  0.10300598759E+01 0.  0.
     999903    2    3    3    0    0 -0.10433054360E+00  0.80042308556E-01 -0.92971732658E-02  0.13915974748E+00  0.44579865400E-01 0.  0.
         14    1    1    2    0    0 -0.12504148597E-01 -0.48078685881E-02 -0.32192309319E-02  0.13777981720E-01  0.00000000000E+00 0.  1.
     999901    1    3    3    0    0  0.11683469220E+00 -0.75234439968E-01  0.12516404198E-01  0.89099227080E+00  0.88000000000E+00 0. -1.
        -11    1    4    4    0    0 -0.94428896919E-01  0.60581323930E-01 -0.21361604623E-01  0.11420811116E+00  0.51100000000E-03 0. -1.
         11    1    4    4    0    0 -0.99016466852E-02  0.19460984626E-01  0.12064431357E-01  0.24951636312E-01  0.51100000000E-03 0.  1.
</event>
<event>
 8    1  0.2824193E+004  0.1043930E+01  0.7957747E-01            NaN
         13   -1    0    0    0    0  0.00000000000E+00  0.00000000000E+00  0.74505805969E-08  0.10566000000E+00  0.10566000000E+00 0. -1.
     999900   -1    0    0    0    0 -0.00000000000E+00 -0.00000000000E+00 -0.74505805969E-08  0.93827000000E+00  0.93827000000E+00 0. -1.
     999902    2    1    2    0    0  0.61030884013E-02 -0.95205332240E-02  0.71021200773E-02  0.10305760362E+01  0.10304895137E+01 0.  0.
     999903    2    3    3    0    0 -0.56309421110E-01  0.17819144338E-01  0.12092244237E+00  0.14063342841E+00  0.40831988754E-01 0.  0.
         14    1    1    2    0    0 -0.61030884013E-02  0.95205332240E-02 -0.71021200773E-02  0.13353963850E-01  0.00000000000E+00 0. -1.
     999901    1    3    3    0    0  0.62412509512E-01 -0.27339677562E-01 -0.11382032229E+00  0.88994260774E+00  0.88000000000E+00 0. -1.
        -11    1    4    4    0    0 -0.51164994409E-01  0.73090327622E-02  0.62763626099E-01  0.81306903120E-01  0.51100000000E-03 0. -1.
         11    1    4    4    0    0 -0.51444267010E-02  0.10510111576E-01  0.58158816271E-01  0.59326525286E-01  0.51100000000E-03 0.  1.
</event>
<event>
 8    1  0.2824193E+004  0.1043930E+01  0.7957747E-01            NaN
         13   -1    0    0    0    0  0.00000000000E+00  0.00000000000E+00  0.74505805969E-08  0.10566000000E+00  0.10566000000E+00 0. -1.
     999900   -1    0    0    0    0 -0.00000000000E+00 -0.00000000000E+00 -0.74505805969E-08  0.93827000000E+00  0.93827000000E+00 0.  1.
     999902    2    1    2    0    0  0.32012513914E-02  0.83761151495E-02 -0.10885591494E-01  0.10298266877E+01  0.10297301119E+01 0.  0.
     999903    2    3    3    0    0  0.53655802000E-01 -0.84113458460E-01  0.85411433053E-01  0.13832621107E+00  0.43416687931E-01 0.  0.
         14    1    1    2    0    0 -0.32012513914E-02 -0.83761151495E-02  0.10885591494E-01  0.14103312293E-01  0.00000000000E+00 0. -1.
     999901    1    3    3    0    0 -0.50454550608E-01  0.92489573610E-01 -0.96297024547E-01  0.89150047663E+00  0.88000000000E+00 0. -1.
        -11    1    4    4    0    0  0.26417654143E-01 -0.37182733423E-01  0.12239273489E-01  0.47228265390E-01  0.51100000000E-03 0. -1.
         11    1    4    4    0    0  0.27238147857E-01 -0.46930725038E-01  0.73172159564E-01  0.91097945682E-01  0.51100000000E-03 0.  1.
</event>
<event>
 8    1  0.2824193E+004  0.1043930E+01  0.7957747E-01            NaN
         13   -1    0    0    0    0  0.00000000000E+00  0.00000000000E+00  0.74505805969E-08  0.10566000000E+00  0.10566000000E+00 0.  1.
     999900   -1    0    0    0    0 -0.00000000000E+00 -0.00000000000E+00 -0.74505805969E-08  0.93827000000E+00  0.93827000000E+00 0.  1.
     999902    2    1    2    0    0  0.39799436217E-02  0.88883688978E-02 -0.36585145939E-02  0.10335267418E+01  0.10334743820E+01 0.  0.
     999903    2    3    3    0    0 -0.11298410575E-01  0.13095167507E+00 -0.38034452626E-01  0.14430540602E+00  0.45841415077E-01 0.  0.
         14    1    1    2    0    0 -0.39799436217E-02 -0.88883688978E-02  0.36585145939E-02  0.10403258236E-01  0.00000000000E+00 0.  1.
     999901    1    3    3    0    0  0.15278354197E-01 -0.12206330617E+00  0.34375938032E-01  0.88922133574E+00  0.88000000000E+00 0.  1.
        -11    1    4    4    0    0 -0.26643610165E-01  0.10848384423E+00 -0.26895602689E-01  0.11490109219E+00  0.51100000000E-03 0.  1.
         11    1    4    4    0    0  0.15345199590E-01  0.22467830836E-01 -0.11138849937E-01  0.29404313831E-01  0.51100000000E-03 0. -1.
</event>
<event>
 7    1  0.2824193E+004  0.1043930E+01  0.7957747E-01            NaN
         13   -1    0    0    0    0  0.00000000000E+00  0.00000000000E+00  0.74505805969E-08  0.10566000000E+00  0.10566000000E+00 0. -1.
     999900   -1    0    0    0    0 -0.00000000000E+00 -0.00000000000E+00 -0.74505805969E-08  0.93827000000E+00  0.93827000000E+00 0.  1.
     999903    2    1    2    0    0 -0.32516956698E-01  0.30231133914E-01 -0.87506600953E-01  0.10740514979E+00  0.43671352862E-01 0.  0.
         14    1    1    2    0    0 -0.26229247601E-01 -0.21713780439E-01  0.41005298814E-01  0.53300058363E-01  0.00000000000E+00 0. -1.
     999901    1    1    2    0    0  0.58746204299E-01 -0.85173534752E-02  0.46501302139E-01  0.88322479185E+00  0.88000000000E+00 0. -1.
        -11    1    3    3    0    0 -0.30653058918E-01  0.30218429215E-01 -0.36717084324E-01  0.56578873155E-01  0.51100000000E-03 0. -1.
         11    1    3    3    0    0 -0.18638977799E-02  0.12704699622E-04 -0.50789516629E-01  0.50826276637E-01  0.51100000000E-03 0.  1.
</event>
<event>
 8    1  0.2824193E+004  0.1043930E+01  0.7957747E-01            NaN
         13   -1    0    0    0    0  0.00000000000E+00  0.00000000000E+00  0.74505805969E-08  0.10566000000E+00  0.10566000000E+00 0.  1.
     999900   -1    0    0    0    0 -0.00000000000E+00 -0.00000000000E+00 -0.74505805969E-08  0.93827000000E+00  0.93827000000E+00 0.  1.
     999902    2    1    2    0    0 -0.35983993797E-02  0.13013958043E-01  0.22962090348E-02  0.10302338634E+01  0.10301428198E+01 0.  0.
     999903    2    3    3    0    0 -0.14241850151E-01  0.83116279563E-01  0.10467128615E+00  0.14146602254E+00  0.44106815383E-01 0.  0.
         14    1    1    2    0    0  0.35983993797E-02 -0.13013958043E-01 -0.22962090348E-02  0.13696136607E-01  0.00000000000E+00 0.  1.
     999901    1    3    3    0    0  0.10643450771E-01 -0.70102321521E-01 -0.10237507712E+00  0.88876784086E+00  0.88000000000E+00 0.  1.
        -11    1    4    4    0    0  0.77502174582E-03  0.23003256624E-01  0.62257032929E-01  0.66377328540E-01  0.51100000000E-03 0. -1.
         11    1    4    4    0    0 -0.15016871897E-01  0.60113022940E-01  0.42414253223E-01  0.75088693996E-01  0.51100000000E-03 0.  1.
</event>
<event>
 8    1  0.2824193E+004  0.1043930E+01  0.7957747E-01            NaN
         13   -1    0    0    0    0  0.00000000000E+00  0.00000000000E+00  0.74505805969E-08  0.10566000000E+00  0.10566000000E+00 0.  1.
     999900   -1    0    0    0    0 -0.00000000000E+00 -0.00000000000E+00 -0.74505805969E-08  0.93827000000E+00  0.93827000000E+00 0. -1.
     999902    2    1    2    0    0 -0.91563528286E-02  0.97766799070E-02 -0.39317529517E-02  0.10299700233E+01  0.10298754138E+01 0.  0.
     999903    2    3    3    0    0 -0.97629851903E-01  0.83301781121E-01  0.38797528309E-01  0.14145480567E+00  0.45093670559E-01 0.  0.
         14    1    1    2    0    0  0.91563528286E-02 -0.97766799070E-02  0.39317529517E-02  0.13959976662E-01  0.00000000000E+00 0. -1.
     999901    1    3    3    0    0  0.88473499074E-01 -0.73525101214E-01 -0.42729281261E-01  0.88851521767E+00  0.88000000000E+00 0. -1.
        -11    1    4    4    0    0 -0.35763010377E-01  0.52998156776E-01  0.33950707903E-01  0.72392742875E-01  0.51100000000E-03 0. -1.
         11    1    4    4    0    0 -0.61866841525E-01  0.30303624345E-01  0.48468204066E-02  0.69062062797E-01  0.51100000000E-03 0.  1.
</event>
<event>
 8    1  0.2824193E+004  0.1043930E+01  0.7957747E-01            NaN
         13   -1    0    0    0    0  0.00000000000E+00  0.00000000000E+00  0.74505805969E-08  0.10566000000E+00  0.10566000000E+00 0. -1.
     999900   -1    0    0    0    0 -0.00000000000E+00 -0.00000000000E+00 -0.74505805969E-08  0.93827000000E+00  0.93827000000E+00 0. -1.
     999902    2    1    2    0    0 -0.14367376180E-01  0.18035708274E-02  0.22171224808E-02  0.10292811093E+01  0.10291768614E+01 0.  0.
     999903    2    3    3    0    0 -0.34467235732E-01  0.12152576092E+00  0.41226342287E-01  0.14009095734E+00  0.44377518213E-01 0.  0.
         14    1    1    2    0    0  0.14367376180E-01 -0.18035708274E-02 -0.22171224808E-02  0.14648890679E-01  0.00000000000E+00 0.  1.
     999901    1    3    3    0    0  0.20099859552E-01 -0.11972219009E+00 -0.39009219806E-01  0.88919015198E+00  0.88000000000E+00 0. -1.
        -11    1    4    4    0    0 -0.44176181458E-01  0.11085312275E+00  0.34920952745E-01  0.12433697718E+00  0.51100000000E-03 0. -1.
         11    1    4    4    0    0  0.97089457262E-02  0.10672638172E-01  0.63053895412E-02  0.15753980161E-01  0.51100000000E-03 0.  1.
</event>
<event>
 8    1  0.2824193E+004  0.1043930E+01  0.7957747E-01            NaN
         13   -1    0    0    0    0  0.00000000000E+00  0.00000000000E+00  0.74505805969E-08  0.10566000000E+00  0.10566000000E+00 0.  1.
     999900   -1    0    0    0    0 -0.00000000000E+00 -0.00000000000E+00 -0.74505805969E-08  0.93827000000E+00  0.93827000000E+00 0.  1.
     999902    2    1    2    0    0 -0.92800397098E-02 -0.10342361203E-01 -0.55057316667E-02  0.10289835404E+01  0.10288749826E+01 0.  0.
     999903    2    3    3    0    0  0.41170428020E-01 -0.12600925526E-01 -0.12522561068E+00  0.13944253507E+00  0.43691870491E-01 0.  0.
         14    1    1    2    0    0  0.92800397098E-02  0.10342361203E-01  0.55057316667E-02  0.14946459563E-01  0.00000000000E+00 0. -1.
     999901    1    3    3    0    0 -0.50450467730E-01  0.22585643225E-02  0.11971987902E+00  0.88954100537E+00  0.88000000000E+00 0. -1.
        -11    1    4    4    0    0  0.28696696389E-01 -0.91162566429E-02 -0.12256570851E+00  0.12621101593E+00  0.51100000000E-03 0. -1.
         11    1    4    4    0    0  0.12473731631E-01 -0.34846688828E-02 -0.26599021733E-02  0.13231519134E-01  0.51100000000E-03 0.  1.
</event>
<event>
 7    1  0.2824193E+004  0.1043930E+01  0.7957747E-01            NaN
         13   -1    0    0    0    0  0.00000000000E+00  0.00000000000E+00  0.74505805969E-08  0.10566000000E+00  0.10566000000E+00 0.  1.
     999900   -1    0    0    0    0 -0.00000000000E+00 -0.00000000000E+00 -0.74505805969E-08  0.93827000000E+00  0.93827000000E+00 0.  1.
     999903    2    1    2    0    0 -0.91647453218E-01  0.35769674057E-01  0.32165804799E-01  0.11211080437E+00  0.43075145902E-01 0.  0.
         14    1    1    2    0    0  0.27354550590E-01  0.11830461020E-01  0.34606985822E-01  0.45671377400E-01  0.00000000000E+00 0.  1.
     999901    1    1    2    0    0  0.64292902627E-01 -0.47600135077E-01 -0.66772790621E-01  0.88614781823E+00  0.88000000000E+00 0.  1.
        -11    1    3    3    0    0 -0.22058239986E-01  0.12244823039E-01 -0.10305160794E-01  0.27257276139E-01  0.51100000000E-03 0.  1.
         11    1    3    3    0    0 -0.69589213232E-01  0.23524851019E-01  0.42470965593E-01  0.84853528230E-01  0.51100000000E-03 0. -1.
</event>
<event>
 8    1  0.2824193E+004  0.1043930E+01  0.7957747E-01            NaN
         13   -1    0    0    0    0  0.00000000000E+00  0.00000000000E+00  0.74505805969E-08  0.10566000000E+00  0.10566000000E+00 0.  1.
     999900   -1    0    0    0    0 -0.00000000000E+00 -0.00000000000E+00 -0.74505805969E-08  0.93827000000E+00  0.93827000000E+00 0.  1.
     999902    2    1    2    0    0  0.15286450333E-01  0.23211329814E-02 -0.43255898625E-03  0.10284622811E+01  0.10283459599E+01 0.  0.
     999903    2    3    3    0    0  0.12906083037E+00  0.10456090105E-01 -0.29551573213E-01  0.14062293519E+00  0.46211326145E-01 0.  0.
         14    1    1    2    0    0 -0.15286450333E-01 -0.23211329814E-02  0.43255898625E-03  0.15467718946E-01  0.00000000000E+00 0.  1.
     999901    1    3    3    0    0 -0.11377438004E+00 -0.81349571238E-02  0.29119014227E-01  0.88783934587E+00  0.88000000000E+00 0.  1.
        -11    1    4    4    0    0  0.94689841347E-01 -0.12326549418E-01 -0.13820185049E-01  0.96485068848E-01  0.51100000000E-03 0. -1.
         11    1    4    4    0    0  0.34370989026E-01  0.22782639523E-01 -0.15731388164E-01  0.44137866338E-01  0.51100000000E-03 0.  1.
</event>
<event>
 8    1  0.2824193E+004  0.1043930E+01  0.7957747E-01            NaN
         13   -1    0    0    0    0  0.00000000000E+00  0.00000000000E+00  0.74505805969E-08  0.10566000000E+00  0.10566000000E+00 0.  1.
     999900   -1    0    0    0    0 -0.00000000000E+00 -0.00000000000E+00 -0.74505805969E-08  0.93827000000E+00  0.93827000000E+00 0.  1.
     999902    2    1    2    0    0 -0.88830093350E-02 -0.14093252370E-01  0.71701561067E-02  0.10257933312E+01  0.10256329848E+01 0.  0.
     999903    2    3    3    0    0  0.54087351342E-01  0.10536740304E+00  0.27022867561E-01  0.13527087517E+00  0.59499942013E-01 0.  0.
         14    1    1    2    0    0  0.88830093350E-02  0.14093252370E-01 -0.71701561067E-02  0.18136668817E-01  0.00000000000E+00 0. -1.
     999901    1    3    3    0    0 -0.62970360677E-01 -0.11946065541E+00 -0.19852711454E-01  0.89052245601E+00  0.88000000000E+00 0.  1.
        -11    1    4    4    0    0  0.41839955867E-01  0.10074665127E+00  0.40603448286E-01  0.11640176452E+00  0.51100000000E-03 0. -1.
         11    1    4    4    0    0  0.12247395475E-01  0.46207517625E-02 -0.13580580725E-01  0.18869110647E-01  0.51100000000E-03 0.  1.
</event>
<event>
 8    1  0.2824193E+004  0.1043930E+01  0.7957747E-01            NaN
         13   -1    0    0    0    0  0.00000000000E+00  0.00000000000E+00  0.74505805969E-08  0.10566000000E+00  0.10566000000E+00 0. -1.
     999900   -1    0    0    0    0 -0.00000000000E+00 -0.00000000000E+00 -0.74505805969E-08  0.93827000000E+00  0.93827000000E+00 0. -1.
     999902    2    1    2    0    0 -0.13184730485E-01  0.31926257608E-02  0.48131805030E-02  0.10295356718E+01  0.10294350406E+01 0.  0.
     999903    2    3    3    0    0  0.86301448051E-01  0.96691025104E-01  0.21849514869E-01  0.13884510429E+00  0.44760109624E-01 0.  0.
         14    1    1    2    0    0  0.13184730485E-01 -0.31926257608E-02 -0.48131805030E-02  0.14394328180E-01  0.00000000000E+00 0.  1.
     999901    1    3    3    0    0 -0.99486178536E-01 -0.93498399343E-01 -0.17036334366E-01  0.89069056753E+00  0.88000000000E+00 0. -1.
        -11    1    4    4    0    0  0.65479921641E-01  0.40035027596E-01  0.12528639016E-01  0.77766647667E-01  0.51100000000E-03 0. -1.
         11    1    4    4    0    0  0.20821526410E-01  0.56655997508E-01  0.93208758528E-02  0.61078456622E-01  0.51100000000E-03 0.  1.
</event>
<event>
 8    1  0.2824193E+004  0.1043930E+01  0.7957747E-01            NaN
         13   -1    0    0    0    0  0.00000000000E+00  0.00000000000E+00  0.74505805969E-08  0.10566000000E+00  0.10566000000E+00 0. -1.
     999900   -1    0    0    0    0 -0.00000000000E+00 -0.00000000000E+00 -0.74505805969E-08  0.93827000000E+00  0.93827000000E+00 0. -1.
     999902    2    1    2    0    0  0.11481545065E-01  0.55579447381E-02  0.54283740196E-02  0.10300669602E+01  0.10299736689E+01 0.  0.
     999903    2    3    3    0    0 -0.26087954382E-01 -0.93296352013E-01  0.89473893778E-01  0.13975954779E+00  0.46285665907E-01 0.  0.
         14    1    1    2    0    0 -0.11481545065E-01 -0.55579447381E-02 -0.54283740196E-02  0.13863039756E-01  0.00000000000E+00 0.  1.
     999901    1    3    3    0    0  0.37569499447E-01  0.98854296751E-01 -0.84045519759E-01  0.89030741245E+00  0.88000000000E+00 0. -1.
        -11    1    4    4    0    0 -0.20787649389E-01 -0.96110578374E-01  0.73737369024E-01  0.12290984645E+00  0.51100000000E-03 0. -1.
         11    1    4    4    0    0 -0.53003049934E-02  0.28142263603E-02  0.15736524754E-01  0.16849701344E-01  0.51100000000E-03 0.  1.
</event>
<event>
 8    1  0.2824193E+004  0.1043930E+01  0.7957747E-01            NaN
         13   -1    0    0    0    0  0.00000000000E+00  0.00000000000E+00  0.74505805969E-08  0.10566000000E+00  0.10566000000E+00 0. -1.
     999900   -1    0    0    0    0 -0.00000000000E+00 -0.00000000000E+00 -0.74505805969E-08  0.93827000000E+00  0.93827000000E+00 0.  1.
     999902    2    1    2    0    0 -0.87276620144E-02  0.85553469711E-02  0.62335417292E-02  0.10302105580E+01  0.10301192022E+01 0.  0.
     999903    2    3    3    0    0 -0.94092861692E-01 -0.33671759183E-01 -0.87729076681E-01  0.14009858782E+00  0.44090468663E-01 0.  0.
         14    1    1    2    0    0  0.87276620144E-02 -0.85553469711E-02 -0.62335417292E-02  0.13719441990E-01  0.00000000000E+00 0.  1.
     999901    1    3    3    0    0  0.85365199678E-01  0.42227106154E-01  0.93962618411E-01  0.89011197019E+00  0.88000000000E+00 0. -1.
        -11    1    4    4    0    0 -0.60592676388E-01 -0.87148706637E-02 -0.74180086037E-01  0.96178831808E-01  0.51100000000E-03 0. -1.
         11    1    4    4    0    0 -0.33500185304E-01 -0.24956888520E-01 -0.13548990645E-01  0.43919756015E-01  0.51100000000E-03 0.  1.
</event>
<event>
 8    1  0.2824193E+004  0.1043930E+01  0.7957747E-01            NaN
         13   -1    0    0    0    0  0.00000000000E+00  0.00000000000E+00  0.74505805969E-08  0.10566000000E+00  0.10566000000E+00 0.  1.
     999900   -1    0    0    0    0 -0.00000000000E+00 -0.00000000000E+00 -0.74505805969E-08  0.93827000000E+00  0.93827000000E+00 0.  1.
     999902    2    1    2    0    0  0.33955403597E-02 -0.93949582478E-02  0.12076084360E-01  0.10282575162E+01  0.10281380709E+01 0.  0.
     999903    2    3    3    0    0 -0.10953010547E+00  0.68339368713E-01  0.15914860407E-01  0.13763438419E+00  0.44975855857E-01 0.  0.
         14    1    1    2    0    0 -0.33955403597E-02  0.93949582478E-02 -0.12076084360E-01  0.15672483794E-01  0.00000000000E+00 0. -1.
     999901    1    3    3    0    0  0.11292564583E+00 -0.77734326960E-01 -0.38387760475E-02  0.89062313201E+00  0.88000000000E+00 0. -1.
        -11    1    4    4    0    0 -0.60557917583E-01  0.23494600043E-01 -0.11183176454E-01  0.65913444530E-01  0.51100000000E-03 0.  1.
         11    1    4    4    0    0 -0.48972187888E-01  0.44844768669E-01  0.27098036861E-01  0.71720939664E-01  0.51100000000E-03 0. -1.
</event>
<event>
 8    1  0.2824193E+004  0.1043930E+01  0.7957747E-01            NaN
         13   -1    0    0    0    0  0.00000000000E+00  0.00000000000E+00  0.74505805969E-08  0.10566000000E+00  0.10566000000E+00 0.  1.
     999900   -1    0    0    0    0 -0.00000000000E+00 -0.00000000000E+00 -0.74505805969E-08  0.93827000000E+00  0.93827000000E+00 0.  1.
     999902    2    1    2    0    0  0.15660427055E-02  0.76426558752E-02 -0.10223901442E-01  0.10310695630E+01  0.10309893564E+01 0.  0.
     999903    2    3    3    0    0  0.20538510765E-01 -0.81760237196E-01 -0.10395417742E+00  0.14138523897E+00  0.45571350464E-01 0.  0.
         14    1    1    2    0    0 -0.15660427055E-02 -0.76426558752E-02  0.10223901442E-01  0.12860436978E-01  0.00000000000E+00 0.  1.
     999901    1    3    3    0    0 -0.18972468060E-01  0.89402893071E-01  0.93730275982E-01  0.88968432406E+00  0.88000000000E+00 0.  1.
        -11    1    4    4    0    0  0.14449092745E-02 -0.29711618326E-01 -0.70772791855E-01  0.76771851705E-01  0.51100000000E-03 0.  1.
         11    1    4    4    0    0  0.19093601491E-01 -0.52048618869E-01 -0.33181385569E-01  0.64613387261E-01  0.51100000000E-03 0. -1.
</event>
<event>
 8    1  0.2824193E+004  0.1043930E+01  0.7957747E-01            NaN
         13   -1    0    0    0    0  0.00000000000E+00  0.00000000000E+00  0.74505805969E-08  0.10566000000E+00  0.10566000000E+00 0.  1.
     999900   -1    0    0    0    0 -0.00000000000E+00 -0.00000000000E+00 -0.74505805969E-08  0.93827000000E+00  0.93827000000E+00 0. -1.
     999902    2    1    2    0    0  0.12232863155E-02  0.10770022675E-01 -0.82514034421E-02  0.10303073910E+01  0.10302173287E+01 0.  0.
     999903    2    3    3    0    0 -0.75996269375E-01  0.81491049833E-01  0.72515515915E-01  0.14042671430E+00  0.45220989358E-01 0.  0.
         14    1    1    2    0    0 -0.12232863155E-02 -0.10770022675E-01  0.82514034421E-02  0.13622609023E-01  0.00000000000E+00 0.  1.
     999901    1    3    3    0    0  0.77219555690E-01 -0.70721027158E-01 -0.80766919357E-01  0.88988067668E+00  0.88000000000E+00 0.  1.
        -11    1    4    4    0    0 -0.31328013381E-01  0.19896793435E-01  0.27860426580E-02  0.37220289710E-01  0.51100000000E-03 0. -1.
         11    1    4    4    0    0 -0.44668255994E-01  0.61594256397E-01  0.69729473257E-01  0.10320642459E+00  0.51100000000E-03 0.  1.
</event>
<event>
 8    1  0.2824193E+004  0.1043930E+01  0.7957747E-01            NaN
         13   -1    0    0    0    0  0.00000000000E+00  0.00000000000E+00  0.74505805969E-08  0.10566000000E+00  0.10566000000E+00 0.  1.
     999900   -1    0    0    0    0 -0.00000000000E+00 -0.00000000000E+00 -0.74505805969E-08  0.93827000000E+00  0.93827000000E+00 0. -1.
     999902    2    1    2    0    0 -0.75966694082E-02 -0.93001333917E-02 -0.75002521837E-02  0.10297717639E+01  0.10296744291E+01 0.  0.
     999903    2    3    3    0    0 -0.11383034740E+00  0.57566124137E-01 -0.37463606590E-01  0.14035932112E+00  0.45011227125E-01 0.  0.
         14    1    1    2    0    0  0.75966694082E-02  0.93001333917E-02  0.75002521837E-02  0.14158236120E-01  0.00000000000E+00 0.  1.
     999901    1    3    3    0    0  0.10623367800E+00 -0.66866257529E-01  0.29963354406E-01  0.88941244276E+00  0.88000000000E+00 0.  1.
        -11    1    4    4    0    0 -0.35691990036E-01 -0.37697225977E-02 -0.11368383509E-01  0.37651430594E-01  0.51100000000E-03 0. -1.
         11    1    4    4    0    0 -0.78138357367E-01  0.61335846735E-01 -0.26095223081E-01  0.10270789052E+00  0.51100000000E-03 0.  1.
</event>
<event>
 8    1  0.2824193E+004  0.1043930E+01  0.7957747E-01            NaN
         13   -1    0    0    0    0  0.00000000000E+00  0.00000000000E+00  0.74505805969E-08  0.10566000000E+00  0.10566000000E+00 0.  1.
     999900   -1    0    0    0    0 -0.00000000000E+00 -0.00000000000E+00 -0.74505805969E-08  0.93827000000E+00  0.93827000000E+00 0. -1.
     999902    2    1    2    0    0  0.18493854112E-01 -0.11561533003E-01  0.11231845868E-01  0.10193974492E+01  0.10191022095E+01 0.  0.
     999903    2    3    3    0    0 -0.92641259344E-01 -0.65873072895E-01  0.44928977197E-01  0.13010770260E+00  0.44584039962E-01 0.  0.
         14    1    1    2    0    0 -0.18493854112E-01  0.11561533003E-01 -0.11231845868E-01  0.24532550762E-01  0.00000000000E+00 0. -1.
     999901    1    3    3    0    0  0.11113511346E+00  0.54311539892E-01 -0.33697131329E-01  0.88928974663E+00  0.88000000000E+00 0. -1.
        -11    1    4    4    0    0 -0.93579185690E-01 -0.50644843217E-01  0.35532501369E-01  0.11218192329E+00  0.51100000000E-03 0.  1.
         11    1    4    4    0    0  0.93792634591E-03 -0.15228229678E-01  0.93964758277E-02  0.17925779311E-01  0.51100000000E-03 0. -1.
</event>
<event>
 8    1  0.2824193E+004  0.1043930E+01  0.7957747E-01            NaN
         13   -1    0    0    0    0  0.00000000000E+00  0.00000000000E+00  0.74505805969E-08  0.10566000000E+00  0.10566000000E+00 0.  1.
     999900   -1    0    0    0    0 -0.00000000000E+00 -0.00000000000E+00 -0.74505805969E-08  0.93827000000E+00  0.93827000000E+00 0.  1.
     999902    2    1    2    0    0  0.11218318823E-01  0.68592089277E-02  0.42168257856E-02  0.10301212693E+01  0.10300287124E+01 0.  0.
     999903    2    3    3    0    0 -0.11221490294E+00  0.42400803107E-01  0.54972403834E-01  0.13934907963E+00  0.44790493017E-01 0.  0.
         14    1    1    2    0    0 -0.11218318823E-01 -0.68592089277E-02 -0.42168257856E-02  0.13808730718E-01  0.00000000000E+00 0. -1.
     999901    1    3    3    0    0  0.12343322176E+00 -0.35541594179E-01 -0.50755578048E-01  0.89077218965E+00  0.88000000000E+00 0.  1.
        -11    1    4    4    0    0 -0.56962199106E-01 -0.19784663039E-02  0.28165752006E-01  0.63578118586E-01  0.51100000000E-03 0.  1.
         11    1    4    4    0    0 -0.55252703835E-01  0.44379269411E-01  0.26806651828E-01  0.75770961045E-01  0.51100000000E-03 0. -1.
</event>
<event>
 8    1  0.2824193E+004  0.1043930E+01  0.7957747E-01            NaN
         13   -1    0    0    0    0  0.00000000000E+00  0.00000000000E+00  0.74505805969E-08  0.10566000000E+00  0.10566000000E+00 0. -1.
     999900   -1    0    0    0    0 -0.00000000000E+00 -0.00000000000E+00 -0.74505805969E-08  0.93827000000E+00  0.93827000000E+00 0.  1.
     999902    2    1    2    0    0  0.12421468350E-01 -0.34248520755E-03  0.44258742250E-02  0.10307391496E+01  0.10306547414E+01 0.  0.
     999903    2    3    3    0    0 -0.76774948736E-01  0.10664148582E+00 -0.14373830622E-01  0.13958540315E+00  0.44840590024E-01 0.  0.
         14    1    1    2    0    0 -0.12421468350E-01  0.34248520755E-03 -0.44258742250E-02  0.13190850418E-01  0.00000000000E+00 0.  1.
     999901    1    3    3    0    0  0.89196417086E-01 -0.10698397103E+00  0.18799704847E-01  0.89115374643E+00  0.88000000000E+00 0.  1.
        -11    1    4    4    0    0 -0.25629354754E-01  0.40496571309E-01  0.16147524624E-01  0.50575090562E-01  0.51100000000E-03 0.  1.
         11    1    4    4    0    0 -0.51145593983E-01  0.66144914514E-01 -0.30521355246E-01  0.89010312587E-01  0.51100000000E-03 0. -1.
</event>
<event>
 8    1  0.2824193E+004  0.1043930E+01  0.7957747E-01            NaN
         13   -1    0    0    0    0  0.00000000000E+00  0.00000000000E+00  0.74505805969E-08  0.10566000000E+00  0.10566000000E+00 0. -1.
     999900   -1    0    0    0    0 -0.00000000000E+00 -0.00000000000E+00 -0.74505805969E-08  0.93827000000E+00  0.93827000000E+00 0.  1.
     999902    2    1    2    0    0 -0.69957753412E-02 -0.88506402887E-02 -0.94905109752E-02  0.10291873915E+01  0.10290817958E+01 0.  0.
     999903    2    3    3    0    0  0.39772296918E-01  0.10723146952E+00  0.61739069235E-01  0.13748342613E+00  0.44828073057E-01 0.  0.
         14    1    1    2    0    0  0.69957753412E-02  0.88506402887E-02  0.94905109752E-02  0.14742608477E-01  0.00000000000E+00 0. -1.
     999901    1    3    3    0    0 -0.46768072259E-01 -0.11608210980E+00 -0.71229580210E-01  0.89170396539E+00  0.88000000000E+00 0. -1.
        -11    1    4    4    0    0  0.42147862228E-01  0.54606255121E-01  0.25514373510E-01  0.73549505541E-01  0.51100000000E-03 0.  1.
         11    1    4    4    0    0 -0.23755653096E-02  0.52625214394E-01  0.36224695725E-01  0.63933920590E-01  0.51100000000E-03 0. -1.
</event>
<event>
 8    1  0.2824193E+004  0.1043930E+01  0.7957747E-01            NaN
         13   -1    0    0    0    0  0.00000000000E+00  0.00000000000E+00  0.74505805969E-08  0.10566000000E+00  0.10566000000E+00 0.  1.
     999900   -1    0    0    0    0 -0.00000000000E+00 -0.00000000000E+00 -0.74505805969E-08  0.93827000000E+00  0.93827000000E+00 0.  1.
     999902    2    1    2    0    0  0.29385770175E-02  0.35863808710E-02 -0.11818883439E-01  0.10312341988E+01  0.10311560451E+01 0.  0.
     999903    2    3    3    0    0 -0.94278130763E-01  0.56437354569E-01 -0.77941559787E-01  0.14184310258E+00  0.44396374583E-01 0.  0.
         14    1    1    2    0    0 -0.29385770175E-02 -0.35863808710E-02  0.11818883439E-01  0.12695801211E-01  0.00000000000E+00 0.  1.
     999901    1    3    3    0    0  0.97216707780E-01 -0.52850973698E-01  0.66122676348E-01  0.88939109621E+00  0.88000000000E+00 0. -1.
        -11    1    4    4    0    0 -0.39047465354E-01  0.48980129514E-01 -0.37878018008E-01  0.73203572366E-01  0.51100000000E-03 0. -1.
         11    1    4    4    0    0 -0.55230665408E-01  0.74572250547E-02 -0.40063541778E-01  0.68639530212E-01  0.51100000000E-03 0.  1.
</event>
<event>
 8    1  0.2824193E+004  0.1043930E+01  0.7957747E-01            NaN
         13   -1    0    0    0    0  0.00000000000E+00  0.00000000000E+00  0.74505805969E-08  0.10566000000E+00  0.10566000000E+00 0. -1.
     999900   -1    0    0    0    0 -0.00000000000E+00 -0.00000000000E+00 -0.74505805969E-08  0.93827000000E+00  0.93827000000E+00 0.  1.
     999902    2    1    2    0    0  0.87394745872E-03  0.66425909456E-02  0.10465356435E-01  0.10315037583E+01  0.10314289078E+01 0.  0.
     999903    2    3    3    0    0 -0.51783883027E-01 -0.35384685654E-03 -0.12544741273E+00  0.13948689851E+00  0.32215613390E-01 0.  0.
         14    1    1    2    0    0 -0.87394745872E-03 -0.66425909456E-02 -0.10465356435E-01  0.12426241746E-01  0.00000000000E+00 0.  1.
     999901    1    3    3    0    0  0.52657830486E-01  0.69964378022E-02  0.13591276916E+00  0.89201685975E+00  0.88000000000E+00 0. -1.
        -11    1    4    4    0    0 -0.21925161436E-01 -0.16094899116E-01 -0.58048800776E-01  0.64106808328E-01  0.51100000000E-03 0. -1.
         11    1    4    4    0    0 -0.29858721591E-01  0.15741052260E-01 -0.67398611951E-01  0.75380090177E-01  0.51100000000E-03 0.  1.
</event>
<event>
 8    1  0.2824193E+004  0.1043930E+01  0.7957747E-01            NaN
         13   -1    0    0    0    0  0.00000000000E+00  0.00000000000E+00  0.74505805969E-08  0.10566000000E+00  0.10566000000E+00 0.  1.
     999900   -1    0    0    0    0 -0.00000000000E+00 -0.00000000000E+00 -0.74505805969E-08  0.93827000000E+00  0.93827000000E+00 0. -1.
     999902    2    1    2    0    0 -0.79077620760E-03 -0.13557395038E-01 -0.69082191135E-03  0.10303320030E+01  0.10302422681E+01 0.  0.
     999903    2    3    3    0    0 -0.26429758992E-01  0.74505283516E-01 -0.10664395563E+00  0.13924364637E+00  0.42027257242E-01 0.  0.
         14    1    1    2    0    0  0.79077620760E-03  0.13557395038E-01  0.69082191135E-03  0.13597996990E-01  0.00000000000E+00 0.  1.
     999901    1    3    3    0    0  0.25638982784E-01 -0.88062678554E-01  0.10595313371E+00  0.89108835664E+00  0.88000000000E+00 0.  1.
        -11    1    4    4    0    0 -0.82680677869E-02  0.49027889072E-01 -0.92255565971E-01  0.10480193426E+00  0.51100000000E-03 0. -1.
         11    1    4    4    0    0 -0.18161691205E-01  0.25477394444E-01 -0.14388389654E-01  0.34441712108E-01  0.51100000000E-03 0.  1.
</event>
<event>
 8    1  0.2824193E+004  0.1043930E+01  0.7957747E-01            NaN
         13   -1    0    0    0    0  0.00000000000E+00  0.00000000000E+00  0.74505805969E-08  0.10566000000E+00  0.10566000000E+00 0. -1.
     999900   -1    0    0    0    0 -0.00000000000E+00 -0.00000000000E+00 -0.74505805969E-08  0.93827000000E+00  0.93827000000E+00 0. -1.
     999902    2    1    2    0    0  0.22462654956E-02  0.54216522576E-02  0.11377577952E-01  0.10311280743E+01  0.10310486003E+01 0.  0.
     999903    2    3    3    0    0 -0.13148027353E+00 -0.51726100837E-03  0.22363244094E-01  0.14093778969E+00  0.45563318486E-01 0.  0.
         14    1    1    2    0    0 -0.22462654956E-02 -0.54216522576E-02 -0.11377577952E-01  0.12801925712E-01  0.00000000000E+00 0.  1.
     999901    1    3    3    0    0  0.13372653902E+00  0.59389132660E-02 -0.10985666142E-01  0.89019028460E+00  0.88000000000E+00 0.  1.
        -11    1    4    4    0    0 -0.42716187652E-01  0.20503083241E-01  0.13597566849E-01  0.49297099865E-01  0.51100000000E-03 0. -1.
         11    1    4    4    0    0 -0.88764085873E-01 -0.21020344249E-01  0.87656772456E-02  0.91640689826E-01  0.51100000000E-03 0.  1.
</event>
<event>
 8    1  0.2824193E+004  0.1043930E+01  0.7957747E-01            NaN
         13   -1    0    0    0    0  0.00000000000E+00  0.00000000000E+00  0.74505805969E-08  0.10566000000E+00  0.10566000000E+00 0.  1.
     999900   -1    0    0    0    0 -0.00000000000E+00 -0.00000000000E+00 -0.74505805969E-08  0.93827000000E+00  0.93827000000E+00 0. -1.
     999902    2    1    2    0    0 -0.79108094020E-02 -0.65932467964E-02 -0.10813523101E-01  0.10289973482E+01  0.10288889923E+01 0.  0.
     999903    2    3    3    0    0  0.11649133042E+00 -0.83917961135E-02 -0.60222375642E-01  0.13887355797E+00  0.44927477910E-01 0.  0.
         14    1    1    2    0    0  0.79108094020E-02  0.65932467964E-02  0.10813523101E-01  0.14932651826E-01  0.00000000000E+00 0.  1.
     999901    1    3    3    0    0 -0.12440213982E+00  0.17985493171E-02  0.49408852541E-01  0.89012379020E+00  0.88000000000E+00 0.  1.
        -11    1    4    4    0    0 -0.10788299265E-02  0.30036643940E-02 -0.10015402668E-01  0.10524033704E-01  0.51100000000E-03 0. -1.
         11    1    4    4    0    0  0.11757016035E+00 -0.11395460508E-01 -0.50206972974E-01  0.12834952427E+00  0.51100000000E-03 0.  1.
</event>
<event>
 8    1  0.2824193E+004  0.1043930E+01  0.7957747E-01            NaN
         13   -1    0    0    0    0  0.00000000000E+00  0.00000000000E+00  0.74505805969E-08  0.10566000000E+00  0.10566000000E+00 0. -1.
     999900   -1    0    0    0    0 -0.00000000000E+00 -0.00000000000E+00 -0.74505805969E-08  0.93827000000E+00  0.93827000000E+00 0. -1.
     999902    2    1    2    0    0  0.49253923991E-02 -0.15108454071E-01  0.31903625470E-02  0.10277218759E+01  0.10275940594E+01 0.  0.
     999903    2    3    3    0    0 -0.69152414423E-01  0.19180537990E-01  0.10846750898E+00  0.13769573355E+00  0.45221290081E-01 0.  0.
         14    1    1    2    0    0 -0.49253923991E-02  0.15108454071E-01 -0.31903625470E-02  0.16208124132E-01  0.00000000000E+00 0.  1.
     999901    1    3    3    0    0  0.74077806822E-01 -0.34288992061E-01 -0.10527714643E+00  0.89002614231E+00  0.88000000000E+00 0. -1.
        -11    1    4    4    0    0  0.18961310110E-02  0.98404321152E-02  0.29009107627E-01  0.30695583776E-01  0.51100000000E-03 0.  1.
         11    1    4    4    0    0 -0.71048545434E-01  0.93401058751E-02  0.79458401354E-01  0.10700014978E+00  0.51100000000E-03 0. -1.
</event>
<event>
 8    1  0.2824193E+004  0.1043930E+01  0.7957747E-01            NaN
         13   -1    0    0    0    0  0.00000000000E+00  0.00000000000E+00  0.74505805969E-08  0.10566000000E+00  0.10566000000E+00 0. -1.
     999900   -1    0    0    0    0 -0.00000000000E+00 -0.00000000000E+00 -0.74505805969E-08  0.93827000000E+00  0.93827000000E+00 0. -1.
     999902    2    1    2    0    0  0.32846085089E-03 -0.79536290618E-02  0.12219048455E-01  0.10293466792E+01  0.10292433690E+01 0.  0.
     999903    2    3    3    0    0 -0.20396604476E-01 -0.68640012290E-01  0.11330463750E+00  0.14124158303E+00  0.44539545777E-01 0.  0.
         14    1    1    2    0    0 -0.32846085089E-03  0.79536290618E-02 -0.12219048455E-01  0.14583320847E-01  0.00000000000E+00 0.  1.
     999901    1    3    3    0    0  0.20725065327E-01  0.60686383228E-01 -0.10108558904E+00  0.88810509612E+00  0.88000000000E+00 0. -1.
        -11    1    4    4    0    0 -0.13898934714E-01  0.13142683896E-02  0.16314917773E-01  0.21478951337E-01  0.51100000000E-03 0. -1.
         11    1    4    4    0    0 -0.64976697624E-02 -0.69954280679E-01  0.96989719724E-01  0.11976263170E+00  0.51100000000E-03 0.  1.
</event>
<event>
 8    1  0.2824193E+004  0.1043930E+01  0.7957747E-01            NaN
         13   -1    0    0    0    0  0.00000000000E+00  0.00000000000E+00  0.74505805969E-08  0.10566000000E+00  0.10566000000E+00 0. -1.
     999900   -1    0    0    0    0 -0.00000000000E+00 -0.00000000000E+00 -0.74505805969E-08  0.93827000000E+00  0.93827000000E+00 0. -1.
     999902    2    1    2    0    0  0.46179360023E-02 -0.19551460379E-02 -0.11552681805E-01  0.10313358591E+01  0.10312589596E+01 0.  0.
     999903    2    3    3    0    0  0.98783066316E-01  0.71109249118E-01 -0.57974749037E-01  0.14208871348E+00  0.44872168123E-01 0.  0.
         14    1    1    2    0    0 -0.46179360023E-02  0.19551460379E-02  0.11552681805E-01  0.12594140933E-01  0.00000000000E+00 0. -1.
     999901    1    3    3    0    0 -0.94165130313E-01 -0.73064395156E-01  0.46422067233E-01  0.88924714559E+00  0.88000000000E+00 0.  1.
        -11    1    4    4    0    0  0.47052668592E-01  0.51569991230E-01 -0.13458135205E-01  0.71097117672E-01  0.51100000000E-03 0. -1.
         11    1    4    4    0    0  0.51730397723E-01  0.19539257888E-01 -0.44516613832E-01  0.70991595809E-01  0.51100000000E-03 0.  1.
</event>
<event>
 8    1  0.2824193E+004  0.1043930E+01  0.7957747E-01            NaN
         13   -1    0    0    0    0  0.00000000000E+00  0.00000000000E+00  0.74505805969E-08  0.10566000000E+00  0.10566000000E+00 0. -1.
     999900   -1    0    0    0    0 -0.00000000000E+00 -0.00000000000E+00 -0.74505805969E-08  0.93827000000E+00  0.93827000000E+00 0. -1.
     999902    2    1    2    0    0 -0.11492485617E-01  0.53907347139E-02  0.34531883672E-02  0.10307747061E+01  0.10306907553E+01 0.  0.
     999903    2    3    3    0    0  0.10047183169E+00  0.12262106880E-01  0.85344266704E-01  0.13988224753E+00  0.45149209145E-01 0.  0.
         14    1    1    2    0    0  0.11492485617E-01 -0.53907347139E-02 -0.34531883672E-02  0.13155293852E-01  0.00000000000E+00 0. -1.
     999901    1    3    3    0    0 -0.11196431731E+00 -0.68713721661E-02 -0.81891078336E-01  0.89089245862E+00  0.88000000000E+00 0. -1.
        -11    1    4    4    0    0  0.52143931377E-01  0.23628075532E-01  0.27074537177E-01  0.63329039287E-01  0.51100000000E-03 0. -1.
         11    1    4    4    0    0  0.48327900318E-01 -0.11365968652E-01  0.58269729527E-01  0.76553208246E-01  0.51100000000E-03 0.  1.
</event>
<event>
 8    1  0.2824193E+004  0.1043930E+01  0.7957747E-01            NaN
         13   -1    0    0    0    0  0.00000000000E+00  0.00000000000E+00  0.74505805969E-08  0.10566000000E+00  0.10566000000E+00 0.  1.
     999900   -1    0    0    0    0 -0.00000000000E+00 -0.00000000000E+00 -0.74505805969E-08  0.93827000000E+00  0.93827000000E+00 0. -1.
     999902    2    1    2    0    0  0.37969192611E-02  0.78490655832E-02 -0.11243022391E-01  0.10297022110E+01  0.10296039109E+01 0.  0.
     999903    2    3    3    0    0  0.10812972867E+00  0.39533259007E-01 -0.68072517723E-01  0.14115349837E+00  0.45116800018E-01 0.  0.
         14    1    1    2    0    0 -0.37969192611E-02 -0.78490655832E-02  0.11243022391E-01  0.14227788967E-01  0.00000000000E+00 0.  1.
     999901    1    3    3    0    0 -0.10433280941E+00 -0.31684193424E-01  0.56829495332E-01  0.88854871266E+00  0.88000000000E+00 0.  1.
        -11    1    4    4    0    0  0.91639396042E-01  0.37198571259E-01 -0.36442900601E-01  0.10540331463E+00  0.51100000000E-03 0. -1.
         11    1    4    4    0    0  0.16490332627E-01  0.23346877485E-02 -0.31629617122E-01  0.35750183738E-01  0.51100000000E-03 0.  1.
</event>
<event>
 8    1  0.2824193E+004  0.1043930E+01  0.7957747E-01            NaN
         13   -1    0    0    0    0  0.00000000000E+00  0.00000000000E+00  0.74505805969E-08  0.10566000000E+00  0.10566000000E+00 0. -1.
     999900   -1    0    0    0    0 -0.00000000000E+00 -0.00000000000E+00 -0.74505805969E-08  0.93827000000E+00  0.93827000000E+00 0.  1.
     999902    2    1    2    0    0  0.43239942388E-02  0.11585700906E-01 -0.81306511059E-02  0.10291302406E+01  0.10290238186E+01 0.  0.
     999903    2    3    3    0    0  0.13092540203E+00 -0.63048523994E-02 -0.19768322587E-01  0.13981397301E+00  0.44451641249E-01 0.  0.
         14    1    1    2    0    0 -0.43239942388E-02 -0.11585700906E-01  0.81306511059E-02  0.14799759426E-01  0.00000000000E+00 0.  1.
     999901    1    3    3    0    0 -0.12660140780E+00  0.17890553305E-01  0.11637671481E-01  0.88931626756E+00  0.88000000000E+00 0. -1.
        -11    1    4    4    0    0  0.10059672078E+00 -0.13192245475E-01 -0.32006377300E-01  0.10638799219E+00  0.51100000000E-03 0.  1.
         11    1    4    4    0    0  0.30328681255E-01  0.68873930760E-02  0.12238054713E-01  0.33425980827E-01  0.51100000000E-03 0. -1.
</event>
<event>
 8    1  0.2824193E+004  0.1043930E+01  0.7957747E-01            NaN
         13   -1    0    0    0    0  0.00000000000E+00  0.00000000000E+00  0.74505805969E-08  0.10566000000E+00  0.10566000000E+00 0.  1.
     999900   -1    0    0    0    0 -0.00000000000E+00 -0.00000000000E+00 -0.74505805969E-08  0.93827000000E+00  0.93827000000E+00 0. -1.
     999902    2    1    2    0    0  0.63057199536E-03 -0.11847824745E-01  0.76954437262E-02  0.10297882736E+01  0.10296911673E+01 0.  0.
     999903    2    3    3    0    0  0.18224405152E-01  0.10061382890E+00  0.83413560954E-01  0.13923204302E+00  0.44412477330E-01 0.  0.
         14    1    1    2    0    0 -0.63057199536E-03  0.11847824745E-01 -0.76954437262E-02  0.14141726428E-01  0.00000000000E+00 0. -1.
     999901    1    3    3    0    0 -0.17593833157E-01 -0.11246165364E+00 -0.75718117228E-01  0.89055623056E+00  0.88000000000E+00 0.  1.
        -11    1    4    4    0    0 -0.25959405672E-02  0.50848088147E-01  0.64255214920E-01  0.81983295500E-01  0.51100000000E-03 0.  1.
         11    1    4    4    0    0  0.20820345719E-01  0.49765740751E-01  0.19158346035E-01  0.57248747516E-01  0.51100000000E-03 0. -1.
</event>
<event>
 8    1  0.2824193E+004  0.1043930E+01  0.7957747E-01            NaN
         13   -1    0    0    0    0  0.00000000000E+00  0.00000000000E+00  0.74505805969E-08  0.10566000000E+00  0.10566000000E+00 0. -1.
     999900   -1    0    0    0    0 -0.00000000000E+00 -0.00000000000E+00 -0.74505805969E-08  0.93827000000E+00  0.93827000000E+00 0.  1.
     999902    2    1    2    0    0  0.97382477329E-02  0.43720433189E-02  0.28140116652E-02  0.10328906661E+01  0.10328316713E+01 0.  0.
     999903    2    3    3    0    0  0.91714685564E-01 -0.10110564844E-02 -0.99595755191E-01  0.14315088701E+00  0.46478556511E-01 0.  0.
         14    1    1    2    0    0 -0.97382477329E-02 -0.43720433189E-02 -0.28140116652E-02  0.11039333917E-01  0.00000000000E+00 0.  1.
     999901    1    3    3    0    0 -0.81976437831E-01  0.53830998033E-02  0.10240976686E+00  0.88973977908E+00  0.88000000000E+00 0.  1.
        -11    1    4    4    0    0  0.58239935065E-01 -0.21534846033E-01 -0.48978673981E-01  0.79087364705E-01  0.51100000000E-03 0. -1.
         11    1    4    4    0    0  0.33474750499E-01  0.20523789549E-01 -0.50617081210E-01  0.64063522301E-01  0.51100000000E-03 0.  1.
</event>
<event>
 8    1  0.2824193E+004  0.1043930E+01  0.7957747E-01            NaN
         13   -1    0    0    0    0  0.00000000000E+00  0.00000000000E+00  0.74505805969E-08  0.10566000000E+00  0.10566000000E+00 0. -1.
     999900   -1    0    0    0    0 -0.00000000000E+00 -0.00000000000E+00 -0.74505805969E-08  0.93827000000E+00  0.93827000000E+00 0. -1.
     999902    2    1    2    0    0 -0.54774840732E-02 -0.21186544959E-02  0.96064780111E-02  0.10326705174E+01  0.10326091330E+01 0.  0.
     999903    2    3    3    0    0 -0.74527205250E-01  0.64264854144E-01 -0.90789298307E-01  0.14179794171E+00  0.46687083712E-01 0.  0.
         14    1    1    2    0    0  0.54774840732E-02  0.21186544959E-02 -0.96064780111E-02  0.11259482600E-01  0.00000000000E+00 0.  1.
     999901    1    3    3    0    0  0.69049721177E-01 -0.66383508640E-01  0.10039577632E+00  0.89087257569E+00  0.88000000000E+00 0.  1.
        -11    1    4    4    0    0 -0.69888774923E-02 -0.14775943523E-02 -0.27132270631E-01  0.28061520348E-01  0.51100000000E-03 0.  1.
         11    1    4    4    0    0 -0.67538327758E-01  0.65742448496E-01 -0.63657027676E-01  0.11373642136E+00  0.51100000000E-03 0. -1.
</event>
<event>
 8    1  0.2824193E+004  0.1043930E+01  0.7957747E-01            NaN
         13   -1    0    0    0    0  0.00000000000E+00  0.00000000000E+00  0.74505805969E-08  0.10566000000E+00  0.10566000000E+00 0. -1.
     999900   -1    0    0    0    0 -0.00000000000E+00 -0.00000000000E+00 -0.74505805969E-08  0.93827000000E+00  0.93827000000E+00 0.  1.
     999902    2    1    2    0    0  0.97681274955E-02 -0.27243435842E-02  0.75518851994E-02  0.10312860555E+01  0.10312085429E+01 0.  0.
     999903    2    3    3    0    0 -0.19096147138E-01 -0.10452976945E+00  0.82661669202E-01  0.14176991132E+00  0.44436704009E-01 0.  0.
         14    1    1    2    0    0 -0.97681274955E-02  0.27243435842E-02 -0.75518851994E-02  0.12643944511E-01  0.00000000000E+00 0.  1.
     999901    1    3    3    0    0  0.28864274634E-01  0.10180542587E+00 -0.75109784002E-01  0.88951614417E+00  0.88000000000E+00 0.  1.
        -11    1    4    4    0    0  0.12441572863E-01 -0.50201490461E-01  0.44760257479E-01  0.68401199919E-01  0.51100000000E-03 0. -1.
         11    1    4    4    0    0 -0.31537720001E-01 -0.54328278990E-01  0.37901411723E-01  0.73368711400E-01  0.51100000000E-03 0.  1.
</event>
<event>
 8    1  0.2824193E+004  0.1043930E+01  0.7957747E-01            NaN
         13   -1    0    0    0    0  0.00000000000E+00  0.00000000000E+00  0.74505805969E-08  0.10566000000E+00  0.10566000000E+00 0.  1.
     999900   -1    0    0    0    0 -0.00000000000E+00 -0.00000000000E+00 -0.74505805969E-08  0.93827000000E+00  0.93827000000E+00 0.  1.
     999902    2    1    2    0    0 -0.48274701525E-02  0.14023902083E-01 -0.18068924856E-02  0.10289888100E+01  0.10288803293E+01 0.  0.
     999903    2    3    3    0    0 -0.49329489477E-01  0.96576430410E-01 -0.77612134536E-01  0.14076486056E+00  0.45063256646E-01 0.  0.
         14    1    1    2    0    0  0.48274701525E-02 -0.14023902083E-01  0.18068924856E-02  0.14941189985E-01  0.00000000000E+00 0. -1.
     999901    1    3    3    0    0  0.44502019324E-01 -0.82552528327E-01  0.75805242050E-01  0.88822394945E+00  0.88000000000E+00 0.  1.
        -11    1    4    4    0    0  0.16119560050E-02  0.19240980035E-01 -0.32376236870E-01  0.37700073604E-01  0.51100000000E-03 0. -1.
         11    1    4    4    0    0 -0.50941445481E-01  0.77335450374E-01 -0.45235897665E-01  0.10306478696E+00  0.51100000000E-03 0.  1.
</event>
<event>
 8    1  0.2824193E+004  0.1043930E+01  0.7957747E-01            NaN
         13   -1    0    0    0    0  0.00000000000E+00  0.00000000000E+00  0.74505805969E-08  0.10566000000E+00  0.10566000000E+00 0. -1.
     999900   -1    0    0    0    0 -0.00000000000E+00 -0.00000000000E+00 -0.74505805969E-08  0.93827000000E+00  0.93827000000E+00 0.  1.
     999902    2    1    2    0    0 -0.53313266775E-02  0.82252914605E-02  0.11715234030E-01  0.10286550148E+01  0.10285415958E+01 0.  0.
     999903    2    3    3    0    0 -0.38933271872E-02  0.99313317827E-01  0.89224013819E-01  0.14056340506E+00  0.43804715563E-01 0.  0.
         14    1    1    2    0    0  0.53313266775E-02 -0.82252914605E-02 -0.11715234030E-01  0.15274985176E-01  0.00000000000E+00 0.  1.
     999901    1    3    3    0    0 -0.14379994903E-02 -0.91088026366E-01 -0.77508779789E-01  0.88809160976E+00  0.88000000000E+00 0.  1.
        -11    1    4    4    0    0  0.14227738450E-01  0.38557823188E-01  0.17056312426E-01  0.44500709938E-01  0.51100000000E-03 0. -1.
         11    1    4    4    0    0 -0.18121065638E-01  0.60755494639E-01  0.72167701393E-01  0.96062695121E-01  0.51100000000E-03 0.  1.
</event>
<event>
 8    1  0.2824193E+004  0.1043930E+01  0.7957747E-01            NaN
         13   -1    0    0    0    0  0.00000000000E+00  0.00000000000E+00  0.74505805969E-08  0.10566000000E+00  0.10566000000E+00 0. -1.
     999900   -1    0    0    0    0 -0.00000000000E+00 -0.00000000000E+00 -0.74505805969E-08  0.93827000000E+00  0.93827000000E+00 0.  1.
     999902    2    1    2    0    0 -0.47755085852E-02 -0.12480962864E-02 -0.86312005445E-02  0.10339871207E+01  0.10339393139E+01 0.  0.
     999903    2    3    3    0    0 -0.35142853186E-01  0.57646043805E-01  0.11776921967E+00  0.14248963801E+00  0.43308444223E-01 0.  0.
         14    1    1    2    0    0  0.47755085852E-02  0.12480962864E-02  0.86312005445E-02  0.99428793328E-02  0.00000000000E+00 0. -1.
     999901    1    3    3    0    0  0.30367344601E-01 -0.58894140092E-01 -0.12640042022E+00  0.89149748266E+00  0.88000000000E+00 0.  1.
        -11    1    4    4    0    0  0.35984090050E-02  0.32422050885E-01  0.36220963656E-01  0.48747894930E-01  0.51100000000E-03 0. -1.
         11    1    4    4    0    0 -0.38741262191E-01  0.25223992921E-01  0.81548256017E-01  0.93741743079E-01  0.51100000000E-03 0.  1.
</event>
<event>
 8    1  0.2824193E+004  0.1043930E+01  0.7957747E-01            NaN
         13   -1    0    0    0    0  0.00000000000E+00  0.00000000000E+00  0.74505805969E-08  0.10566000000E+00  0.10566000000E+00 0.  1.
     999900   -1    0    0    0    0 -0.00000000000E+00 -0.00000000000E+00 -0.74505805969E-08  0.93827000000E+00  0.93827000000E+00 0.  1.
     999902    2    1    2    0    0  0.10563300122E-01 -0.62413288366E-02  0.55454447825E-02  0.10304656228E+01  0.10303776542E+01 0.  0.
     999903    2    3    3    0    0  0.43904102333E-01 -0.50701970296E-01 -0.11488085599E+00  0.14052694423E+00  0.45298465627E-01 0.  0.
         14    1    1    2    0    0 -0.10563300122E-01  0.62413288366E-02 -0.55454447825E-02  0.13464377184E-01  0.00000000000E+00 0. -1.
     999901    1    3    3    0    0 -0.33340802212E-01  0.44460641460E-01  0.12042630077E+00  0.88993867859E+00  0.88000000000E+00 0. -1.
        -11    1    4    4    0    0  0.22405541826E-01 -0.52655915402E-01 -0.67747821746E-01  0.88683043496E-01  0.51100000000E-03 0. -1.
         11    1    4    4    0    0  0.21498560507E-01  0.19539451061E-02 -0.47133034241E-01  0.51843900732E-01  0.51100000000E-03 0.  1.
</event>
<event>
 8    1  0.2824193E+004  0.1043930E+01  0.7957747E-01            NaN
         13   -1    0    0    0    0  0.00000000000E+00  0.00000000000E+00  0.74505805969E-08  0.10566000000E+00  0.10566000000E+00 0.  1.
     999900   -1    0    0    0    0 -0.00000000000E+00 -0.00000000000E+00 -0.74505805969E-08  0.93827000000E+00  0.93827000000E+00 0.  1.
     999902    2    1    2    0    0 -0.10188157430E-01  0.73641419705E-02  0.15749834696E-02  0.10312607573E+01  0.10311829322E+01 0.  0.
     999903    2    3    3    0    0  0.12493404242E+00 -0.40651471142E-01 -0.71892811439E-02  0.13961042202E+00  0.46672552000E-01 0.  0.
         14    1    1    2    0    0  0.10188157430E-01 -0.73641419705E-02 -0.15749834696E-02  0.12669242744E-01  0.00000000000E+00 0. -1.
     999901    1    3    3    0    0 -0.13512219985E+00  0.48015613112E-01  0.87642646135E-02  0.89165033524E+00  0.88000000000E+00 0. -1.
        -11    1    4    4    0    0  0.26174158634E-01 -0.18347690294E-01 -0.19763344411E-01  0.37584241679E-01  0.51100000000E-03 0. -1.
         11    1    4    4    0    0  0.98759883791E-01 -0.22303780848E-01  0.12574063267E-01  0.10202618034E+00  0.51100000000E-03 0.  1.
</event>
<event>
 8    1  0.2824193E+004  0.1043930E+01  0.7957747E-01            NaN
         13   -1    0    0    0    0  0.00000000000E+00  0.00000000000E+00  0.74505805969E-08  0.10566000000E+00  0.10566000000E+00 0.  1.
     999900   -1    0    0    0    0 -0.00000000000E+00 -0.00000000000E+00 -0.74505805969E-08  0.93827000000E+00  0.93827000000E+00 0.  1.
     999902    2    1    2    0    0 -0.14162433658E-02 -0.19694146019E-03  0.12976051948E-01  0.10308754048E+01  0.10307927424E+01 0.  0.
     999903    2    3    3    0    0 -0.66252959100E-02  0.66505031363E-02 -0.13133027428E+00  0.13908039613E+00  0.44806159271E-01 0.  0.
         14    1    1    2    0    0  0.14162433658E-02  0.19694146019E-03 -0.12976051948E-01  0.13054595182E-01  0.00000000000E+00 0. -1.
     999901    1    3    3    0    0  0.52090525442E-02 -0.68474445965E-02  0.14430632623E+00  0.89179500868E+00  0.88000000000E+00 0. -1.
        -11    1    4    4    0    0 -0.11814195855E-01  0.16949317970E-01 -0.12329635447E+00  0.12501642592E+00  0.51100000000E-03 0.  1.
         11    1    4    4    0    0  0.51888999451E-02 -0.10298814834E-01 -0.80339198067E-02  0.14063970211E-01  0.51100000000E-03 0. -1.
</event>
<event>
 8    1  0.2824193E+004  0.1043930E+01  0.7957747E-01            NaN
         13   -1    0    0    0    0  0.00000000000E+00  0.00000000000E+00  0.74505805969E-08  0.10566000000E+00  0.10566000000E+00 0. -1.
     999900   -1    0    0    0    0 -0.00000000000E+00 -0.00000000000E+00 -0.74505805969E-08  0.93827000000E+00  0.93827000000E+00 0.  1.
     999902    2    1    2    0    0 -0.67892606437E-02 -0.33830739780E-02  0.11688229174E-01  0.10299960863E+01  0.10299018321E+01 0.  0.
     999903    2    3    3    0    0 -0.60833223597E-02  0.90151829525E-01  0.98416063267E-01  0.14079926123E+00  0.44433672767E-01 0.  0.
         14    1    1    2    0    0  0.67892606437E-02  0.33830739780E-02 -0.11688229174E-01  0.13933913695E-01  0.00000000000E+00 0.  1.
     999901    1    3    3    0    0 -0.70593828401E-03 -0.93534903503E-01 -0.86727834092E-01  0.88919682508E+00  0.88000000000E+00 0.  1.
        -11    1    4    4    0    0 -0.21985344213E-01  0.25104787114E-01  0.27305787980E-01  0.43121605657E-01  0.51100000000E-03 0. -1.
         11    1    4    4    0    0  0.15902021853E-01  0.65047042411E-01  0.71110275286E-01  0.97677655570E-01  0.51100000000E-03 0.  1.
</event>
<event>
 8    1  0.2824193E+004  0.1043930E+01  0.7957747E-01            NaN
         13   -1    0    0    0    0  0.00000000000E+00  0.00000000000E+00  0.74505805969E-08  0.10566000000E+00  0.10566000000E+00 0.  1.
     999900   -1    0    0    0    0 -0.00000000000E+00 -0.00000000000E+00 -0.74505805969E-08  0.93827000000E+00  0.93827000000E+00 0. -1.
     999902    2    1    2    0    0 -0.11017017164E-01 -0.36349618565E-03 -0.76464968986E-02  0.10305144973E+01  0.10304271704E+01 0.  0.
     999903    2    3    3    0    0  0.86675187484E-01 -0.96750666521E-01 -0.25287168464E-01  0.13970281874E+00  0.44767812948E-01 0.  0.
         14    1    1    2    0    0  0.11017017164E-01  0.36349618565E-03  0.76464968986E-02  0.13415502655E-01  0.00000000000E+00 0.  1.
     999901    1    3    3    0    0 -0.97692204647E-01  0.96387170336E-01  0.17640671566E-01  0.89081167861E+00  0.88000000000E+00 0.  1.
        -11    1    4    4    0    0  0.95572609088E-02 -0.52561809358E-02  0.10146865260E-01  0.14905994422E-01  0.51100000000E-03 0. -1.
         11    1    4    4    0    0  0.77117926575E-01 -0.91494485585E-01 -0.35434033724E-01  0.12479682431E+00  0.51100000000E-03 0.  1.
</event>
<event>
 8    1  0.2824193E+004  0.1043930E+01  0.7957747E-01            NaN
         13   -1    0    0    0    0  0.00000000000E+00  0.00000000000E+00  0.74505805969E-08  0.10566000000E+00  0.10566000000E+00 0.  1.
     999900   -1    0    0    0    0 -0.00000000000E+00 -0.00000000000E+00 -0.74505805969E-08  0.93827000000E+00  0.93827000000E+00 0.  1.
     999902    2    1    2    0    0 -0.48820526913E-02 -0.94846141145E-02 -0.96693249095E-02  0.10295324937E+01  0.10294318178E+01 0.  0.
     999903    2    3    3    0    0  0.10588983797E+00 -0.47056022409E-01  0.60874262092E-01  0.13899421819E+00  0.46763125171E-01 0.  0.
         14    1    1    2    0    0  0.48820526913E-02  0.94846141145E-02  0.96693249095E-02  0.14397506298E-01  0.00000000000E+00 0. -1.
     999901    1    3    3    0    0 -0.11077189066E+00  0.37571408295E-01 -0.70543587001E-01  0.89053827551E+00  0.88000000000E+00 0.  1.
        -11    1    4    4    0    0  0.16567703912E-04  0.66047363505E-03  0.13575302243E-01  0.13600972461E-01  0.51100000000E-03 0.  1.
         11    1    4    4    0    0  0.10587327026E+00 -0.47716496044E-01  0.47298959849E-01  0.12539324573E+00  0.51100000000E-03 0. -1.
</event>
<event>
 8    1  0.2824193E+004  0.1043930E+01  0.7957747E-01            NaN
         13   -1    0    0    0    0  0.00000000000E+00  0.00000000000E+00  0.74505805969E-08  0.10566000000E+00  0.10566000000E+00 0.  1.
     999900   -1    0    0    0    0 -0.00000000000E+00 -0.00000000000E+00 -0.74505805969E-08  0.93827000000E+00  0.93827000000E+00 0. -1.
     999902    2    1    2    0    0 -0.40842863212E-02 -0.81726912052E-02 -0.11183035737E-01  0.10294892741E+01  0.10293879885E+01 0.  0.
     999903    2    3    3    0    0 -0.26429945439E-01  0.19499911351E-01 -0.12942266142E+00  0.14086915813E+00  0.44889930564E-01 0.  0.
         14    1    1    2    0    0  0.40842863212E-02  0.81726912052E-02  0.11183035737E-01  0.14440725902E-01  0.00000000000E+00 0.  1.
     999901    1    3    3    0    0  0.22345659118E-01 -0.27672602556E-01  0.11823962568E+00  0.88862011596E+00  0.88000000000E+00 0.  1.
        -11    1    4    4    0    0 -0.30504015141E-01  0.65533539949E-02 -0.41600409994E-01  0.52002852047E-01  0.51100000000E-03 0.  1.
         11    1    4    4    0    0  0.40740697020E-02  0.12946557356E-01 -0.87822251425E-01  0.88866306087E-01  0.51100000000E-03 0. -1.
</event>
<event>
 8    1  0.2824193E+004  0.1043930E+01  0.7957747E-01            NaN
         13   -1    0    0    0    0  0.00000000000E+00  0.00000000000E+00  0.74505805969E-08  0.10566000000E+00  0.10566000000E+00 0.  1.
     999900   -1    0    0    0    0 -0.00000000000E+00 -0.00000000000E+00 -0.74505805969E-08  0.93827000000E+00  0.93827000000E+00 0. -1.
     999902    2    1    2    0    0 -0.49582415242E-02  0.14994337175E-02  0.13189912963E-01  0.10297593873E+01  0.10296618811E+01 0.  0.
     999903    2    3    3    0    0  0.84172035703E-01  0.99079847828E-01  0.24765361586E-01  0.13981549325E+00  0.45092140979E-01 0.  0.
         14    1    1    2    0    0  0.49582415242E-02 -0.14994337175E-02 -0.13189912963E-01  0.14170612706E-01  0.00000000000E+00 0. -1.
     999901    1    3    3    0    0 -0.89130277228E-01 -0.97580414110E-01 -0.11575448623E-01  0.88994389404E+00  0.88000000000E+00 0.  1.
        -11    1    4    4    0    0  0.30926587920E-01  0.70839688883E-01  0.15447733870E-01  0.78826448379E-01  0.51100000000E-03 0.  1.
         11    1    4    4    0    0  0.53245447784E-01  0.28240158945E-01  0.93176277155E-02  0.60989044870E-01  0.51100000000E-03 0. -1.
</event>
<event>
 8    1  0.2824193E+004  0.1043930E+01  0.7957747E-01            NaN
         13   -1    0    0    0    0  0.00000000000E+00  0.00000000000E+00  0.74505805969E-08  0.10566000000E+00  0.10566000000E+00 0. -1.
     999900   -1    0    0    0    0 -0.00000000000E+00 -0.00000000000E+00 -0.74505805969E-08  0.93827000000E+00  0.93827000000E+00 0. -1.
     999902    2    1    2    0    0  0.61880049606E-03  0.11711142681E-01  0.53454557783E-02  0.10310417234E+01  0.10309611669E+01 0.  0.
     999903    2    3    3    0    0 -0.95234493082E-01  0.81197860972E-01  0.49565881138E-01  0.14201320644E+00  0.45257849377E-01 0.  0.
         14    1    1    2    0    0 -0.61880049606E-03 -0.11711142681E-01 -0.53454557783E-02  0.12888276627E-01  0.00000000000E+00 0. -1.
     999901    1    3    3    0    0  0.95853293578E-01 -0.69486718291E-01 -0.44220425359E-01  0.88902851694E+00  0.88000000000E+00 0.  1.
        -11    1    4    4    0    0 -0.70890145398E-01  0.34299716186E-01  0.39934135924E-01  0.88299940985E-01  0.51100000000E-03 0.  1.
         11    1    4    4    0    0 -0.24344347684E-01  0.46898144786E-01  0.96317452139E-02  0.53713265451E-01  0.51100000000E-03 0. -1.
</event>
<event>
 8    1  0.2824193E+004  0.1043930E+01  0.7957747E-01            NaN
         13   -1    0    0    0    0  0.00000000000E+00  0.00000000000E+00  0.74505805969E-08  0.10566000000E+00  0.10566000000E+00 0. -1.
     999900   -1    0    0    0    0 -0.00000000000E+00 -0.00000000000E+00 -0.74505805969E-08  0.93827000000E+00  0.93827000000E+00 0.  1.
     999902    2    1    2    0    0 -0.49644402270E-02  0.14178601011E-01  0.15047547659E-02  0.10288322293E+01  0.10287214459E+01 0.  0.
     999903    2    3    3    0    0 -0.85649796776E-01 -0.44942326005E-01  0.88967112306E-01  0.13885746855E+00  0.44839147468E-01 0.  0.
         14    1    1    2    0    0  0.49644402270E-02 -0.14178601011E-01 -0.15047547659E-02  0.15097770707E-01  0.00000000000E+00 0.  1.
     999901    1    3    3    0    0  0.80685356549E-01  0.59120927016E-01 -0.87462357540E-01  0.88997476074E+00  0.88000000000E+00 0.  1.
        -11    1    4    4    0    0 -0.87317914430E-01 -0.36888059379E-01  0.68965920171E-01  0.11722502451E+00  0.51100000000E-03 0.  1.
         11    1    4    4    0    0  0.16681176536E-02 -0.80542666260E-02  0.20001192135E-01  0.21632444041E-01  0.51100000000E-03 0. -1.
</event>
<event>
 8    1  0.2824193E+004  0.1043930E+01  0.7957747E-01            NaN
         13   -1    0    0    0    0  0.00000000000E+00  0.00000000000E+00  0.74505805969E-08  0.10566000000E+00  0.10566000000E+00 0. -1.
     999900   -1    0    0    0    0 -0.00000000000E+00 -0.00000000000E+00 -0.74505805969E-08  0.93827000000E+00  0.93827000000E+00 0.  1.
     999902    2    1    2    0    0  0.13962261793E-01 -0.74874765143E-03 -0.14248372096E-02  0.10298752663E+01  0.10297793592E+01 0.  0.
     999903    2    3    3    0    0 -0.31771410384E-01 -0.54068374593E-01 -0.11600380889E+00  0.13967141769E+00  0.46026183775E-01 0.  0.
         14    1    1    2    0    0 -0.13962261793E-01  0.74874765143E-03  0.14248372096E-02  0.14054733668E-01  0.00000000000E+00 0. -1.
     999901    1    3    3    0    0  0.45733672177E-01  0.53319626942E-01  0.11457897168E+00  0.89020384864E+00  0.88000000000E+00 0. -1.
        -11    1    4    4    0    0 -0.25368065045E-01 -0.42448875267E-01 -0.43195501924E-01  0.65662456876E-01  0.51100000000E-03 0. -1.
         11    1    4    4    0    0 -0.64033453393E-02 -0.11619499327E-01 -0.72808306967E-01  0.74008960812E-01  0.51100000000E-03 0.  1.
</event>
<event>
 8    1  0.2824193E+004  0.1043930E+01  0.7957747E-01            NaN
         13   -1    0    0    0    0  0.00000000000E+00  0.00000000000E+00  0.74505805969E-08  0.10566000000E+00  0.10566000000E+00 0.  1.
     999900   -1    0    0    0    0 -0.00000000000E+00 -0.00000000000E+00 -0.74505805969E-08  0.93827000000E+00  0.93827000000E+00 0. -1.
     999902    2    1    2    0    0 -0.11269247095E-01  0.65848597911E-02  0.32251498136E-02  0.10304853765E+01  0.10303976676E+01 0.  0.
     999903    2    3    3    0    0 -0.11486689513E+00  0.57366781241E-01 -0.39600402788E-01  0.14192175801E+00  0.45697289942E-01 0.  0.
         14    1    1    2    0    0  0.11269247095E-01 -0.65848597911E-02 -0.32251498136E-02  0.13444623456E-01  0.00000000000E+00 0. -1.
     999901    1    3    3    0    0  0.10359764804E+00 -0.50781921450E-01  0.42825552602E-01  0.88856361853E+00  0.88000000000E+00 0. -1.
        -11    1    4    4    0    0 -0.16988663795E-01  0.23093016705E-01  0.48671470001E-02  0.29083541033E-01  0.51100000000E-03 0. -1.
         11    1    4    4    0    0 -0.97878231339E-01  0.34273764536E-01 -0.44467549788E-01  0.11283821698E+00  0.51100000000E-03 0.  1.
</event>
<event>
 7    1  0.2824193E+004  0.1043930E+01  0.7957747E-01            NaN
         13   -1    0    0    0    0  0.00000000000E+00  0.00000000000E+00  0.74505805969E-08  0.10566000000E+00  0.10566000000E+00 0.  1.
     999900   -1    0    0    0    0 -0.00000000000E+00 -0.00000000000E+00 -0.74505805969E-08  0.93827000000E+00  0.93827000000E+00 0. -1.
     999903    2    1    2    0    0 -0.68278133045E-01  0.79351274315E-01 -0.11927151735E-01  0.11545193824E+00  0.47205560138E-01 0.  0.
         14    1    1    2    0    0 -0.64089989171E-02  0.33133833573E-01  0.17812435701E-01  0.38160307388E-01  0.00000000000E+00 0. -1.
     999901    1    1    2    0    0  0.74687131962E-01 -0.11248510789E+00 -0.58852839656E-02  0.89031775437E+00  0.88000000000E+00 0. -1.
        -11    1    3    3    0    0 -0.57011703333E-01  0.43131550365E-01  0.91188436799E-02  0.72069961737E-01  0.51100000000E-03 0. -1.
         11    1    3    3    0    0 -0.11266429713E-01  0.36219723951E-01 -0.21045995415E-01  0.43381976506E-01  0.51100000000E-03 0.  1.
</event>
<event>
 8    1  0.2824193E+004  0.1043930E+01  0.7957747E-01            NaN
         13   -1    0    0    0    0  0.00000000000E+00  0.00000000000E+00  0.74505805969E-08  0.10566000000E+00  0.10566000000E+00 0. -1.
     999900   -1    0    0    0    0 -0.00000000000E+00 -0.00000000000E+00 -0.74505805969E-08  0.93827000000E+00  0.93827000000E+00 0. -1.
     999902    2    1    2    0    0  0.98886220210E-02 -0.97151765855E-03  0.87556269550E-02  0.10306865225E+01  0.10306014351E+01 0.  0.
     999903    2    3    3    0    0 -0.63109905230E-01  0.11536114781E+00 -0.14992949194E-01  0.13971734860E+00  0.44778280580E-01 0.  0.
         14    1    1    2    0    0 -0.98886220210E-02  0.97151765855E-03 -0.87556269550E-02  0.13243477467E-01  0.00000000000E+00 0.  1.
     999901    1    3    3    0    0  0.72998527251E-01 -0.11633266547E+00  0.23748576149E-01  0.89096917394E+00  0.88000000000E+00 0.  1.
        -11    1    4    4    0    0 -0.27635196336E-01  0.25502552015E-01 -0.20721698447E-01  0.42938725451E-01  0.51100000000E-03 0. -1.
         11    1    4    4    0    0 -0.35474708895E-01  0.89858595793E-01  0.57287492535E-02  0.96778623147E-01  0.51100000000E-03 0.  1.
</event>
<event>
 8    1  0.2824193E+004  0.1043930E+01  0.7957747E-01            NaN
         13   -1    0    0    0    0  0.00000000000E+00  0.00000000000E+00  0.74505805969E-08  0.10566000000E+00  0.10566000000E+00 0. -1.
     999900   -1    0    0    0    0 -0.00000000000E+00 -0.00000000000E+00 -0.74505805969E-08  0.93827000000E+00  0.93827000000E+00 0. -1.
     999902    2    1    2    0    0 -0.67114729024E-02  0.45193083713E-02 -0.11304509197E-01  0.10300282035E+01  0.10299343863E+01 0.  0.
     999903    2    3    3    0    0 -0.25972294431E-01  0.12867280503E+00 -0.21526438266E-01  0.14104588773E+00  0.46896738364E-01 0.  0.
         14    1    1    2    0    0  0.67114729024E-02 -0.45193083713E-02  0.11304509197E-01  0.13901796462E-01  0.00000000000E+00 0. -1.
     999901    1    3    3    0    0  0.19260821529E-01 -0.12415349666E+00  0.10221929069E-01  0.88898231580E+00  0.88000000000E+00 0.  1.
        -11    1    4    4    0    0 -0.35924285523E-01  0.64916024646E-01 -0.46284690308E-02  0.74339278936E-01  0.51100000000E-03 0.  1.
         11    1    4    4    0    0  0.99519910920E-02  0.63756780387E-01 -0.16897969235E-01  0.66706608798E-01  0.51100000000E-03 0. -1.
</event>
<event>
 8    1  0.2824193E+004  0.1043930E+01  0.7957747E-01            NaN
         13   -1    0    0    0    0  0.00000000000E+00  0.00000000000E+00  0.74505805969E-08  0.10566000000E+00  0.10566000000E+00 0. -1.
     999900   -1    0    0    0    0 -0.00000000000E+00 -0.00000000000E+00 -0.74505805969E-08  0.93827000000E+00  0.93827000000E+00 0. -1.
     999902    2    1    2    0    0 -0.97820818988E-02 -0.98747918827E-02 -0.24867612689E-02  0.10298096380E+01  0.10297128269E+01 0.  0.
     999903    2    3    3    0    0 -0.44813172706E-01 -0.12585175469E+00 -0.12382953609E-01  0.14145398410E+00  0.44821952996E-01 0.  0.
         14    1    1    2    0    0  0.97820818988E-02  0.98747918827E-02  0.24867612689E-02  0.14120361986E-01  0.00000000000E+00 0.  1.
     999901    1    3    3    0    0  0.35031090808E-01  0.11597696281E+00  0.98961923401E-02  0.88835565392E+00  0.88000000000E+00 0. -1.
        -11    1    4    4    0    0 -0.32211742816E-01 -0.74735958122E-01  0.13976620143E-01  0.82575219306E-01  0.51100000000E-03 0.  1.
         11    1    4    4    0    0 -0.12601429890E-01 -0.51115796567E-01 -0.26359573752E-01  0.58878764791E-01  0.51100000000E-03 0. -1.
</event>
<event>
 8    1  0.2824193E+004  0.1043930E+01  0.7957747E-01            NaN
         13   -1    0    0    0    0  0.00000000000E+00  0.00000000000E+00  0.74505805969E-08  0.10566000000E+00  0.10566000000E+00 0. -1.
     999900   -1    0    0    0    0 -0.00000000000E+00 -0.00000000000E+00 -0.74505805969E-08  0.93827000000E+00  0.93827000000E+00 0.  1.
     999902    2    1    2    0    0 -0.10382260231E-01 -0.85820012160E-03 -0.91795716959E-02  0.10300450307E+01  0.10299514420E+01 0.  0.
     999903    2    3    3    0    0  0.11560180194E+00  0.63478930139E-02 -0.63770752476E-01  0.13936882205E+00  0.44191484813E-01 0.  0.
         14    1    1    2    0    0  0.10382260231E-01  0.85820012160E-03  0.91795716959E-02  0.13884969264E-01  0.00000000000E+00 0. -1.
     999901    1    3    3    0    0 -0.12598406217E+00 -0.72060931355E-02  0.54591180781E-01  0.89067620869E+00  0.88000000000E+00 0. -1.
        -11    1    4    4    0    0  0.45682620554E-01  0.22361188823E-01 -0.36601117992E-01  0.62664404134E-01  0.51100000000E-03 0. -1.
         11    1    4    4    0    0  0.69919181389E-01 -0.16013295809E-01 -0.27169634485E-01  0.76704417916E-01  0.51100000000E-03 0.  1.
</event>
<event>
 8    1  0.2824193E+004  0.1043930E+01  0.7957747E-01            NaN
         13   -1    0    0    0    0  0.00000000000E+00  0.00000000000E+00  0.74505805969E-08  0.10566000000E+00  0.10566000000E+00 0. -1.
     999900   -1    0    0    0    0 -0.00000000000E+00 -0.00000000000E+00 -0.74505805969E-08  0.93827000000E+00  0.93827000000E+00 0. -1.
     999902    2    1    2    0    0 -0.88543119799E-02 -0.10416056207E-01 -0.22738702923E-02  0.10300713004E+01  0.10299780679E+01 0.  0.
     999903    2    3    3    0    0  0.10535359745E+00  0.13965042555E-01  0.76362763270E-01  0.13888018474E+00  0.46497647161E-01 0.  0.
         14    1    1    2    0    0  0.88543119799E-02  0.10416056207E-01  0.22738702923E-02  0.13858699565E-01  0.00000000000E+00 0.  1.
     999901    1    3    3    0    0 -0.11420790943E+00 -0.24381098761E-01 -0.78636633562E-01  0.89119111569E+00  0.88000000000E+00 0. -1.
        -11    1    4    4    0    0  0.10220971646E-01  0.11042172717E-01 -0.25164278618E-02  0.15264054831E-01  0.51100000000E-03 0. -1.
         11    1    4    4    0    0  0.95132625799E-01  0.29228698376E-02  0.78879191131E-01  0.12361612991E+00  0.51100000000E-03 0.  1.
</event>
<event>
 8    1  0.2824193E+004  0.1043930E+01  0.7957747E-01            NaN
         13   -1    0    0    0    0  0.00000000000E+00  0.00000000000E+00  0.74505805969E-08  0.10566000000E+00  0.10566000000E+00 0.  1.
     999900   -1    0    0    0    0 -0.00000000000E+00 -0.00000000000E+00 -0.74505805969E-08  0.93827000000E+00  0.93827000000E+00 0. -1.
     999902    2    1    2    0    0 -0.28102945502E-04  0.13634413738E-01 -0.97963321092E-03  0.10302604093E+01  0.10301697206E+01 0.  0.
     999903    2    3    3    0    0 -0.50808102734E-02 -0.10373285820E+00  0.79971240302E-01  0.13877084108E+00  0.45559044723E-01 0.  0.
         14    1    1    2    0    0  0.28102945502E-04 -0.13634413738E-01  0.97963321092E-03  0.13669590666E-01  0.00000000000E+00 0.  1.
     999901    1    3    3    0    0  0.50527073279E-02  0.11736727194E+00 -0.80950873513E-01  0.89148956825E+00  0.88000000000E+00 0. -1.
        -11    1    4    4    0    0 -0.15065961890E-01 -0.65921799088E-01  0.72148685245E-01  0.98885594028E-01  0.51100000000E-03 0.  1.
         11    1    4    4    0    0  0.99851516165E-02 -0.37811059115E-01  0.78225550569E-02  0.39885247057E-01  0.51100000000E-03 0. -1.
</event>
<event>
 8    1  0.2824193E+004  0.1043930E+01  0.7957747E-01            NaN
         13   -1    0    0    0    0  0.00000000000E+00  0.00000000000E+00  0.74505805969E-08  0.10566000000E+00  0.10566000000E+00 0. -1.
     999900   -1    0    0    0    0 -0.00000000000E+00 -0.00000000000E+00 -0.74505805969E-08  0.93827000000E+00  0.93827000000E+00 0.  1.
     999902    2    1    2    0    0  0.18704357657E-02 -0.85791032963E-02  0.10863606491E-01  0.10299615538E+01  0.10298668287E+01 0.  0.
     999903    2    3    3    0    0 -0.12798062541E+00 -0.27572361114E-01 -0.20291536587E-01  0.13968480757E+00  0.44281185991E-01 0.  0.
         14    1    1    2    0    0 -0.18704357657E-02  0.85791032963E-02 -0.10863606491E-01  0.13968446203E-01  0.00000000000E+00 0.  1.
     999901    1    3    3    0    0  0.12985106117E+00  0.18993257818E-01  0.31155143078E-01  0.89027674623E+00  0.88000000000E+00 0. -1.
        -11    1    4    4    0    0 -0.16786836976E-01  0.11097043297E-01 -0.64981899625E-02  0.21152537895E-01  0.51100000000E-03 0. -1.
         11    1    4    4    0    0 -0.11119378843E+00 -0.38669404411E-01 -0.13793346625E-01  0.11853226968E+00  0.51100000000E-03 0.  1.
</event>
<event>
 8    1  0.2824193E+004  0.1043930E+01  0.7957747E-01            NaN
         13   -1    0    0    0    0  0.00000000000E+00  0.00000000000E+00  0.74505805969E-08  0.10566000000E+00  0.10566000000E+00 0. -1.
     999900   -1    0    0    0    0 -0.00000000000E+00 -0.00000000000E+00 -0.74505805969E-08  0.93827000000E+00  0.93827000000E+00 0. -1.
     999902    2    1    2    0    0 -0.16658415044E-02 -0.13499433693E-01 -0.44488397780E-02  0.10296190981E+01  0.10295196381E+01 0.  0.
     999903    2    3    3    0    0 -0.55799831702E-01 -0.79026272825E-01 -0.95000422362E-01  0.14089875702E+00  0.38322401606E-01 0.  0.
         14    1    1    2    0    0  0.16658415044E-02  0.13499433693E-01  0.44488397780E-02  0.14310901905E-01  0.00000000000E+00 0.  1.
     999901    1    3    3    0    0  0.54133990197E-01  0.65526839132E-01  0.90551582584E-01  0.88872034108E+00  0.88000000000E+00 0.  1.
        -11    1    4    4    0    0 -0.16731630921E-01 -0.28130971111E-01 -0.58616584747E-01  0.67137650669E-01  0.51100000000E-03 0. -1.
         11    1    4    4    0    0 -0.39068200781E-01 -0.50895301714E-01 -0.36383837615E-01  0.73761106346E-01  0.51100000000E-03 0.  1.
</event>
<event>
 8    1  0.2824193E+004  0.1043930E+01  0.7957747E-01            NaN
         13   -1    0    0    0    0  0.00000000000E+00  0.00000000000E+00  0.74505805969E-08  0.10566000000E+00  0.10566000000E+00 0. -1.
     999900   -1    0    0    0    0 -0.00000000000E+00 -0.00000000000E+00 -0.74505805969E-08  0.93827000000E+00  0.93827000000E+00 0.  1.
     999902    2    1    2    0    0  0.13067405385E-01 -0.34111860132E-02 -0.95973980155E-02  0.10273618582E+01  0.10272282533E+01 0.  0.
     999903    2    3    3    0    0 -0.68994413787E-01 -0.10954529809E+00 -0.53954917656E-02  0.13718420857E+00  0.45055457861E-01 0.  0.
         14    1    1    2    0    0 -0.13067405385E-01  0.34111860132E-02  0.95973980155E-02  0.16568141784E-01  0.00000000000E+00 0. -1.
     999901    1    3    3    0    0  0.82061819172E-01  0.10613411207E+00 -0.42019062499E-02  0.89017764965E+00  0.88000000000E+00 0.  1.
        -11    1    4    4    0    0 -0.63147578991E-01 -0.83530121086E-01 -0.20253860440E-01  0.10665541639E+00  0.51100000000E-03 0.  1.
         11    1    4    4    0    0 -0.58468347961E-02 -0.26015177000E-01  0.14858368674E-01  0.30528792183E-01  0.51100000000E-03 0. -1.
</event>
<event>
 8    1  0.2824193E+004  0.1043930E+01  0.7957747E-01            NaN
         13   -1    0    0    0    0  0.00000000000E+00  0.00000000000E+00  0.74505805969E-08  0.10566000000E+00  0.10566000000E+00 0.  1.
     999900   -1    0    0    0    0 -0.00000000000E+00 -0.00000000000E+00 -0.74505805969E-08  0.93827000000E+00  0.93827000000E+00 0. -1.
     999902    2    1    2    0    0 -0.93083031766E-02  0.50440158335E-03  0.11026549231E-01  0.10294910348E+01  0.10293897741E+01 0.  0.
     999903    2    3    3    0    0 -0.12978002272E+00 -0.19628844131E-01 -0.21401693225E-01  0.14046326597E+00  0.45207862089E-01 0.  0.
         14    1    1    2    0    0  0.93083031766E-02 -0.50440158335E-03 -0.11026549231E-01  0.14438965231E-01  0.00000000000E+00 0. -1.
     999901    1    3    3    0    0  0.12047171954E+00  0.20133245714E-01  0.32428242457E-01  0.88902776880E+00  0.88000000000E+00 0.  1.
        -11    1    4    4    0    0 -0.72871903026E-01 -0.22328121906E-01 -0.31733092169E-01  0.82559733152E-01  0.51100000000E-03 0.  1.
         11    1    4    4    0    0 -0.56908119692E-01  0.26992777751E-02  0.10331398944E-01  0.57903532815E-01  0.51100000000E-03 0. -1.
</event>
<event>
 8    1  0.2824193E+004  0.1043930E+01  0.7957747E-01            NaN
         13   -1    0    0    0    0  0.00000000000E+00  0.00000000000E+00  0.74505805969E-08  0.10566000000E+00  0.10566000000E+00 0.  1.
     999900   -1    0    0    0    0 -0.00000000000E+00 -0.00000000000E+00 -0.74505805969E-08  0.93827000000E+00  0.93827000000E+00 0.  1.
     999902    2    1    2    0    0 -0.13380121563E-01 -0.39133101752E-02 -0.84744477747E-03  0.10299636185E+01  0.10298689216E+01 0.  0.
     999903    2    3    3    0    0 -0.48605510661E-01  0.10853510969E+00  0.59027152694E-01  0.14009259268E+00  0.44714249052E-01 0.  0.
         14    1    1    2    0    0  0.13380121563E-01  0.39133101752E-02  0.84744477747E-03  0.13966381501E-01  0.00000000000E+00 0.  1.
     999901    1    3    3    0    0  0.35225389097E-01 -0.11244841986E+00 -0.59874597472E-01  0.88987102582E+00  0.88000000000E+00 0. -1.
        -11    1    4    4    0    0  0.55204946400E-02  0.28569823448E-01  0.52738929854E-02  0.29576777058E-01  0.51100000000E-03 0. -1.
         11    1    4    4    0    0 -0.54126005300E-01  0.79965286238E-01  0.53753259709E-01  0.11051581562E+00  0.51100000000E-03 0.  1.
</event>
<event>
 8    1  0.2824193E+004  0.1043930E+01  0.7957747E-01            NaN
         13   -1    0    0    0    0  0.00000000000E+00  0.00000000000E+00  0.74505805969E-08  0.10566000000E+00  0.10566000000E+00 0.  1.
     999900   -1    0    0    0    0 -0.00000000000E+00 -0.00000000000E+00 -0.74505805969E-08  0.93827000000E+00  0.93827000000E+00 0. -1.
     999902    2    1    2    0    0 -0.20458051586E-02  0.88665785680E-02 -0.10599218649E-01  0.10299605702E+01  0.10298658316E+01 0.  0.
     999903    2    3    3    0    0  0.75701246211E-01 -0.93027475484E-01 -0.55503777615E-01  0.13954301548E+00  0.44797254024E-01 0.  0.
         14    1    1    2    0    0  0.20458051586E-02 -0.88665785680E-02  0.10599218649E-01  0.13969429846E-01  0.00000000000E+00 0.  1.
     999901    1    3    3    0    0 -0.77747051370E-01  0.10189405405E+00  0.44904558966E-01  0.89041755467E+00  0.88000000000E+00 0.  1.
        -11    1    4    4    0    0  0.60579369862E-01 -0.42111282895E-01 -0.41331106433E-01  0.84567970769E-01  0.51100000000E-03 0. -1.
         11    1    4    4    0    0  0.15121876349E-01 -0.50916192589E-01 -0.14172671181E-01  0.54975044716E-01  0.51100000000E-03 0.  1.
</event>
<event>
 8    1  0.2824193E+004  0.1043930E+01  0.7957747E-01            NaN
         13   -1    0    0    0    0  0.00000000000E+00  0.00000000000E+00  0.74505805969E-08  0.10566000000E+00  0.10566000000E+00 0. -1.
     999900   -1    0    0    0    0 -0.00000000000E+00 -0.00000000000E+00 -0.74505805969E-08  0.93827000000E+00  0.93827000000E+00 0. -1.
     999902    2    1    2    0    0 -0.67421083560E-02 -0.13486598431E-01  0.16259732430E-02  0.10287646398E+01  0.10286528549E+01 0.  0.
     999903    2    3    3    0    0 -0.60058799583E-01 -0.11323041735E+00  0.37093117898E-01  0.14081789736E+00  0.45006599542E-01 0.  0.
         14    1    1    2    0    0  0.67421083560E-02  0.13486598431E-01 -0.16259732430E-02  0.15165360243E-01  0.00000000000E+00 0. -1.
     999901    1    3    3    0    0  0.53316691227E-01  0.99743818917E-01 -0.35467144655E-01  0.88794674239E+00  0.88000000000E+00 0.  1.
        -11    1    4    4    0    0 -0.17616962466E-01 -0.11615118874E-01  0.20549120034E-01  0.29458374160E-01  0.51100000000E-03 0. -1.
         11    1    4    4    0    0 -0.42441837118E-01 -0.10161529847E+00  0.16543997864E-01  0.11135952320E+00  0.51100000000E-03 0.  1.
</event>
<event>
 8    1  0.2824193E+004  0.1043930E+01  0.7957747E-01            NaN
         13   -1    0    0    0    0  0.00000000000E+00  0.00000000000E+00  0.74505805969E-08  0.10566000000E+00  0.10566000000E+00 0.  1.
     999900   -1    0    0    0    0 -0.00000000000E+00 -0.00000000000E+00 -0.74505805969E-08  0.93827000000E+00  0.93827000000E+00 0.  1.
     999902    2    1    2    0    0 -0.13034565709E-01  0.34765629005E-02 -0.26426390267E-02  0.10301833665E+01  0.10300916457E+01 0.  0.
     999903    2    3    3    0    0 -0.96237050759E-01  0.21686479140E-01  0.90373972580E-01  0.14119160912E+00  0.45119200462E-01 0.  0.
         14    1    1    2    0    0  0.13034565709E-01 -0.34765629005E-02  0.26426390267E-02  0.13746633546E-01  0.00000000000E+00 0. -1.
     999901    1    3    3    0    0  0.83202485050E-01 -0.18209916240E-01 -0.93016611607E-01  0.88899175733E+00  0.88000000000E+00 0.  1.
        -11    1    4    4    0    0 -0.85407890814E-01  0.19963726851E-02  0.77151973028E-01  0.11511377581E+00  0.51100000000E-03 0.  1.
         11    1    4    4    0    0 -0.10829159946E-01  0.19690106455E-01  0.13221999552E-01  0.26077833317E-01  0.51100000000E-03 0. -1.
</event>
<event>
 8    1  0.2824193E+004  0.1043930E+01  0.7957747E-01            NaN
         13   -1    0    0    0    0  0.00000000000E+00  0.00000000000E+00  0.74505805969E-08  0.10566000000E+00  0.10566000000E+00 0.  1.
     999900   -1    0    0    0    0 -0.00000000000E+00 -0.00000000000E+00 -0.74505805969E-08  0.93827000000E+00  0.93827000000E+00 0. -1.
     999902    2    1    2    0    0 -0.48095427810E-02 -0.14934367924E-01 -0.73006684560E-02  0.10266248907E+01  0.10264790302E+01 0.  0.
     999903    2    3    3    0    0  0.48600508509E-01  0.77056775642E-01 -0.91125902070E-01  0.13626447277E+00  0.44320654459E-01 0.  0.
         14    1    1    2    0    0  0.48095427810E-02  0.14934367924E-01  0.73006684560E-02  0.17305109273E-01  0.00000000000E+00 0.  1.
     999901    1    3    3    0    0 -0.53410051290E-01 -0.91991143566E-01  0.83825233614E-01  0.89036041796E+00  0.88000000000E+00 0. -1.
        -11    1    4    4    0    0  0.29203611798E-01  0.73381695998E-01 -0.59122427341E-01  0.98658232223E-01  0.51100000000E-03 0.  1.
         11    1    4    4    0    0  0.19396896711E-01  0.36750796439E-02 -0.32003474729E-01  0.37606240548E-01  0.51100000000E-03 0. -1.
</event>
<event>
 8    1  0.2824193E+004  0.1043930E+01  0.7957747E-01            NaN
         13   -1    0    0    0    0  0.00000000000E+00  0.00000000000E+00  0.74505805969E-08  0.10566000000E+00  0.10566000000E+00 0.  1.
     999900   -1    0    0    0    0 -0.00000000000E+00 -0.00000000000E+00 -0.74505805969E-08  0.93827000000E+00  0.93827000000E+00 0.  1.
     999902    2    1    2    0    0  0.12153158067E-01  0.50542354366E-02  0.14877452878E-02  0.10306839465E+01  0.10305988258E+01 0.  0.
     999903    2    3    3    0    0  0.31507668417E-01  0.47272521399E-02  0.13004537827E+00  0.14113250394E+00  0.44626261076E-01 0.  0.
         14    1    1    2    0    0 -0.12153158067E-01 -0.50542354366E-02 -0.14877452878E-02  0.13246053484E-01  0.00000000000E+00 0.  1.
     999901    1    3    3    0    0 -0.19354510350E-01  0.32698329674E-03 -0.12855763298E+00  0.88955144257E+00  0.88000000000E+00 0.  1.
        -11    1    4    4    0    0 -0.74649450509E-04  0.97102918586E-02  0.86830134406E-01  0.87372928888E-01  0.51100000000E-03 0. -1.
         11    1    4    4    0    0  0.31582317868E-01 -0.49830397187E-02  0.43215243864E-01  0.53759575053E-01  0.51100000000E-03 0.  1.
</event>
<event>
 7    1  0.2824193E+004  0.1043930E+01  0.7957747E-01            NaN
         13   -1    0    0    0    0  0.00000000000E+00  0.00000000000E+00  0.74505805969E-08  0.10566000000E+00  0.10566000000E+00 0. -1.
     999900   -1    0    0    0    0 -0.00000000000E+00 -0.00000000000E+00 -0.74505805969E-08  0.93827000000E+00  0.93827000000E+00 0.  1.
     999903    2    1    2    0    0  0.87553201390E-01 -0.34924000554E-01 -0.24163508636E-01  0.10633980278E+00  0.42883908609E-01 0.  0.
         14    1    1    2    0    0  0.35021786003E-01 -0.29209864409E-01  0.99114606463E-02  0.46668819631E-01  0.00000000000E+00 0. -1.
     999901    1    1    2    0    0 -0.12257498739E+00  0.64133864963E-01  0.14252047990E-01  0.89092137759E+00  0.88000000000E+00 0.  1.
        -11    1    3    3    0    0  0.65404279009E-01 -0.41762456279E-01 -0.28653089086E-01  0.82722929725E-01  0.51100000000E-03 0.  1.
         11    1    3    3    0    0  0.22148922381E-01  0.68384557247E-02  0.44895804495E-02  0.23616873056E-01  0.51100000000E-03 0. -1.
</event>
<event>
 8    1  0.2824193E+004  0.1043930E+01  0.7957747E-01            NaN
         13   -1    0    0    0    0  0.00000000000E+00  0.00000000000E+00  0.74505805969E-08  0.10566000000E+00  0.10566000000E+00 0. -1.
     999900   -1    0    0    0    0 -0.00000000000E+00 -0.00000000000E+00 -0.74505805969E-08  0.93827000000E+00  0.93827000000E+00 0. -1.
     999902    2    1    2    0    0 -0.83822970039E-02  0.86085415182E-03 -0.11193208492E-01  0.10299195793E+01  0.10298242801E+01 0.  0.
     999903    2    3    3    0    0  0.94506082500E-02  0.32097312033E-01 -0.12931417548E+00  0.14129913630E+00  0.46084037397E-01 0.  0.
         14    1    1    2    0    0  0.83822970039E-02 -0.86085415182E-03  0.11193208492E-01  0.14010420739E-01  0.00000000000E+00 0. -1.
     999901    1    3    3    0    0 -0.17832905254E-01 -0.31236457881E-01  0.11812096699E+00  0.88862044296E+00  0.88000000000E+00 0.  1.
        -11    1    4    4    0    0  0.12550911269E-01  0.42125173097E-01 -0.84277408146E-01  0.95052607681E-01  0.51100000000E-03 0. -1.
         11    1    4    4    0    0 -0.31003030192E-02 -0.10027861064E-01 -0.45036767332E-01  0.46246528617E-01  0.51100000000E-03 0.  1.
</event>
<event>
 8    1  0.2824193E+004  0.1043930E+01  0.7957747E-01            NaN
         13   -1    0    0    0    0  0.00000000000E+00  0.00000000000E+00  0.74505805969E-08  0.10566000000E+00  0.10566000000E+00 0.  1.
     999900   -1    0    0    0    0 -0.00000000000E+00 -0.00000000000E+00 -0.74505805969E-08  0.93827000000E+00  0.93827000000E+00 0. -1.
     999902    2    1    2    0    0 -0.33114612253E-02  0.65670539735E-02  0.11537545565E-01  0.10302476416E+01  0.10301567823E+01 0.  0.
     999903    2    3    3    0    0 -0.81315082999E-01 -0.67883448531E-01 -0.78113375146E-01  0.13914454437E+00  0.45157497094E-01 0.  0.
         14    1    1    2    0    0  0.33114612253E-02 -0.65670539735E-02 -0.11537545565E-01  0.13682358386E-01  0.00000000000E+00 0. -1.
     999901    1    3    3    0    0  0.78003621774E-01  0.74450502504E-01  0.89650920711E-01  0.89110309724E+00  0.88000000000E+00 0.  1.
        -11    1    4    4    0    0 -0.19716262367E-01 -0.44795146731E-01 -0.39234706671E-01  0.62729255543E-01  0.51100000000E-03 0.  1.
         11    1    4    4    0    0 -0.61598820632E-01 -0.23088301800E-01 -0.38878668474E-01  0.76415288828E-01  0.51100000000E-03 0. -1.
</event>
<event>
 8    1  0.2824193E+004  0.1043930E+01  0.7957747E-01            NaN
         13   -1    0    0    0    0  0.00000000000E+00  0.00000000000E+00  0.74505805969E-08  0.10566000000E+00  0.10566000000E+00 0.  1.
     999900   -1    0    0    0    0 -0.00000000000E+00 -0.00000000000E+00 -0.74505805969E-08  0.93827000000E+00  0.93827000000E+00 0. -1.
     999902    2    1    2    0    0  0.94233905868E-02 -0.10135197817E-01  0.46457416107E-03  0.10300830381E+01  0.10299899645E+01 0.  0.
     999903    2    3    3    0    0 -0.40452021071E-03  0.80957009793E-01 -0.10386259768E+00  0.13919666099E+00  0.45100666985E-01 0.  0.
         14    1    1    2    0    0 -0.94233905868E-02  0.10135197817E-01 -0.46457416107E-03  0.13846961909E-01  0.00000000000E+00 0. -1.
     999901    1    3    3    0    0  0.98279107976E-02 -0.91092207610E-01  0.10432717184E+00  0.89088637710E+00  0.88000000000E+00 0.  1.
        -11    1    4    4    0    0 -0.19345469672E-01  0.18112087423E-01 -0.23402352230E-01  0.35358536714E-01  0.51100000000E-03 0. -1.
         11    1    4    4    0    0  0.18940949461E-01  0.62844922369E-01 -0.80460245453E-01  0.10383812428E+00  0.51100000000E-03 0.  1.
</event>
<event>
 8    1  0.2824193E+004  0.1043930E+01  0.7957747E-01            NaN
         13   -1    0    0    0    0  0.00000000000E+00  0.00000000000E+00  0.74505805969E-08  0.10566000000E+00  0.10566000000E+00 0.  1.
     999900   -1    0    0    0    0 -0.00000000000E+00 -0.00000000000E+00 -0.74505805969E-08  0.93827000000E+00  0.93827000000E+00 0. -1.
     999902    2    1    2    0    0 -0.29819261358E-02  0.12902247387E-01  0.23630505348E-02  0.10304784618E+01  0.10303906620E+01 0.  0.
     999903    2    3    3    0    0  0.11392048059E+00 -0.62909135805E-01 -0.20512845776E-01  0.13922269319E+00  0.45019397943E-01 0.  0.
         14    1    1    2    0    0  0.29819261358E-02 -0.12902247387E-01 -0.23630505348E-02  0.13451538163E-01  0.00000000000E+00 0. -1.
     999901    1    3    3    0    0 -0.11690240673E+00  0.75811383192E-01  0.22875896311E-01  0.89125576865E+00  0.88000000000E+00 0. -1.
        -11    1    4    4    0    0  0.22422618498E-01  0.59250640750E-02 -0.39130483729E-02  0.23525587627E-01  0.51100000000E-03 0.  1.
         11    1    4    4    0    0  0.91497862091E-01 -0.68834199880E-01 -0.16599797403E-01  0.11569710556E+00  0.51100000000E-03 0. -1.
</event>
<event>
 8    1  0.2824193E+004  0.1043930E+01  0.7957747E-01            NaN
         13   -1    0    0    0    0  0.00000000000E+00  0.00000000000E+00  0.74505805969E-08  0.10566000000E+00  0.10566000000E+00 0. -1.
     999900   -1    0    0    0    0 -0.00000000000E+00 -0.00000000000E+00 -0.74505805969E-08  0.93827000000E+00  0.93827000000E+00 0.  1.
     999902    2    1    2    0    0  0.18974280628E-03 -0.32986781196E-02 -0.13807542251E-01  0.10297326234E+01  0.10296347460E+01 0.  0.
     999903    2    3    3    0    0 -0.92896449336E-01 -0.65639690064E-01  0.65984963669E-01  0.13904845662E+00  0.45190028169E-01 0.  0.
         14    1    1    2    0    0 -0.18974280628E-03  0.32986781196E-02  0.13807542251E-01  0.14197376613E-01  0.00000000000E+00 0. -1.
     999901    1    3    3    0    0  0.93086192142E-01  0.62341011944E-01 -0.79792505920E-01  0.89068416677E+00  0.88000000000E+00 0.  1.
        -11    1    4    4    0    0 -0.52709461918E-01 -0.25903918371E-01  0.56957013097E-01  0.81814808101E-01  0.51100000000E-03 0. -1.
         11    1    4    4    0    0 -0.40186987418E-01 -0.39735771692E-01  0.90279505714E-02  0.57233648514E-01  0.51100000000E-03 0.  1.
</event>
<event>
 8    1  0.2824193E+004  0.1043930E+01  0.7957747E-01            NaN
         13   -1    0    0    0    0  0.00000000000E+00  0.00000000000E+00  0.74505805969E-08  0.10566000000E+00  0.10566000000E+00 0. -1.
     999900   -1    0    0    0    0 -0.00000000000E+00 -0.00000000000E+00 -0.74505805969E-08  0.93827000000E+00  0.93827000000E+00 0.  1.
     999902    2    1    2    0    0 -0.10296221901E-01  0.83990373757E-02 -0.18734736184E-02  0.10305111358E+01  0.10304237648E+01 0.  0.
     999903    2    3    3    0    0  0.23319344412E-01 -0.91190984443E-01 -0.93328226440E-01  0.13954977264E+00  0.43639359829E-01 0.  0.
         14    1    1    2    0    0  0.10296221901E-01 -0.83990373757E-02  0.18734736184E-02  0.13418864247E-01  0.00000000000E+00 0.  1.
     999901    1    3    3    0    0 -0.33615566313E-01  0.99590021819E-01  0.91454752822E-01  0.89096136311E+00  0.88000000000E+00 0. -1.
        -11    1    4    4    0    0  0.14251296826E-01 -0.54771445160E-01 -0.83282375982E-01  0.10069372342E+00  0.51100000000E-03 0.  1.
         11    1    4    4    0    0  0.90680475853E-02 -0.36419539283E-01 -0.10045850458E-01  0.38856049221E-01  0.51100000000E-03 0. -1.
</event>
<event>
 8    1  0.2824193E+004  0.1043930E+01  0.7957747E-01            NaN
         13   -1    0    0    0    0  0.00000000000E+00  0.00000000000E+00  0.74505805969E-08  0.10566000000E+00  0.10566000000E+00 0.  1.
     999900   -1    0    0    0    0 -0.00000000000E+00 -0.00000000000E+00 -0.74505805969E-08  0.93827000000E+00  0.93827000000E+00 0.  1.
     999902    2    1    2    0    0  0.21536528578E-02  0.12338809702E-01  0.55120732869E-02  0.10302454321E+01  0.10301545433E+01 0.  0.
     999903    2    3    3    0    0 -0.28731001240E-01  0.66902379216E-01  0.11248313560E+00  0.14155321706E+00  0.45644919630E-01 0.  0.
         14    1    1    2    0    0 -0.21536528578E-02 -0.12338809702E-01 -0.55120732869E-02  0.13684567856E-01  0.00000000000E+00 0. -1.
     999901    1    3    3    0    0  0.30884654098E-01 -0.54563569515E-01 -0.10697106232E+00  0.88869221508E+00  0.88000000000E+00 0.  1.
        -11    1    4    4    0    0 -0.13971632002E-01 -0.29694074051E-02  0.15115484254E-01  0.20802953309E-01  0.51100000000E-03 0. -1.
         11    1    4    4    0    0 -0.14759369239E-01  0.69871786621E-01  0.97367651349E-01  0.12075026375E+00  0.51100000000E-03 0.  1.
</event>
<event>
 8    1  0.2824193E+004  0.1043930E+01  0.7957747E-01            NaN
         13   -1    0    0    0    0  0.00000000000E+00  0.00000000000E+00  0.74505805969E-08  0.10566000000E+00  0.10566000000E+00 0.  1.
     999900   -1    0    0    0    0 -0.00000000000E+00 -0.00000000000E+00 -0.74505805969E-08  0.93827000000E+00  0.93827000000E+00 0. -1.
     999902    2    1    2    0    0 -0.14811574459E-02 -0.14632646375E-01 -0.42572315747E-03  0.10292164210E+01  0.10291112437E+01 0.  0.
     999903    2    3    3    0    0 -0.18267829378E-01 -0.11122630376E+00 -0.71064879935E-01  0.14095856570E+00  0.45979298022E-01 0.  0.
         14    1    1    2    0    0  0.14811574459E-02  0.14632646375E-01  0.42572315747E-03  0.14713579018E-01  0.00000000000E+00 0. -1.
     999901    1    3    3    0    0  0.16786671932E-01  0.96593657380E-01  0.70639156778E-01  0.88825785528E+00  0.88000000000E+00 0.  1.
        -11    1    4    4    0    0 -0.22947878841E-01 -0.46358039879E-01 -0.12001586174E-01  0.53103410403E-01  0.51100000000E-03 0.  1.
         11    1    4    4    0    0  0.46800494630E-02 -0.64868263876E-01 -0.59063293761E-01  0.87855155297E-01  0.51100000000E-03 0. -1.
</event>
<event>
 8    1  0.2824193E+004  0.1043930E+01  0.7957747E-01            NaN
         13   -1    0    0    0    0  0.00000000000E+00  0.00000000000E+00  0.74505805969E-08  0.10566000000E+00  0.10566000000E+00 0. -1.
     999900   -1    0    0    0    0 -0.00000000000E+00 -0.00000000000E+00 -0.74505805969E-08  0.93827000000E+00  0.93827000000E+00 0.  1.
     999902    2    1    2    0    0 -0.69365841429E-02 -0.21568059354E-02 -0.11445273659E-01  0.10303741046E+01  0.10302849281E+01 0.  0.
     999903    2    3    3    0    0 -0.84014591440E-01 -0.80274826016E-01 -0.67270692207E-01  0.14180226077E+00  0.45607410157E-01 0.  0.
         14    1    1    2    0    0  0.69365841429E-02  0.21568059354E-02  0.11445273659E-01  0.13555895417E-01  0.00000000000E+00 0.  1.
     999901    1    3    3    0    0  0.77078007297E-01  0.78118020081E-01  0.55825418548E-01  0.88857184382E+00  0.88000000000E+00 0. -1.
        -11    1    4    4    0    0 -0.79513553849E-01 -0.66949599308E-01 -0.40500974471E-01  0.11155825450E+00  0.51100000000E-03 0. -1.
         11    1    4    4    0    0 -0.45010375913E-02 -0.13325226708E-01 -0.26769717736E-01  0.30244006264E-01  0.51100000000E-03 0.  1.
</event>
<event>
 8    1  0.2824193E+004  0.1043930E+01  0.7957747E-01            NaN
         13   -1    0    0    0    0  0.00000000000E+00  0.00000000000E+00  0.74505805969E-08  0.10566000000E+00  0.10566000000E+00 0. -1.
     999900   -1    0    0    0    0 -0.00000000000E+00 -0.00000000000E+00 -0.74505805969E-08  0.93827000000E+00  0.93827000000E+00 0. -1.
     999902    2    1    2    0    0  0.13931134859E-01  0.27760183380E-02 -0.28157468756E-02  0.10294485903E+01  0.10293467292E+01 0.  0.
     999903    2    3    3    0    0 -0.74020785605E-02  0.69111354859E-01  0.10660579695E+00  0.13993829969E+00  0.58195890224E-01 0.  0.
         14    1    1    2    0    0 -0.13931134859E-01 -0.27760183380E-02  0.28157468756E-02  0.14481409694E-01  0.00000000000E+00 0.  1.
     999901    1    3    3    0    0  0.21333213419E-01 -0.66335336521E-01 -0.10942154382E+00  0.88951029062E+00  0.88000000000E+00 0.  1.
        -11    1    4    4    0    0  0.20700911141E-01  0.51971709217E-01  0.53204549784E-01  0.77204737677E-01  0.51100000000E-03 0. -1.
         11    1    4    4    0    0 -0.28102989701E-01  0.17139645642E-01  0.53401247162E-01  0.62733562009E-01  0.51100000000E-03 0.  1.
</event>
<event>
 8    1  0.2824193E+004  0.1043930E+01  0.7957747E-01            NaN
         13   -1    0    0    0    0  0.00000000000E+00  0.00000000000E+00  0.74505805969E-08  0.10566000000E+00  0.10566000000E+00 0.  1.
     999900   -1    0    0    0    0 -0.00000000000E+00 -0.00000000000E+00 -0.74505805969E-08  0.93827000000E+00  0.93827000000E+00 0.  1.
     999902    2    1    2    0    0  0.12298860306E-01  0.66636519741E-03  0.58407150355E-02  0.10302984205E+01  0.10302082388E+01 0.  0.
     999903    2    3    3    0    0 -0.75762181264E-01 -0.99787335259E-01  0.37309653100E-01  0.13966045419E+00  0.49148874478E-01 0.  0.
         14    1    1    2    0    0 -0.12298860306E-01 -0.66636519741E-03 -0.58407150355E-02  0.13631579495E-01  0.00000000000E+00 0. -1.
     999901    1    3    3    0    0  0.88061041570E-01  0.10045370046E+00 -0.31468938064E-01  0.89063796631E+00  0.88000000000E+00 0. -1.
        -11    1    4    4    0    0 -0.34341938509E-01 -0.14418373561E-01  0.22789344880E-01  0.43667763828E-01  0.51100000000E-03 0. -1.
         11    1    4    4    0    0 -0.41420242755E-01 -0.85368961698E-01  0.14520308220E-01  0.95992690362E-01  0.51100000000E-03 0.  1.
</event>
<event>
 8    1  0.2824193E+004  0.1043930E+01  0.7957747E-01            NaN
         13   -1    0    0    0    0  0.00000000000E+00  0.00000000000E+00  0.74505805969E-08  0.10566000000E+00  0.10566000000E+00 0. -1.
     999900   -1    0    0    0    0 -0.00000000000E+00 -0.00000000000E+00 -0.74505805969E-08  0.93827000000E+00  0.93827000000E+00 0.  1.
     999902    2    1    2    0    0  0.10471969130E-01 -0.85122184055E-02 -0.15436329787E-02  0.10303468191E+01  0.10302572809E+01 0.  0.
     999903    2    3    3    0    0  0.50587486545E-02  0.46010444042E-01 -0.12458525145E+00  0.14009895278E+00  0.44313426784E-01 0.  0.
         14    1    1    2    0    0 -0.10471969130E-01  0.85122184055E-02  0.15436329787E-02  0.13583180865E-01  0.00000000000E+00 0.  1.
     999901    1    3    3    0    0  0.54132204752E-02 -0.54522662447E-01  0.12304161847E+00  0.89024786636E+00  0.88000000000E+00 0. -1.
        -11    1    4    4    0    0 -0.18648848361E-01  0.24785069293E-01 -0.75202833531E-01  0.81349901642E-01  0.51100000000E-03 0.  1.
         11    1    4    4    0    0  0.23707597016E-01  0.21225374749E-01 -0.49382417915E-01  0.58749051138E-01  0.51100000000E-03 0. -1.
</event>
<event>
 8    1  0.2824193E+004  0.1043930E+01  0.7957747E-01            NaN
         13   -1    0    0    0    0  0.00000000000E+00  0.00000000000E+00  0.74505805969E-08  0.10566000000E+00  0.10566000000E+00 0.  1.
     999900   -1    0    0    0    0 -0.00000000000E+00 -0.00000000000E+00 -0.74505805969E-08  0.93827000000E+00  0.93827000000E+00 0.  1.
     999902    2    1    2    0    0  0.11668515427E-01  0.19807283815E-02  0.85515580724E-02  0.10293284014E+01  0.10292248302E+01 0.  0.
     999903    2    3    3    0    0  0.64940047333E-01 -0.11162308506E+00  0.30879997459E-01  0.14014774382E+00  0.44842981499E-01 0.  0.
         14    1    1    2    0    0 -0.11668515427E-01 -0.19807283815E-02 -0.85515580724E-02  0.14601598634E-01  0.00000000000E+00 0. -1.
     999901    1    3    3    0    0 -0.53271531906E-01  0.11360381344E+00 -0.22328439387E-01  0.88918065754E+00  0.88000000000E+00 0.  1.
        -11    1    4    4    0    0  0.34708901415E-01 -0.73225315549E-01 -0.23114287057E-02  0.81069467115E-01  0.51100000000E-03 0.  1.
         11    1    4    4    0    0  0.30231145919E-01 -0.38397769512E-01  0.33191426165E-01  0.59078276709E-01  0.51100000000E-03 0. -1.
</event>
<event>
 8    1  0.2824193E+004  0.1043930E+01  0.7957747E-01            NaN
         13   -1    0    0    0    0  0.00000000000E+00  0.00000000000E+00  0.74505805969E-08  0.10566000000E+00  0.10566000000E+00 0. -1.
     999900   -1    0    0    0    0 -0.00000000000E+00 -0.00000000000E+00 -0.74505805969E-08  0.93827000000E+00  0.93827000000E+00 0. -1.
     999902    2    1    2    0    0 -0.38971170181E-02 -0.12670340211E-01  0.40997485380E-02  0.10300543746E+01  0.10299609127E+01 0.  0.
     999903    2    3    3    0    0  0.92819810463E-02 -0.11022608981E+00  0.76386565965E-01  0.14161968546E+00  0.44556501236E-01 0.  0.
         14    1    1    2    0    0  0.38971170181E-02  0.12670340211E-01 -0.40997485380E-02  0.13875625399E-01  0.00000000000E+00 0.  1.
     999901    1    3    3    0    0 -0.13179098064E-01  0.97555749595E-01 -0.72286817427E-01  0.88843468915E+00  0.88000000000E+00 0. -1.
        -11    1    4    4    0    0 -0.17666194985E-01 -0.51737390310E-01  0.31209127576E-01  0.62953338009E-01  0.51100000000E-03 0. -1.
         11    1    4    4    0    0  0.26948176032E-01 -0.58488699496E-01  0.45177438389E-01  0.78666347447E-01  0.51100000000E-03 0.  1.
</event>
<event>
 8    1  0.2824193E+004  0.1043930E+01  0.7957747E-01            NaN
         13   -1    0    0    0    0  0.00000000000E+00  0.00000000000E+00  0.74505805969E-08  0.10566000000E+00  0.10566000000E+00 0. -1.
     999900   -1    0    0    0    0 -0.00000000000E+00 -0.00000000000E+00 -0.74505805969E-08  0.93827000000E+00  0.93827000000E+00 0. -1.
     999902    2    1    2    0    0 -0.69199788944E-02 -0.10906417492E-01 -0.53143558925E-02  0.10299629520E+01  0.10298682460E+01 0.  0.
     999903    2    3    3    0    0 -0.12951855040E+00  0.24267236682E-01  0.20439879019E-01  0.14039514894E+00  0.43921014527E-01 0.  0.
         14    1    1    2    0    0  0.69199788944E-02  0.10906417492E-01  0.53143558925E-02  0.13967047969E-01  0.00000000000E+00 0. -1.
     999901    1    3    3    0    0  0.12259857151E+00 -0.35173654173E-01 -0.25754234912E-01  0.88956780309E+00  0.88000000000E+00 0.  1.
        -11    1    4    4    0    0 -0.77421410776E-01  0.27514960689E-01  0.29718437697E-01  0.87376167050E-01  0.51100000000E-03 0. -1.
         11    1    4    4    0    0 -0.52097139625E-01 -0.32477240071E-02 -0.92785586781E-02  0.53018981888E-01  0.51100000000E-03 0.  1.
</event>
<event>
 8    1  0.2824193E+004  0.1043930E+01  0.7957747E-01            NaN
         13   -1    0    0    0    0  0.00000000000E+00  0.00000000000E+00  0.74505805969E-08  0.10566000000E+00  0.10566000000E+00 0. -1.
     999900   -1    0    0    0    0 -0.00000000000E+00 -0.00000000000E+00 -0.74505805969E-08  0.93827000000E+00  0.93827000000E+00 0.  1.
     999902    2    1    2    0    0 -0.61880721675E-02  0.46668829114E-02  0.11310358699E-01  0.10302188277E+01  0.10301275827E+01 0.  0.
     999903    2    3    3    0    0  0.12818868743E+00 -0.83112672935E-02  0.29829293435E-01  0.13973104175E+00  0.46190480957E-01 0.  0.
         14    1    1    2    0    0  0.61880721675E-02 -0.46668829114E-02 -0.11310358699E-01  0.13711172348E-01  0.00000000000E+00 0.  1.
     999901    1    3    3    0    0 -0.13437675960E+00  0.12978150205E-01 -0.18518934736E-01  0.89048778591E+00  0.88000000000E+00 0.  1.
        -11    1    4    4    0    0  0.93172810382E-01 -0.10622078639E-01  0.16481776853E-03  0.93777872843E-01  0.51100000000E-03 0. -1.
         11    1    4    4    0    0  0.35015877050E-01  0.23108113453E-02  0.29664475666E-01  0.45953168903E-01  0.51100000000E-03 0.  1.
</event>
<event>
 8    1  0.2824193E+004  0.1043930E+01  0.7957747E-01            NaN
         13   -1    0    0    0    0  0.00000000000E+00  0.00000000000E+00  0.74505805969E-08  0.10566000000E+00  0.10566000000E+00 0.  1.
     999900   -1    0    0    0    0 -0.00000000000E+00 -0.00000000000E+00 -0.74505805969E-08  0.93827000000E+00  0.93827000000E+00 0. -1.
     999902    2    1    2    0    0 -0.12297543710E-01  0.40209113942E-02 -0.62792108333E-02  0.10295485606E+01  0.10294481108E+01 0.  0.
     999903    2    3    3    0    0  0.11601170244E+00 -0.21257512476E-01  0.51550330168E-01  0.13800690867E+00  0.49778241834E-01 0.  0.
         14    1    1    2    0    0  0.12297543710E-01 -0.40209113942E-02  0.62792108333E-02  0.14381439373E-01  0.00000000000E+00 0.  1.
     999901    1    3    3    0    0 -0.12830924615E+00  0.25278423870E-01 -0.57829541002E-01  0.89154165196E+00  0.88000000000E+00 0. -1.
        -11    1    4    4    0    0  0.11107614073E+00 -0.26767831746E-01  0.34401727418E-01  0.11932378567E+00  0.51100000000E-03 0.  1.
         11    1    4    4    0    0  0.49355617137E-02  0.55103192699E-02  0.17148602750E-01  0.18683123004E-01  0.51100000000E-03 0. -1.
</event>
<event>
 8    1  0.2824193E+004  0.1043930E+01  0.7957747E-01            NaN
         13   -1    0    0    0    0  0.00000000000E+00  0.00000000000E+00  0.74505805969E-08  0.10566000000E+00  0.10566000000E+00 0. -1.
     999900   -1    0    0    0    0 -0.00000000000E+00 -0.00000000000E+00 -0.74505805969E-08  0.93827000000E+00  0.93827000000E+00 0.  1.
     999902    2    1    2    0    0 -0.18682542244E-02  0.12630733663E-01 -0.61382423435E-02  0.10297630022E+01  0.10296655462E+01 0.  0.
     999903    2    3    3    0    0  0.65004083253E-02 -0.98372017088E-01  0.84941380376E-01  0.13808641127E+00  0.46189932064E-01 0.  0.
         14    1    1    2    0    0  0.18682542244E-02 -0.12630733663E-01  0.61382423435E-02  0.14166997769E-01  0.00000000000E+00 0. -1.
     999901    1    3    3    0    0 -0.83686625497E-02  0.11100275075E+00 -0.91079622719E-01  0.89167659096E+00  0.88000000000E+00 0.  1.
        -11    1    4    4    0    0  0.18857218790E-01 -0.79188644850E-01  0.47536732334E-01  0.94267906605E-01  0.51100000000E-03 0.  1.
         11    1    4    4    0    0 -0.12356810465E-01 -0.19183372237E-01  0.37404648041E-01  0.43818504668E-01  0.51100000000E-03 0. -1.
</event>
<event>
 8    1  0.2824193E+004  0.1043930E+01  0.7957747E-01            NaN
         13   -1    0    0    0    0  0.00000000000E+00  0.00000000000E+00  0.74505805969E-08  0.10566000000E+00  0.10566000000E+00 0.  1.
     999900   -1    0    0    0    0 -0.00000000000E+00 -0.00000000000E+00 -0.74505805969E-08  0.93827000000E+00  0.93827000000E+00 0.  1.
     999902    2    1    2    0    0 -0.99512704908E-02  0.82764733455E-02  0.35353018887E-02  0.10305126174E+01  0.10304252659E+01 0.  0.
     999903    2    3    3    0    0  0.68467367375E-01  0.89134717250E-01 -0.71675008314E-01  0.14015082067E+00  0.43268550985E-01 0.  0.
         14    1    1    2    0    0  0.99512704908E-02 -0.82764733455E-02 -0.35353018887E-02  0.13417382564E-01  0.00000000000E+00 0.  1.
     999901    1    3    3    0    0 -0.78418637866E-01 -0.80858243905E-01  0.75210310202E-01  0.89036179676E+00  0.88000000000E+00 0.  1.
        -11    1    4    4    0    0  0.37146817809E-01  0.77904481596E-01 -0.44042791949E-01  0.96896970901E-01  0.51100000000E-03 0. -1.
         11    1    4    4    0    0  0.31320549566E-01  0.11230235654E-01 -0.27632216365E-01  0.43253849773E-01  0.51100000000E-03 0.  1.
</event>
<event>
 8    1  0.2824193E+004  0.1043930E+01  0.7957747E-01            NaN
         13   -1    0    0    0    0  0.00000000000E+00  0.00000000000E+00  0.74505805969E-08  0.10566000000E+00  0.10566000000E+00 0.  1.
     999900   -1    0    0    0    0 -0.00000000000E+00 -0.00000000000E+00 -0.74505805969E-08  0.93827000000E+00  0.93827000000E+00 0.  1.
     999902    2    1    2    0    0  0.11642703709E-01  0.70005042629E-02 -0.68113341836E-03  0.10303276637E+01  0.10302378711E+01 0.  0.
     999903    2    3    3    0    0 -0.82498550119E-02  0.11118875526E+00 -0.73868645574E-01  0.14094174216E+00  0.44463451038E-01 0.  0.
         14    1    1    2    0    0 -0.11642703709E-01 -0.70005042629E-02  0.68113341836E-03  0.13602336281E-01  0.00000000000E+00 0. -1.
     999901    1    3    3    0    0  0.19892558720E-01 -0.10418825100E+00  0.73187512155E-01  0.88938592156E+00  0.88000000000E+00 0. -1.
        -11    1    4    4    0    0  0.22618236326E-02  0.39418334769E-01 -0.31112995407E-02  0.39608866027E-01  0.51100000000E-03 0.  1.
         11    1    4    4    0    0 -0.10511678645E-01  0.71770420494E-01 -0.70757346033E-01  0.10133287613E+00  0.51100000000E-03 0. -1.
</event>
<event>
 8    1  0.2824193E+004  0.1043930E+01  0.7957747E-01            NaN
         13   -1    0    0    0    0  0.00000000000E+00  0.00000000000E+00  0.74505805969E-08  0.10566000000E+00  0.10566000000E+00 0. -1.
     999900   -1    0    0    0    0 -0.00000000000E+00 -0.00000000000E+00 -0.74505805969E-08  0.93827000000E+00  0.93827000000E+00 0. -1.
     999902    2    1    2    0    0  0.98410536633E-02  0.10347325058E-01 -0.12310111845E-03  0.10296496419E+01  0.10295506090E+01 0.  0.
     999903    2    3    3    0    0 -0.12195052709E-01  0.78757050870E-01  0.10677306036E+00  0.14027217992E+00  0.43868048388E-01 0.  0.
         14    1    1    2    0    0 -0.98410536633E-02 -0.10347325058E-01  0.12310111845E-03  0.14280358082E-01  0.00000000000E+00 0. -1.
     999901    1    3    3    0    0  0.22036106372E-01 -0.68409725812E-01 -0.10689616148E+00  0.88937746200E+00  0.88000000000E+00 0. -1.
        -11    1    4    4    0    0 -0.10302757531E-01  0.14491645207E-02  0.29745894402E-02  0.10833106382E-01  0.51100000000E-03 0. -1.
         11    1    4    4    0    0 -0.18922951778E-02  0.77307886350E-01  0.10379847092E+00  0.12943907354E+00  0.51100000000E-03 0.  1.
</event>
<event>
 8    1  0.2824193E+004  0.1043930E+01  0.7957747E-01            NaN
         13   -1    0    0    0    0  0.00000000000E+00  0.00000000000E+00  0.74505805969E-08  0.10566000000E+00  0.10566000000E+00 0.  1.
     999900   -1    0    0    0    0 -0.00000000000E+00 -0.00000000000E+00 -0.74505805969E-08  0.93827000000E+00  0.93827000000E+00 0.  1.
     999902    2    1    2    0    0  0.12110290821E-01 -0.11505581334E-01 -0.63462194925E-02  0.10260606954E+01  0.10259050826E+01 0.  0.
     999903    2    3    3    0    0 -0.76123893116E-01 -0.49208045772E-01 -0.91875168717E-01  0.13672276850E+00  0.45119728807E-01 0.  0.
         14    1    1    2    0    0 -0.12110290821E-01  0.11505581334E-01  0.63462194925E-02  0.17869304616E-01  0.00000000000E+00 0.  1.
     999901    1    3    3    0    0  0.88234183937E-01  0.37702464437E-01  0.85528949224E-01  0.88933792688E+00  0.88000000000E+00 0.  1.
        -11    1    4    4    0    0 -0.18792814975E-01  0.13939135028E-02 -0.23709396888E-02  0.18999878040E-01  0.51100000000E-03 0. -1.
         11    1    4    4    0    0 -0.57331078141E-01 -0.50601959274E-01 -0.89504229028E-01  0.11772289046E+00  0.51100000000E-03 0.  1.
</event>
<event>
 8    1  0.2824193E+004  0.1043930E+01  0.7957747E-01            NaN
         13   -1    0    0    0    0  0.00000000000E+00  0.00000000000E+00  0.74505805969E-08  0.10566000000E+00  0.10566000000E+00 0. -1.
     999900   -1    0    0    0    0 -0.00000000000E+00 -0.00000000000E+00 -0.74505805969E-08  0.93827000000E+00  0.93827000000E+00 0.  1.
     999902    2    1    2    0    0 -0.56969443920E-02 -0.52618943108E-02 -0.11861359444E-01  0.10297583891E+01  0.10296608691E+01 0.  0.
     999903    2    3    3    0    0 -0.40770009479E-01 -0.42434870256E-01 -0.12071911912E+00  0.14157937457E+00  0.44818541898E-01 0.  0.
         14    1    1    2    0    0  0.56969443920E-02  0.52618943108E-02  0.11861359444E-01  0.14171610883E-01  0.00000000000E+00 0. -1.
     999901    1    3    3    0    0  0.35073065087E-01  0.37172975945E-01  0.10885775967E+00  0.88817901454E+00  0.88000000000E+00 0. -1.
        -11    1    4    4    0    0 -0.15113728045E-01  0.17112095853E-02 -0.61642204650E-01  0.63493114026E-01  0.51100000000E-03 0. -1.
         11    1    4    4    0    0 -0.25656281434E-01 -0.44146079841E-01 -0.59076914466E-01  0.78086260547E-01  0.51100000000E-03 0.  1.
</event>
<event>
 8    1  0.2824193E+004  0.1043930E+01  0.7957747E-01            NaN
         13   -1    0    0    0    0  0.00000000000E+00  0.00000000000E+00  0.74505805969E-08  0.10566000000E+00  0.10566000000E+00 0.  1.
     999900   -1    0    0    0    0 -0.00000000000E+00 -0.00000000000E+00 -0.74505805969E-08  0.93827000000E+00  0.93827000000E+00 0.  1.
     999902    2    1    2    0    0 -0.10661187077E-01  0.79225323072E-02 -0.96058678574E-02  0.10275379249E+01  0.10274071671E+01 0.  0.
     999903    2    3    3    0    0 -0.14643817681E-01  0.12792055760E+00  0.23139596039E-01  0.13878168566E+00  0.46333626196E-01 0.  0.
         14    1    1    2    0    0  0.10661187077E-01 -0.79225323072E-02  0.96058678574E-02  0.16392075078E-01  0.00000000000E+00 0.  1.
     999901    1    3    3    0    0  0.39826306033E-02 -0.11999802529E+00 -0.32745463897E-01  0.88875623926E+00  0.88000000000E+00 0.  1.
        -11    1    4    4    0    0  0.44022550453E-02  0.35284527627E-01  0.26177721964E-01  0.44157807775E-01  0.51100000000E-03 0. -1.
         11    1    4    4    0    0 -0.19046072726E-01  0.92636029975E-01 -0.30381259245E-02  0.94623877885E-01  0.51100000000E-03 0.  1.
</event>
<event>
 8    1  0.2824193E+004  0.1043930E+01  0.7957747E-01            NaN
         13   -1    0    0    0    0  0.00000000000E+00  0.00000000000E+00  0.74505805969E-08  0.10566000000E+00  0.10566000000E+00 0. -1.
     999900   -1    0    0    0    0 -0.00000000000E+00 -0.00000000000E+00 -0.74505805969E-08  0.93827000000E+00  0.93827000000E+00 0.  1.
     999902    2    1    2    0    0 -0.62735547176E-02 -0.97906460127E-02  0.90851121866E-02  0.10291735268E+01  0.10290677309E+01 0.  0.
     999903    2    3    3    0    0  0.19101276325E-01  0.12714975499E+00  0.22524124656E-01  0.13811956516E+00  0.45141545586E-01 0.  0.
         14    1    1    2    0    0  0.62735547176E-02  0.97906460127E-02 -0.90851121866E-02  0.14756473210E-01  0.00000000000E+00 0.  1.
     999901    1    3    3    0    0 -0.25374831042E-01 -0.13694040100E+00 -0.13439012469E-01  0.89105396163E+00  0.88000000000E+00 0. -1.
        -11    1    4    4    0    0  0.10845921516E-01  0.67455435403E-01  0.34710487075E-01  0.76635166946E-01  0.51100000000E-03 0.  1.
         11    1    4    4    0    0  0.82553548087E-02  0.59694319587E-01 -0.12186362419E-01  0.61484398216E-01  0.51100000000E-03 0. -1.
</event>
<event>
 8    1  0.2824193E+004  0.1043930E+01  0.7957747E-01            NaN
         13   -1    0    0    0    0  0.00000000000E+00  0.00000000000E+00  0.74505805969E-08  0.10566000000E+00  0.10566000000E+00 0. -1.
     999900   -1    0    0    0    0 -0.00000000000E+00 -0.00000000000E+00 -0.74505805969E-08  0.93827000000E+00  0.93827000000E+00 0. -1.
     999902    2    1    2    0    0  0.23294808987E-02 -0.10504952410E-01 -0.13140001639E-01  0.10269464742E+01  0.10268060287E+01 0.  0.
     999903    2    3    3    0    0  0.10303897810E+00  0.22323015443E-01 -0.77353203371E-01  0.13827138531E+00  0.44945632665E-01 0.  0.
         14    1    1    2    0    0 -0.23294808987E-02  0.10504952410E-01  0.13140001639E-01  0.16983525825E-01  0.00000000000E+00 0. -1.
     999901    1    3    3    0    0 -0.10070949720E+00 -0.32827967853E-01  0.64213201732E-01  0.88867508887E+00  0.88000000000E+00 0. -1.
        -11    1    4    4    0    0  0.76820739883E-01  0.26107131535E-01 -0.35112489872E-01  0.88409029285E-01  0.51100000000E-03 0.  1.
         11    1    4    4    0    0  0.26218238218E-01 -0.37841160917E-02 -0.42240713500E-01  0.49862356020E-01  0.51100000000E-03 0. -1.
</event>
<event>
 8    1  0.2824193E+004  0.1043930E+01  0.7957747E-01            NaN
         13   -1    0    0    0    0  0.00000000000E+00  0.00000000000E+00  0.74505805969E-08  0.10566000000E+00  0.10566000000E+00 0. -1.
     999900   -1    0    0    0    0 -0.00000000000E+00 -0.00000000000E+00 -0.74505805969E-08  0.93827000000E+00  0.93827000000E+00 0.  1.
     999902    2    1    2    0    0  0.10574556819E-01  0.77964791586E-02 -0.66609579705E-02  0.10291999389E+01  0.10290945241E+01 0.  0.
     999903    2    3    3    0    0 -0.45971397285E-01  0.42269666023E-01 -0.11701284399E+00  0.13983871628E+00  0.44303124920E-01 0.  0.
         14    1    1    2    0    0 -0.10574556819E-01 -0.77964791586E-02  0.66609579705E-02  0.14730061109E-01  0.00000000000E+00 0. -1.
     999901    1    3    3    0    0  0.56545954104E-01 -0.34473186864E-01  0.11035188602E+00  0.88936122261E+00  0.88000000000E+00 0. -1.
        -11    1    4    4    0    0 -0.13618569672E-01  0.40343203153E-02 -0.69021294527E-01  0.70469435924E-01  0.51100000000E-03 0.  1.
         11    1    4    4    0    0 -0.32352827613E-01  0.38235345708E-01 -0.47991549464E-01  0.69369280355E-01  0.51100000000E-03 0. -1.
</event>
<event>
 8    1  0.2824193E+004  0.1043930E+01  0.7957747E-01            NaN
         13   -1    0    0    0    0  0.00000000000E+00  0.00000000000E+00  0.74505805969E-08  0.10566000000E+00  0.10566000000E+00 0. -1.
     999900   -1    0    0    0    0 -0.00000000000E+00 -0.00000000000E+00 -0.74505805969E-08  0.93827000000E+00  0.93827000000E+00 0. -1.
     999902    2    1    2    0    0 -0.45544592098E-02  0.48523995086E-02  0.12076490602E-01  0.10301412181E+01  0.10300489303E+01 0.  0.
     999903    2    3    3    0    0  0.23358980591E-01 -0.11938402996E+00 -0.49885179353E-01  0.13882023272E+00  0.44545901147E-01 0.  0.
         14    1    1    2    0    0  0.45544592098E-02 -0.48523995086E-02 -0.12076490602E-01  0.13788781852E-01  0.00000000000E+00 0.  1.
     999901    1    3    3    0    0 -0.27913439801E-01  0.12423642947E+00  0.61961669955E-01  0.89132098543E+00  0.88000000000E+00 0.  1.
        -11    1    4    4    0    0  0.20736236369E-01 -0.96594585351E-01 -0.19430694169E-01  0.10068921697E+00  0.51100000000E-03 0.  1.
         11    1    4    4    0    0  0.26227442219E-02 -0.22789444608E-01 -0.30454485184E-01  0.38131015743E-01  0.51100000000E-03 0. -1.
</event>
<event>
 8    1  0.2824193E+004  0.1043930E+01  0.7957747E-01            NaN
         13   -1    0    0    0    0  0.00000000000E+00  0.00000000000E+00  0.74505805969E-08  0.10566000000E+00  0.10566000000E+00 0. -1.
     999900   -1    0    0    0    0 -0.00000000000E+00 -0.00000000000E+00 -0.74505805969E-08  0.93827000000E+00  0.93827000000E+00 0.  1.
     999902    2    1    2    0    0 -0.86086822306E-02 -0.19048924919E-02  0.10625595995E-01  0.10301227079E+01  0.10300301704E+01 0.  0.
     999903    2    3    3    0    0 -0.20162666481E-01  0.31167676623E-01 -0.12809356507E+00  0.13856772079E+00  0.37617743768E-01 0.  0.
         14    1    1    2    0    0  0.86086822306E-02  0.19048924919E-02 -0.10625595995E-01  0.13807292110E-01  0.00000000000E+00 0.  1.
     999901    1    3    3    0    0  0.11553984250E-01 -0.33072569115E-01  0.13871916107E+00  0.89155498710E+00  0.88000000000E+00 0. -1.
        -11    1    4    4    0    0 -0.75576247813E-02 -0.83894861978E-02 -0.29230232814E-01  0.31339572466E-01  0.51100000000E-03 0.  1.
         11    1    4    4    0    0 -0.12605041700E-01  0.39557162821E-01 -0.98863332256E-01  0.10722814832E+00  0.51100000000E-03 0. -1.
</event>
<event>
 8    1  0.2824193E+004  0.1043930E+01  0.7957747E-01            NaN
         13   -1    0    0    0    0  0.00000000000E+00  0.00000000000E+00  0.74505805969E-08  0.10566000000E+00  0.10566000000E+00 0. -1.
     999900   -1    0    0    0    0 -0.00000000000E+00 -0.00000000000E+00 -0.74505805969E-08  0.93827000000E+00  0.93827000000E+00 0. -1.
     999902    2    1    2    0    0  0.15741586586E-01 -0.10109069262E-01  0.86602455275E-03  0.10252019241E+01  0.10250308504E+01 0.  0.
     999903    2    3    3    0    0 -0.93452168179E-01 -0.86572230504E-01  0.17743315516E-02  0.13516219679E+00  0.45139919778E-01 0.  0.
         14    1    1    2    0    0 -0.15741586586E-01  0.10109069262E-01 -0.86602455275E-03  0.18728075932E-01  0.00000000000E+00 0. -1.
     999901    1    3    3    0    0  0.10919375476E+00  0.76463161242E-01 -0.90830699884E-03  0.89003972728E+00  0.88000000000E+00 0.  1.
        -11    1    4    4    0    0 -0.79471531318E-02 -0.24282123828E-01 -0.12440480495E-01  0.28421918591E-01  0.51100000000E-03 0. -1.
         11    1    4    4    0    0 -0.85505015047E-01 -0.62290106677E-01  0.14214812046E-01  0.10674027820E+00  0.51100000000E-03 0.  1.
</event>
<event>
 8    1  0.2824193E+004  0.1043930E+01  0.7957747E-01            NaN
         13   -1    0    0    0    0  0.00000000000E+00  0.00000000000E+00  0.74505805969E-08  0.10566000000E+00  0.10566000000E+00 0. -1.
     999900   -1    0    0    0    0 -0.00000000000E+00 -0.00000000000E+00 -0.74505805969E-08  0.93827000000E+00  0.93827000000E+00 0. -1.
     999902    2    1    2    0    0  0.11439400247E-01 -0.72416829467E-02 -0.18092569747E-02  0.10302707445E+01  0.10301801938E+01 0.  0.
     999903    2    3    3    0    0  0.69201629484E-01  0.99987977723E-01 -0.55568880712E-01  0.14025682754E+00  0.42398301312E-01 0.  0.
         14    1    1    2    0    0 -0.11439400247E-01  0.72416829467E-02  0.18092569747E-02  0.13659255496E-01  0.00000000000E+00 0. -1.
     999901    1    3    3    0    0 -0.57762229238E-01 -0.10722966067E+00  0.53759623737E-01  0.89001391697E+00  0.88000000000E+00 0. -1.
        -11    1    4    4    0    0  0.45662001351E-01  0.48003095441E-01 -0.95356826778E-02  0.66936581212E-01  0.51100000000E-03 0. -1.
         11    1    4    4    0    0  0.23539628134E-01  0.51984882283E-01 -0.46033198034E-01  0.73320246323E-01  0.51100000000E-03 0.  1.
</event>
<event>
 8    1  0.2824193E+004  0.1043930E+01  0.7957747E-01            NaN
         13   -1    0    0    0    0  0.00000000000E+00  0.00000000000E+00  0.74505805969E-08  0.10566000000E+00  0.10566000000E+00 0.  1.
     999900   -1    0    0    0    0 -0.00000000000E+00 -0.00000000000E+00 -0.74505805969E-08  0.93827000000E+00  0.93827000000E+00 0.  1.
     999902    2    1    2    0    0 -0.69845231983E-02 -0.86777125767E-02  0.19799898439E-01  0.10212116762E+01  0.10209589440E+01 0.  0.
     999903    2    3    3    0    0 -0.92905448404E-01  0.77457897739E-01 -0.24926863329E-01  0.13171618322E+00  0.45789257912E-01 0.  0.
         14    1    1    2    0    0  0.69845231983E-02  0.86777125767E-02 -0.19799898439E-01  0.22718323839E-01  0.00000000000E+00 0. -1.
     999901    1    3    3    0    0  0.85920925205E-01 -0.86135610316E-01  0.44726761768E-01  0.88949549295E+00  0.88000000000E+00 0.  1.
        -11    1    4    4    0    0 -0.44678789055E-01  0.57625526074E-01  0.21647685690E-02  0.72950961548E-01  0.51100000000E-03 0.  1.
         11    1    4    4    0    0 -0.48226659349E-01  0.19832371665E-01 -0.27091631898E-01  0.58765221668E-01  0.51100000000E-03 0. -1.
</event>
<event>
 8    1  0.2824193E+004  0.1043930E+01  0.7957747E-01            NaN
         13   -1    0    0    0    0  0.00000000000E+00  0.00000000000E+00  0.74505805969E-08  0.10566000000E+00  0.10566000000E+00 0.  1.
     999900   -1    0    0    0    0 -0.00000000000E+00 -0.00000000000E+00 -0.74505805969E-08  0.93827000000E+00  0.93827000000E+00 0. -1.
     999902    2    1    2    0    0  0.51733560191E-03 -0.23253171883E-02 -0.39367524740E-02  0.10393286137E+01  0.10393184278E+01 0.  0.
     999903    2    3    3    0    0  0.50430228976E-01  0.96739568217E-01 -0.89645070984E-01  0.14823318426E+00  0.45111928698E-01 0.  0.
         14    1    1    2    0    0 -0.51733560191E-03  0.23253171883E-02  0.39367524740E-02  0.46013863338E-02  0.00000000000E+00 0.  1.
     999901    1    3    3    0    0 -0.49912893374E-01 -0.99064885406E-01  0.85708318510E-01  0.89109542941E+00  0.88000000000E+00 0.  1.
        -11    1    4    4    0    0  0.10869294829E-01  0.62289307407E-01 -0.34143688805E-01  0.71862034438E-01  0.51100000000E-03 0.  1.
         11    1    4    4    0    0  0.39560934147E-01  0.34450260810E-01 -0.55501382179E-01  0.76371149823E-01  0.51100000000E-03 0. -1.
</event>
<event>
 8    1  0.2824193E+004  0.1043930E+01  0.7957747E-01            NaN
         13   -1    0    0    0    0  0.00000000000E+00  0.00000000000E+00  0.74505805969E-08  0.10566000000E+00  0.10566000000E+00 0. -1.
     999900   -1    0    0    0    0 -0.00000000000E+00 -0.00000000000E+00 -0.74505805969E-08  0.93827000000E+00  0.93827000000E+00 0.  1.
     999902    2    1    2    0    0 -0.15904432599E-01 -0.12009338305E-01  0.58516300822E-02  0.10231594257E+01  0.10229485782E+01 0.  0.
     999903    2    3    3    0    0  0.10562963761E+00  0.58718094712E-01  0.31178814356E-01  0.13163580498E+00  0.41838160832E-01 0.  0.
         14    1    1    2    0    0  0.15904432599E-01  0.12009338305E-01 -0.58516300822E-02  0.20770574316E-01  0.00000000000E+00 0. -1.
     999901    1    3    3    0    0 -0.12153407020E+00 -0.70727433018E-01 -0.25327184274E-01  0.89152362070E+00  0.88000000000E+00 0.  1.
        -11    1    4    4    0    0  0.66750257280E-01  0.58420733184E-01  0.25795897712E-01  0.92381103980E-01  0.51100000000E-03 0. -1.
         11    1    4    4    0    0  0.38879380325E-01  0.29736152850E-03  0.53829166445E-02  0.39254701005E-01  0.51100000000E-03 0.  1.
</event>
<event>
 8    1  0.2824193E+004  0.1043930E+01  0.7957747E-01            NaN
         13   -1    0    0    0    0  0.00000000000E+00  0.00000000000E+00  0.74505805969E-08  0.10566000000E+00  0.10566000000E+00 0. -1.
     999900   -1    0    0    0    0 -0.00000000000E+00 -0.00000000000E+00 -0.74505805969E-08  0.93827000000E+00  0.93827000000E+00 0. -1.
     999902    2    1    2    0    0  0.12145678039E-01  0.27517856973E-02 -0.10149678685E-01  0.10278643286E+01  0.10277387665E+01 0.  0.
     999903    2    3    3    0    0 -0.51864187642E-01  0.76020622300E-01 -0.93226715414E-01  0.13861330705E+00  0.45314450794E-01 0.  0.
         14    1    1    2    0    0 -0.12145678039E-01 -0.27517856973E-02  0.10149678685E-01  0.16065671382E-01  0.00000000000E+00 0. -1.
     999901    1    3    3    0    0  0.64009865681E-01 -0.73268836603E-01  0.83077036729E-01  0.88925102156E+00  0.88000000000E+00 0.  1.
        -11    1    4    4    0    0  0.80059222924E-02  0.46154814513E-02 -0.10600034360E-01  0.14071933421E-01  0.51100000000E-03 0. -1.
         11    1    4    4    0    0 -0.59870109935E-01  0.71405140849E-01 -0.82626681053E-01  0.12454137363E+00  0.51100000000E-03 0.  1.
</event>
<event>
 8    1  0.2824193E+004  0.1043930E+01  0.7957747E-01            NaN
         13   -1    0    0    0    0  0.00000000000E+00  0.00000000000E+00  0.74505805969E-08  0.10566000000E+00  0.10566000000E+00 0. -1.
     999900   -1    0    0    0    0 -0.00000000000E+00 -0.00000000000E+00 -0.74505805969E-08  0.93827000000E+00  0.93827000000E+00 0. -1.
     999902    2    1    2    0    0  0.22857244195E-01  0.10046060399E-01  0.67592362665E-02  0.10180637243E+01  0.10177350749E+01 0.  0.
     999903    2    3    3    0    0 -0.47371858838E-01  0.69585841601E-01  0.87287056318E-01  0.12960334691E+00  0.45735270508E-01 0.  0.
         14    1    1    2    0    0 -0.22857244195E-01 -0.10046060399E-01 -0.67592362665E-02  0.25866275662E-01  0.00000000000E+00 0. -1.
     999901    1    3    3    0    0  0.70229103033E-01 -0.59539781202E-01 -0.80527820052E-01  0.88846037743E+00  0.88000000000E+00 0.  1.
        -11    1    4    4    0    0 -0.44257431466E-02  0.46534147705E-01  0.47949292377E-01  0.66965736504E-01  0.51100000000E-03 0.  1.
         11    1    4    4    0    0 -0.42946115692E-01  0.23051693895E-01  0.39337763941E-01  0.62637610406E-01  0.51100000000E-03 0. -1.
</event>
<event>
 8    1  0.2824193E+004  0.1043930E+01  0.7957747E-01            NaN
         13   -1    0    0    0    0  0.00000000000E+00  0.00000000000E+00  0.74505805969E-08  0.10566000000E+00  0.10566000000E+00 0. -1.
     999900   -1    0    0    0    0 -0.00000000000E+00 -0.00000000000E+00 -0.74505805969E-08  0.93827000000E+00  0.93827000000E+00 0.  1.
     999902    2    1    2    0    0  0.45392715986E-02 -0.10106696427E-01  0.33194123045E-02  0.10323641538E+01  0.10322993642E+01 0.  0.
     999903    2    3    3    0    0  0.11791038819E+00 -0.63713770348E-01  0.13390981280E-01  0.14341636856E+00  0.49260858864E-01 0.  0.
         14    1    1    2    0    0 -0.45392715986E-02  0.10106696427E-01 -0.33194123045E-02  0.11565846159E-01  0.00000000000E+00 0. -1.
     999901    1    3    3    0    0 -0.11337111659E+00  0.53607073920E-01 -0.10071568975E-01  0.88894778528E+00  0.88000000000E+00 0. -1.
        -11    1    4    4    0    0  0.70250140567E-01 -0.21791437805E-01 -0.12961145955E-01  0.74687357945E-01  0.51100000000E-03 0.  1.
         11    1    4    4    0    0  0.47660247626E-01 -0.41922332542E-01  0.26352127235E-01  0.68729010616E-01  0.51100000000E-03 0. -1.
</event>
<event>
 8    1  0.2824193E+004  0.1043930E+01  0.7957747E-01            NaN
         13   -1    0    0    0    0  0.00000000000E+00  0.00000000000E+00  0.74505805969E-08  0.10566000000E+00  0.10566000000E+00 0. -1.
     999900   -1    0    0    0    0 -0.00000000000E+00 -0.00000000000E+00 -0.74505805969E-08  0.93827000000E+00  0.93827000000E+00 0. -1.
     999902    2    1    2    0    0  0.26824229545E-03 -0.42278735312E-02  0.13159527188E-01  0.10301053834E+01  0.10300126120E+01 0.  0.
     999903    2    3    3    0    0  0.82674270281E-01  0.46938333634E-01 -0.89991976848E-01  0.13878671592E+00  0.46097228629E-01 0.  0.
         14    1    1    2    0    0 -0.26824229545E-03  0.42278735312E-02 -0.13159527188E-01  0.13824616607E-01  0.00000000000E+00 0.  1.
     999901    1    3    3    0    0 -0.82406027986E-01 -0.51166207165E-01  0.10315150404E+00  0.89131866747E+00  0.88000000000E+00 0. -1.
        -11    1    4    4    0    0  0.70011334663E-02  0.20640522192E-01 -0.57804203431E-02  0.22554853281E-01  0.51100000000E-03 0. -1.
         11    1    4    4    0    0  0.75673136815E-01  0.26297811442E-01 -0.84211556505E-01  0.11623186264E+00  0.51100000000E-03 0.  1.
</event>
<event>
 8    1  0.2824193E+004  0.1043930E+01  0.7957747E-01            NaN
         13   -1    0    0    0    0  0.00000000000E+00  0.00000000000E+00  0.74505805969E-08  0.10566000000E+00  0.10566000000E+00 0.  1.
     999900   -1    0    0    0    0 -0.00000000000E+00 -0.00000000000E+00 -0.74505805969E-08  0.93827000000E+00  0.93827000000E+00 0.  1.
     999902    2    1    2    0    0 -0.11300969518E-01 -0.17526853937E-02 -0.43894320760E-02  0.10316804722E+01  0.10316077480E+01 0.  0.
     999903    2    3    3    0    0  0.97079741172E-01 -0.39992142906E-01  0.81072009170E-01  0.14010193244E+00  0.45078078519E-01 0.  0.
         14    1    1    2    0    0  0.11300969518E-01  0.17526853937E-02  0.43894320760E-02  0.12249527831E-01  0.00000000000E+00 0.  1.
     999901    1    3    3    0    0 -0.10838071069E+00  0.38239457512E-01 -0.85461441246E-01  0.89157853973E+00  0.88000000000E+00 0.  1.
        -11    1    4    4    0    0  0.60704624463E-01 -0.21678672899E-01  0.75046146861E-01  0.98930286412E-01  0.51100000000E-03 0. -1.
         11    1    4    4    0    0  0.36375116709E-01 -0.18313470007E-01  0.60258623093E-02  0.41171646031E-01  0.51100000000E-03 0.  1.
</event>
<event>
 8    1  0.2824193E+004  0.1043930E+01  0.7957747E-01            NaN
         13   -1    0    0    0    0  0.00000000000E+00  0.00000000000E+00  0.74505805969E-08  0.10566000000E+00  0.10566000000E+00 0. -1.
     999900   -1    0    0    0    0 -0.00000000000E+00 -0.00000000000E+00 -0.74505805969E-08  0.93827000000E+00  0.93827000000E+00 0. -1.
     999902    2    1    2    0    0 -0.56102116408E-02  0.64731227358E-03 -0.12828681624E-01  0.10299132757E+01  0.10298178902E+01 0.  0.
     999903    2    3    3    0    0  0.12083594936E+00  0.12494856902E-01 -0.53829090609E-01  0.13985146353E+00  0.43628118802E-01 0.  0.
         14    1    1    2    0    0  0.56102116408E-02 -0.64731227358E-03  0.12828681624E-01  0.14016724298E-01  0.00000000000E+00 0. -1.
     999901    1    3    3    0    0 -0.12644616100E+00 -0.11847544628E-01  0.41000408985E-01  0.89006181217E+00  0.88000000000E+00 0.  1.
        -11    1    4    4    0    0  0.57920419851E-01  0.72925968269E-03 -0.28055737057E-02  0.57995165490E-01  0.51100000000E-03 0. -1.
         11    1    4    4    0    0  0.62915529507E-01  0.11765597219E-01 -0.51023516903E-01  0.81856298043E-01  0.51100000000E-03 0.  1.
</event>
<event>
 8    1  0.2824193E+004  0.1043930E+01  0.7957747E-01            NaN
         13   -1    0    0    0    0  0.00000000000E+00  0.00000000000E+00  0.74505805969E-08  0.10566000000E+00  0.10566000000E+00 0. -1.
     999900   -1    0    0    0    0 -0.00000000000E+00 -0.00000000000E+00 -0.74505805969E-08  0.93827000000E+00  0.93827000000E+00 0.  1.
     999902    2    1    2    0    0 -0.10269018027E-01 -0.71023708413E-02  0.73542968277E-02  0.10294392414E+01  0.10293372478E+01 0.  0.
     999903    2    3    3    0    0  0.95762894018E-01 -0.65827473305E-01  0.62146280165E-01  0.13944285632E+00  0.45589054911E-01 0.  0.
         14    1    1    2    0    0  0.10269018027E-01  0.71023708413E-02 -0.73542968277E-02  0.14490758594E-01  0.00000000000E+00 0.  1.
     999901    1    3    3    0    0 -0.10603191204E+00  0.58725102463E-01 -0.54791983337E-01  0.88999638509E+00  0.88000000000E+00 0.  1.
        -11    1    4    4    0    0  0.49358740694E-01 -0.22538518215E-01  0.52032334795E-01  0.75179086662E-01  0.51100000000E-03 0.  1.
         11    1    4    4    0    0  0.46404153324E-01 -0.43288955090E-01  0.10113945370E-01  0.64263769656E-01  0.51100000000E-03 0. -1.
</event>
<event>
 8    1  0.2824193E+004  0.1043930E+01  0.7957747E-01            NaN
         13   -1    0    0    0    0  0.00000000000E+00  0.00000000000E+00  0.74505805969E-08  0.10566000000E+00  0.10566000000E+00 0. -1.
     999900   -1    0    0    0    0 -0.00000000000E+00 -0.00000000000E+00 -0.74505805969E-08  0.93827000000E+00  0.93827000000E+00 0.  1.
     999902    2    1    2    0    0 -0.15414930772E-02 -0.13397529246E-01  0.39543207028E-02  0.10298762943E+01  0.10297804013E+01 0.  0.
     999903    2    3    3    0    0 -0.73991885847E-01  0.40384285661E-01  0.10211272788E+00  0.13983325272E+00  0.44951525782E-01 0.  0.
         14    1    1    2    0    0  0.15414930772E-02  0.13397529246E-01 -0.39543207028E-02  0.14053705669E-01  0.00000000000E+00 0.  1.
     999901    1    3    3    0    0  0.72450392770E-01 -0.53781814907E-01 -0.98158407179E-01  0.89004304161E+00  0.88000000000E+00 0.  1.
        -11    1    4    4    0    0 -0.12739279905E-01  0.27219423253E-01  0.50003060587E-01  0.58341695585E-01  0.51100000000E-03 0.  1.
         11    1    4    4    0    0 -0.61252605943E-01  0.13164862407E-01  0.52109667295E-01  0.81491557131E-01  0.51100000000E-03 0. -1.
</event>
<event>
 8    1  0.2824193E+004  0.1043930E+01  0.7957747E-01            NaN
         13   -1    0    0    0    0  0.00000000000E+00  0.00000000000E+00  0.74505805969E-08  0.10566000000E+00  0.10566000000E+00 0. -1.
     999900   -1    0    0    0    0 -0.00000000000E+00 -0.00000000000E+00 -0.74505805969E-08  0.93827000000E+00  0.93827000000E+00 0. -1.
     999902    2    1    2    0    0  0.57541765370E-02 -0.76852881947E-02  0.97318299603E-02  0.10302594946E+01  0.10301687937E+01 0.  0.
     999903    2    3    3    0    0 -0.17259175209E-01  0.11590466888E+00  0.61814429484E-01  0.13980079879E+00  0.44625869784E-01 0.  0.
         14    1    1    2    0    0 -0.57541765370E-02  0.76852881947E-02 -0.97318299603E-02  0.13670505354E-01  0.00000000000E+00 0.  1.
     999901    1    3    3    0    0  0.23013351746E-01 -0.12358995707E+00 -0.52082599523E-01  0.89045869585E+00  0.88000000000E+00 0. -1.
        -11    1    4    4    0    0 -0.26435564302E-01  0.81687787947E-01  0.59166932554E-01  0.10427233952E+00  0.51100000000E-03 0.  1.
         11    1    4    4    0    0  0.91763890928E-02  0.34216880931E-01  0.26474969292E-02  0.35528459275E-01  0.51100000000E-03 0. -1.
</event>
<event>
 8    1  0.2824193E+004  0.1043930E+01  0.7957747E-01            NaN
         13   -1    0    0    0    0  0.00000000000E+00  0.00000000000E+00  0.74505805969E-08  0.10566000000E+00  0.10566000000E+00 0. -1.
     999900   -1    0    0    0    0 -0.00000000000E+00 -0.00000000000E+00 -0.74505805969E-08  0.93827000000E+00  0.93827000000E+00 0. -1.
     999902    2    1    2    0    0 -0.12162283648E-01 -0.31824118691E-02  0.63031952959E-02  0.10298666021E+01  0.10297705759E+01 0.  0.
     999903    2    3    3    0    0 -0.11822467535E+00  0.44134357376E-01 -0.45982609058E-01  0.14069737587E+00  0.41909854172E-01 0.  0.
         14    1    1    2    0    0  0.12162283648E-01  0.31824118691E-02 -0.63031952959E-02  0.14063397875E-01  0.00000000000E+00 0.  1.
     999901    1    3    3    0    0  0.10606239171E+00 -0.47316769245E-01  0.52285804354E-01  0.88916922626E+00  0.88000000000E+00 0.  1.
        -11    1    4    4    0    0 -0.59299627451E-01  0.20713442366E-01 -0.77281010590E-03  0.62819987798E-01  0.51100000000E-03 0.  1.
         11    1    4    4    0    0 -0.58925047903E-01  0.23420915011E-01 -0.45209798952E-01  0.77877388070E-01  0.51100000000E-03 0. -1.
</event>
<event>
 8    1  0.2824193E+004  0.1043930E+01  0.7957747E-01            NaN
         13   -1    0    0    0    0  0.00000000000E+00  0.00000000000E+00  0.74505805969E-08  0.10566000000E+00  0.10566000000E+00 0.  1.
     999900   -1    0    0    0    0 -0.00000000000E+00 -0.00000000000E+00 -0.74505805969E-08  0.93827000000E+00  0.93827000000E+00 0.  1.
     999902    2    1    2    0    0 -0.40612110368E-02  0.88668161488E-02 -0.24091183111E-02  0.10338842191E+01  0.10338354128E+01 0.  0.
     999903    2    3    3    0    0  0.12274434332E+00 -0.56339437864E-01 -0.71659678244E-02  0.14239438076E+00  0.44547755274E-01 0.  0.
         14    1    1    2    0    0  0.40612110368E-02 -0.88668161488E-02  0.24091183111E-02  0.10045780942E-01  0.00000000000E+00 0. -1.
     999901    1    3    3    0    0 -0.12680555436E+00  0.65206254013E-01  0.47568495133E-02  0.89148983830E+00  0.88000000000E+00 0. -1.
        -11    1    4    4    0    0  0.45045938600E-01 -0.14423080142E-01 -0.23168266554E-01  0.52670594465E-01  0.51100000000E-03 0.  1.
         11    1    4    4    0    0  0.77698404720E-01 -0.41916357722E-01  0.16002298730E-01  0.89723786291E-01  0.51100000000E-03 0. -1.
</event>
<event>
 8    1  0.2824193E+004  0.1043930E+01  0.7957747E-01            NaN
         13   -1    0    0    0    0  0.00000000000E+00  0.00000000000E+00  0.74505805969E-08  0.10566000000E+00  0.10566000000E+00 0.  1.
     999900   -1    0    0    0    0 -0.00000000000E+00 -0.00000000000E+00 -0.74505805969E-08  0.93827000000E+00  0.93827000000E+00 0.  1.
     999902    2    1    2    0    0 -0.65286125521E-02 -0.13090969296E-01 -0.52944907664E-02  0.10283727544E+01  0.10282550725E+01 0.  0.
     999903    2    3    3    0    0 -0.55053038092E-01 -0.91954800727E-01 -0.78547308492E-01  0.14048757087E+00  0.45613106862E-01 0.  0.
         14    1    1    2    0    0  0.65286125521E-02  0.13090969296E-01  0.52944907664E-02  0.15557245625E-01  0.00000000000E+00 0.  1.
     999901    1    3    3    0    0  0.48524425540E-01  0.78863831431E-01  0.73252817726E-01  0.88788518350E+00  0.88000000000E+00 0. -1.
        -11    1    4    4    0    0 -0.53120744141E-01 -0.83227188738E-01 -0.84314404654E-01  0.12983743049E+00  0.51100000000E-03 0.  1.
         11    1    4    4    0    0 -0.19322939509E-02 -0.87276119889E-02  0.57670961621E-02  0.10650140379E-01  0.51100000000E-03 0. -1.
</event>
<event>
 8    1  0.2824193E+004  0.1043930E+01  0.7957747E-01            NaN
         13   -1    0    0    0    0  0.00000000000E+00  0.00000000000E+00  0.74505805969E-08  0.10566000000E+00  0.10566000000E+00 0.  1.
     999900   -1    0    0    0    0 -0.00000000000E+00 -0.00000000000E+00 -0.74505805969E-08  0.93827000000E+00  0.93827000000E+00 0.  1.
     999902    2    1    2    0    0 -0.90647382239E-02  0.28149130076E-02 -0.99829115706E-02  0.10301549596E+01  0.10300628569E+01 0.  0.
     999903    2    3    3    0    0  0.26846423508E-01 -0.12909232818E+00  0.71453125750E-02  0.13943474098E+00  0.44782048297E-01 0.  0.
         14    1    1    2    0    0  0.90647382239E-02 -0.28149130076E-02  0.99829115706E-02  0.13775040390E-01  0.00000000000E+00 0.  1.
     999901    1    3    3    0    0 -0.35911161732E-01  0.13190724119E+00 -0.17128224146E-01  0.89072021863E+00  0.88000000000E+00 0.  1.
        -11    1    4    4    0    0  0.13993499865E-01 -0.61982526616E-01  0.25831599653E-01  0.68594346019E-01  0.51100000000E-03 0. -1.
         11    1    4    4    0    0  0.12852923643E-01 -0.67109801566E-01 -0.18686287078E-01  0.70840394961E-01  0.51100000000E-03 0.  1.
</event>
<event>
 8    1  0.2824193E+004  0.1043930E+01  0.7957747E-01            NaN
         13   -1    0    0    0    0  0.00000000000E+00  0.00000000000E+00  0.74505805969E-08  0.10566000000E+00  0.10566000000E+00 0. -1.
     999900   -1    0    0    0    0 -0.00000000000E+00 -0.00000000000E+00 -0.74505805969E-08  0.93827000000E+00  0.93827000000E+00 0. -1.
     999902    2    1    2    0    0  0.66586337330E-02  0.11146320990E-01 -0.34253798743E-02  0.10305020031E+01  0.10304145123E+01 0.  0.
     999903    2    3    3    0    0  0.11138755053E-01  0.61366911672E-01 -0.11879493827E+00  0.14154063481E+00  0.45072655022E-01 0.  0.
         14    1    1    2    0    0 -0.66586337330E-02 -0.11146320990E-01  0.34253798743E-02  0.13427996950E-01  0.00000000000E+00 0. -1.
     999901    1    3    3    0    0 -0.44801213203E-02 -0.50220590682E-01  0.11536955840E+00  0.88896136824E+00  0.88000000000E+00 0.  1.
        -11    1    4    4    0    0 -0.17516813573E-01  0.26115805678E-01 -0.51564108261E-01  0.60398612945E-01  0.51100000000E-03 0. -1.
         11    1    4    4    0    0  0.28655568627E-01  0.35251105994E-01 -0.67230830014E-01  0.81142021866E-01  0.51100000000E-03 0.  1.
</event>
<event>
 8    1  0.2824193E+004  0.1043930E+01  0.7957747E-01            NaN
         13   -1    0    0    0    0  0.00000000000E+00  0.00000000000E+00  0.74505805969E-08  0.10566000000E+00  0.10566000000E+00 0.  1.
     999900   -1    0    0    0    0 -0.00000000000E+00 -0.00000000000E+00 -0.74505805969E-08  0.93827000000E+00  0.93827000000E+00 0.  1.
     999902    2    1    2    0    0  0.11901199136E-02 -0.29573315842E-02  0.12968323288E-01  0.10305756148E+01  0.10304890869E+01 0.  0.
     999903    2    3    3    0    0 -0.43057993206E-01  0.78445513766E-01  0.10009877837E+00  0.14143218713E+00  0.44447820139E-01 0.  0.
         14    1    1    2    0    0 -0.11901199136E-02  0.29573315842E-02 -0.12968323288E-01  0.13354385213E-01  0.00000000000E+00 0. -1.
     999901    1    3    3    0    0  0.44248113119E-01 -0.81402845350E-01 -0.87130455085E-01  0.88914342766E+00  0.88000000000E+00 0.  1.
        -11    1    4    4    0    0 -0.26786112107E-01  0.17828301248E-01  0.14522468257E-01  0.35305910730E-01  0.51100000000E-03 0.  1.
         11    1    4    4    0    0 -0.16271881099E-01  0.60617212519E-01  0.85576310117E-01  0.10612627640E+00  0.51100000000E-03 0. -1.
</event>
<event>
 8    1  0.2824193E+004  0.1043930E+01  0.7957747E-01            NaN
         13   -1    0    0    0    0  0.00000000000E+00  0.00000000000E+00  0.74505805969E-08  0.10566000000E+00  0.10566000000E+00 0. -1.
     999900   -1    0    0    0    0 -0.00000000000E+00 -0.00000000000E+00 -0.74505805969E-08  0.93827000000E+00  0.93827000000E+00 0.  1.
     999902    2    1    2    0    0  0.88341030861E-02 -0.32103135214E-02  0.10364244027E-01  0.10299383938E+01  0.10298433521E+01 0.  0.
     999903    2    3    3    0    0 -0.52333356676E-01  0.19482581328E-01 -0.11860466053E+00  0.13814839387E+00  0.43583965327E-01 0.  0.
         14    1    1    2    0    0 -0.88341030861E-02  0.32103135214E-02 -0.10364244027E-01  0.13991606215E-01  0.00000000000E+00 0.  1.
     999901    1    3    3    0    0  0.61167459762E-01 -0.22692894849E-01  0.12896890455E+00  0.89178999992E+00  0.88000000000E+00 0. -1.
        -11    1    4    4    0    0 -0.34890784380E-01  0.24697711847E-01 -0.43981869392E-01  0.61335224474E-01  0.51100000000E-03 0.  1.
         11    1    4    4    0    0 -0.17442572296E-01 -0.52151305192E-02 -0.74622791134E-01  0.76813169393E-01  0.51100000000E-03 0. -1.
</event>
<event>
 8    1  0.2824193E+004  0.1043930E+01  0.7957747E-01            NaN
         13   -1    0    0    0    0  0.00000000000E+00  0.00000000000E+00  0.74505805969E-08  0.10566000000E+00  0.10566000000E+00 0. -1.
     999900   -1    0    0    0    0 -0.00000000000E+00 -0.00000000000E+00 -0.74505805969E-08  0.93827000000E+00  0.93827000000E+00 0. -1.
     999902    2    1    2    0    0  0.72779888641E-02 -0.28715371111E-02 -0.11012144295E-01  0.10304214039E+01  0.10303328527E+01 0.  0.
     999903    2    3    3    0    0 -0.75061981299E-01 -0.78944204223E-01  0.74234825051E-01  0.13922335229E+00  0.44786651532E-01 0.  0.
         14    1    1    2    0    0 -0.72779888641E-02  0.28715371111E-02  0.11012144295E-01  0.13508596125E-01  0.00000000000E+00 0.  1.
     999901    1    3    3    0    0  0.82339970163E-01  0.76072667112E-01 -0.85246969346E-01  0.89119805159E+00  0.88000000000E+00 0. -1.
        -11    1    4    4    0    0 -0.13888984447E-01 -0.17809249180E-01  0.40531789419E-01  0.46402158569E-01  0.51100000000E-03 0.  1.
         11    1    4    4    0    0 -0.61172996852E-01 -0.61134955043E-01  0.33703035632E-01  0.92821193721E-01  0.51100000000E-03 0. -1.
</event>
<event>
 8    1  0.2824193E+004  0.1043930E+01  0.7957747E-01            NaN
         13   -1    0    0    0    0  0.00000000000E+00  0.00000000000E+00  0.74505805969E-08  0.10566000000E+00  0.10566000000E+00 0.  1.
     999900   -1    0    0    0    0 -0.00000000000E+00 -0.00000000000E+00 -0.74505805969E-08  0.93827000000E+00  0.93827000000E+00 0.  1.
     999902    2    1    2    0    0  0.68203159764E-02 -0.27163884619E-02 -0.11251197766E-01  0.10304955321E+01  0.10304079565E+01 0.  0.
     999903    2    3    3    0    0 -0.36381937792E-02 -0.10261643827E-01 -0.13469813279E+00  0.14178553607E+00  0.42907032893E-01 0.  0.
         14    1    1    2    0    0 -0.68203159764E-02  0.27163884619E-02  0.11251197766E-01  0.13434467889E-01  0.00000000000E+00 0. -1.
     999901    1    3    3    0    0  0.10458509756E-01  0.75452553648E-02  0.12344693503E+00  0.88870999605E+00  0.88000000000E+00 0. -1.
        -11    1    4    4    0    0  0.10000846607E-01 -0.20490811070E-01 -0.10579146655E+00  0.10822192841E+00  0.51100000000E-03 0. -1.
         11    1    4    4    0    0 -0.13639040386E-01  0.10229167243E-01 -0.28906666238E-01  0.33563607660E-01  0.51100000000E-03 0.  1.
</event>
<event>
 8    1  0.2824193E+004  0.1043930E+01  0.7957747E-01            NaN
         13   -1    0    0    0    0  0.00000000000E+00  0.00000000000E+00  0.74505805969E-08  0.10566000000E+00  0.10566000000E+00 0.  1.
     999900   -1    0    0    0    0 -0.00000000000E+00 -0.00000000000E+00 -0.74505805969E-08  0.93827000000E+00  0.93827000000E+00 0.  1.
     999902    2    1    2    0    0  0.66645061538E-02  0.40995179661E-02  0.95481771525E-02  0.10315853908E+01  0.10315115264E+01 0.  0.
     999903    2    3    3    0    0 -0.76813643355E-02  0.13434288755E+00  0.37136503029E-02  0.14186454634E+00  0.44774362270E-01 0.  0.
         14    1    1    2    0    0 -0.66645061538E-02 -0.40995179661E-02 -0.95481771525E-02  0.12344609219E-01  0.00000000000E+00 0. -1.
     999901    1    3    3    0    0  0.14345870489E-01 -0.13024336959E+00  0.58345268496E-02  0.88972084444E+00  0.88000000000E+00 0. -1.
        -11    1    4    4    0    0  0.22273757464E-02  0.56159006041E-01 -0.19847825045E-01  0.59606983167E-01  0.51100000000E-03 0.  1.
         11    1    4    4    0    0 -0.99087400819E-02  0.78183881512E-01  0.23561475348E-01  0.82257563178E-01  0.51100000000E-03 0. -1.
</event>
<event>
 8    1  0.2824193E+004  0.1043930E+01  0.7957747E-01            NaN
         13   -1    0    0    0    0  0.00000000000E+00  0.00000000000E+00  0.74505805969E-08  0.10566000000E+00  0.10566000000E+00 0.  1.
     999900   -1    0    0    0    0 -0.00000000000E+00 -0.00000000000E+00 -0.74505805969E-08  0.93827000000E+00  0.93827000000E+00 0. -1.
     999902    2    1    2    0    0  0.11176908604E-01 -0.62530821318E-02  0.56049649035E-02  0.10299500160E+01  0.10298551332E+01 0.  0.
     999903    2    3    3    0    0 -0.37687936404E-01  0.10392341868E+00 -0.74846498297E-01  0.13809853038E+00  0.35337632707E-01 0.  0.
         14    1    1    2    0    0 -0.11176908604E-01  0.62530821318E-02 -0.56049649035E-02  0.13979984036E-01  0.00000000000E+00 0. -1.
     999901    1    3    3    0    0  0.48864845008E-01 -0.11017650081E+00  0.80451463201E-01  0.89185148558E+00  0.88000000000E+00 0.  1.
        -11    1    4    4    0    0 -0.31621918442E-01  0.93908045047E-01 -0.50812442774E-01  0.11135902349E+00  0.51100000000E-03 0. -1.
         11    1    4    4    0    0 -0.60660179616E-02  0.10015373631E-01 -0.24034055523E-01  0.26739506891E-01  0.51100000000E-03 0.  1.
</event>
<event>
 8    1  0.2824193E+004  0.1043930E+01  0.7957747E-01            NaN
         13   -1    0    0    0    0  0.00000000000E+00  0.00000000000E+00  0.74505805969E-08  0.10566000000E+00  0.10566000000E+00 0. -1.
     999900   -1    0    0    0    0 -0.00000000000E+00 -0.00000000000E+00 -0.74505805969E-08  0.93827000000E+00  0.93827000000E+00 0. -1.
     999902    2    1    2    0    0 -0.81765918787E-02  0.10728287483E-01  0.27662126512E-02  0.10301602963E+01  0.10300682654E+01 0.  0.
     999903    2    3    3    0    0  0.94336217299E-01 -0.75308534574E-01  0.51753796876E-01  0.13869465245E+00  0.44576382223E-01 0.  0.
         14    1    1    2    0    0  0.81765918787E-02 -0.10728287483E-01 -0.27662126512E-02  0.13769703683E-01  0.00000000000E+00 0.  1.
     999901    1    3    3    0    0 -0.10251280918E+00  0.86036822057E-01 -0.48987584224E-01  0.89146564387E+00  0.88000000000E+00 0.  1.
        -11    1    4    4    0    0  0.49768359328E-01 -0.53202363454E-01  0.51011875975E-01  0.88937358174E-01  0.51100000000E-03 0.  1.
         11    1    4    4    0    0  0.44567857971E-01 -0.22106171119E-01  0.74192090026E-03  0.49757294272E-01  0.51100000000E-03 0. -1.
</event>
<event>
 8    1  0.2824193E+004  0.1043930E+01  0.7957747E-01            NaN
         13   -1    0    0    0    0  0.00000000000E+00  0.00000000000E+00  0.74505805969E-08  0.10566000000E+00  0.10566000000E+00 0. -1.
     999900   -1    0    0    0    0 -0.00000000000E+00 -0.00000000000E+00 -0.74505805969E-08  0.93827000000E+00  0.93827000000E+00 0.  1.
     999902    2    1    2    0    0 -0.62490524826E-02 -0.48382959104E-02  0.11655091825E-01  0.10298480637E+01  0.10297517824E+01 0.  0.
     999903    2    3    3    0    0 -0.81606175215E-01  0.77197042681E-01  0.62453481813E-01  0.14137242018E+00  0.58879305060E-01 0.  0.
         14    1    1    2    0    0  0.62490524826E-02  0.48382959104E-02 -0.11655091825E-01  0.14081936291E-01  0.00000000000E+00 0.  1.
     999901    1    3    3    0    0  0.75357122732E-01 -0.82035338591E-01 -0.50798389988E-01  0.88847564353E+00  0.88000000000E+00 0. -1.
        -11    1    4    4    0    0 -0.51214576621E-01  0.42092565522E-01  0.67564203423E-01  0.94656746383E-01  0.51100000000E-03 0. -1.
         11    1    4    4    0    0 -0.30391598594E-01  0.35104477159E-01 -0.51107216092E-02  0.46715673794E-01  0.51100000000E-03 0.  1.
</event>
<event>
 8    1  0.2824193E+004  0.1043930E+01  0.7957747E-01            NaN
         13   -1    0    0    0    0  0.00000000000E+00  0.00000000000E+00  0.74505805969E-08  0.10566000000E+00  0.10566000000E+00 0.  1.
     999900   -1    0    0    0    0 -0.00000000000E+00 -0.00000000000E+00 -0.74505805969E-08  0.93827000000E+00  0.93827000000E+00 0.  1.
     999902    2    1    2    0    0 -0.65304381321E-02  0.12272941898E-01  0.28607705549E-02  0.10297364898E+01  0.10296386660E+01 0.  0.
     999903    2    3    3    0    0  0.27264171374E-01  0.83722569631E-01 -0.99383910260E-01  0.14029784674E+00  0.45315786141E-01 0.  0.
         14    1    1    2    0    0  0.65304381321E-02 -0.12272941898E-01 -0.28607705549E-02  0.14193510249E-01  0.00000000000E+00 0. -1.
     999901    1    3    3    0    0 -0.33794609506E-01 -0.71449627733E-01  0.10224468082E+00  0.88943864302E+00  0.88000000000E+00 0. -1.
        -11    1    4    4    0    0 -0.54009229517E-02  0.13633055431E-01 -0.40576282021E-01  0.43147722452E-01  0.51100000000E-03 0. -1.
         11    1    4    4    0    0  0.32665094326E-01  0.70089514200E-01 -0.58807628239E-01  0.97150124283E-01  0.51100000000E-03 0.  1.
</event>
<event>
 8    1  0.2824193E+004  0.1043930E+01  0.7957747E-01            NaN
         13   -1    0    0    0    0  0.00000000000E+00  0.00000000000E+00  0.74505805969E-08  0.10566000000E+00  0.10566000000E+00 0. -1.
     999900   -1    0    0    0    0 -0.00000000000E+00 -0.00000000000E+00 -0.74505805969E-08  0.93827000000E+00  0.93827000000E+00 0.  1.
     999902    2    1    2    0    0 -0.88141573288E-03 -0.52799254999E-02 -0.12935896299E-01  0.10299302886E+01  0.10298351360E+01 0.  0.
     999903    2    3    3    0    0  0.83408785934E-01 -0.10382561615E+00 -0.72840341794E-02  0.14040904948E+00  0.43873225128E-01 0.  0.
         14    1    1    2    0    0  0.88141573288E-03  0.52799254999E-02  0.12935896299E-01  0.13999711427E-01  0.00000000000E+00 0. -1.
     999901    1    3    3    0    0 -0.84290201667E-01  0.98545690652E-01 -0.56518621199E-02  0.88952123909E+00  0.88000000000E+00 0. -1.
        -11    1    4    4    0    0 -0.15881812291E-02  0.12192246623E-02  0.43164221792E-02  0.47855459274E-02  0.51100000000E-03 0. -1.
         11    1    4    4    0    0  0.84996967163E-01 -0.10504484081E+00 -0.11600456359E-01  0.13562350356E+00  0.51100000000E-03 0.  1.
</event>
<event>
 8    1  0.2824193E+004  0.1043930E+01  0.7957747E-01            NaN
         13   -1    0    0    0    0  0.00000000000E+00  0.00000000000E+00  0.74505805969E-08  0.10566000000E+00  0.10566000000E+00 0. -1.
     999900   -1    0    0    0    0 -0.00000000000E+00 -0.00000000000E+00 -0.74505805969E-08  0.93827000000E+00  0.93827000000E+00 0.  1.
     999902    2    1    2    0    0 -0.29691872074E-03  0.75885270312E-02  0.13834340860E-01  0.10281482735E+01  0.10280271443E+01 0.  0.
     999903    2    3    3    0    0  0.10377809488E+00  0.80074678842E-01 -0.10269263312E-01  0.13872889304E+00  0.44253822741E-01 0.  0.
         14    1    1    2    0    0  0.29691872074E-03 -0.75885270312E-02 -0.13834340860E-01  0.15781726467E-01  0.00000000000E+00 0.  1.
     999901    1    3    3    0    0 -0.10407501360E+00 -0.72486151811E-01  0.24103604172E-01  0.88941938049E+00  0.88000000000E+00 0. -1.
        -11    1    4    4    0    0  0.45404855691E-01  0.42476428773E-01 -0.26226925909E-01  0.67483039983E-01  0.51100000000E-03 0.  1.
         11    1    4    4    0    0  0.58373239187E-01  0.37598250070E-01  0.15957662598E-01  0.71245853059E-01  0.51100000000E-03 0. -1.
</event>
<event>
 8    1  0.2824193E+004  0.1043930E+01  0.7957747E-01            NaN
         13   -1    0    0    0    0  0.00000000000E+00  0.00000000000E+00  0.74505805969E-08  0.10566000000E+00  0.10566000000E+00 0.  1.
     999900   -1    0    0    0    0 -0.00000000000E+00 -0.00000000000E+00 -0.74505805969E-08  0.93827000000E+00  0.93827000000E+00 0. -1.
     999902    2    1    2    0    0 -0.24949442525E-02  0.11056738269E-01  0.89960780171E-02  0.10294591456E+01  0.10293574339E+01 0.  0.
     999903    2    3    3    0    0  0.88462297994E-01 -0.92884552344E-01  0.25244049502E-01  0.13853770775E+00  0.45851021824E-01 0.  0.
         14    1    1    2    0    0  0.24949442525E-02 -0.11056738269E-01 -0.89960780171E-02  0.14470854420E-01  0.00000000000E+00 0.  1.
     999901    1    3    3    0    0 -0.90957242246E-01  0.10394129061E+00 -0.16247971485E-01  0.89092143783E+00  0.88000000000E+00 0. -1.
        -11    1    4    4    0    0  0.83237113191E-01 -0.62312486283E-01  0.11509678306E-01  0.10461355923E+00  0.51100000000E-03 0. -1.
         11    1    4    4    0    0  0.52251848025E-02 -0.30572066061E-01  0.13734371196E-01  0.33924148517E-01  0.51100000000E-03 0.  1.
</event>
<event>
 8    1  0.2824193E+004  0.1043930E+01  0.7957747E-01            NaN
         13   -1    0    0    0    0  0.00000000000E+00  0.00000000000E+00  0.74505805969E-08  0.10566000000E+00  0.10566000000E+00 0. -1.
     999900   -1    0    0    0    0 -0.00000000000E+00 -0.00000000000E+00 -0.74505805969E-08  0.93827000000E+00  0.93827000000E+00 0.  1.
     999902    2    1    2    0    0 -0.13751434780E-01 -0.10400476871E-02  0.22205221508E-02  0.10299616652E+01  0.10298669416E+01 0.  0.
     999903    2    3    3    0    0 -0.97051121621E-01  0.85893550315E-01  0.33345914383E-01  0.14121812611E+00  0.45099744356E-01 0.  0.
         14    1    1    2    0    0  0.13751434780E-01  0.10400476871E-02 -0.22205221508E-02  0.13968334773E-01  0.00000000000E+00 0.  1.
     999901    1    3    3    0    0  0.83299686840E-01 -0.86933598002E-01 -0.31125392232E-01  0.88874353912E+00  0.88000000000E+00 0.  1.
        -11    1    4    4    0    0 -0.43272120865E-01  0.65408095107E-01  0.28568937256E-01  0.83469399462E-01  0.51100000000E-03 0. -1.
         11    1    4    4    0    0 -0.53779000756E-01  0.20485455208E-01  0.47769771275E-02  0.57748726643E-01  0.51100000000E-03 0.  1.
</event>
<event>
 8    1  0.2824193E+004  0.1043930E+01  0.7957747E-01            NaN
         13   -1    0    0    0    0  0.00000000000E+00  0.00000000000E+00  0.74505805969E-08  0.10566000000E+00  0.10566000000E+00 0. -1.
     999900   -1    0    0    0    0 -0.00000000000E+00 -0.00000000000E+00 -0.74505805969E-08  0.93827000000E+00  0.93827000000E+00 0.  1.
     999902    2    1    2    0    0  0.11813547207E-01  0.58498607725E-02  0.56031367774E-02  0.10296060372E+01  0.10295063943E+01 0.  0.
     999903    2    3    3    0    0  0.96105310604E-01 -0.47333444119E-02  0.91793008192E-01  0.14132353734E+00  0.47830435697E-01 0.  0.
         14    1    1    2    0    0 -0.11813547207E-01 -0.58498607725E-02 -0.56031367774E-02  0.14323962804E-01  0.00000000000E+00 0.  1.
     999901    1    3    3    0    0 -0.84291763397E-01  0.10583205184E-01 -0.86189871414E-01  0.88828249985E+00  0.88000000000E+00 0.  1.
        -11    1    4    4    0    0  0.40191227837E-01 -0.24236618720E-01  0.51590174422E-01  0.69746366929E-01  0.51100000000E-03 0. -1.
         11    1    4    4    0    0  0.55914082767E-01  0.19503274308E-01  0.40202833770E-01  0.71577170415E-01  0.51100000000E-03 0.  1.
</event>
<event>
 8    1  0.2824193E+004  0.1043930E+01  0.7957747E-01            NaN
         13   -1    0    0    0    0  0.00000000000E+00  0.00000000000E+00  0.74505805969E-08  0.10566000000E+00  0.10566000000E+00 0.  1.
     999900   -1    0    0    0    0 -0.00000000000E+00 -0.00000000000E+00 -0.74505805969E-08  0.93827000000E+00  0.93827000000E+00 0.  1.
     999902    2    1    2    0    0 -0.18138751289E-02 -0.13000239376E-01 -0.94531659652E-03  0.10307698332E+01  0.10306858198E+01 0.  0.
     999903    2    3    3    0    0  0.12219218738E+00 -0.75499183527E-02  0.52187484361E-01  0.14047195941E+00  0.44954487342E-01 0.  0.
         14    1    1    2    0    0  0.18138751289E-02  0.13000239376E-01  0.94531659652E-03  0.13160166803E-01  0.00000000000E+00 0. -1.
     999901    1    3    3    0    0 -0.12400606251E+00 -0.54503210237E-02 -0.53132800957E-01  0.89029787379E+00  0.88000000000E+00 0.  1.
        -11    1    4    4    0    0  0.49748198592E-01  0.14653276663E-01  0.72267259507E-02  0.52364954589E-01  0.51100000000E-03 0.  1.
         11    1    4    4    0    0  0.72443988786E-01 -0.22203195016E-01  0.44960758410E-01  0.88107004818E-01  0.51100000000E-03 0. -1.
</event>
<event>
 8    1  0.2824193E+004  0.1043930E+01  0.7957747E-01            NaN
         13   -1    0    0    0    0  0.00000000000E+00  0.00000000000E+00  0.74505805969E-08  0.10566000000E+00  0.10566000000E+00 0.  1.
     999900   -1    0    0    0    0 -0.00000000000E+00 -0.00000000000E+00 -0.74505805969E-08  0.93827000000E+00  0.93827000000E+00 0.  1.
     999902    2    1    2    0    0  0.54470025143E-02 -0.28230871126E-02  0.10222861534E-01  0.10320074770E+01  0.10319386057E+01 0.  0.
     999903    2    3    3    0    0 -0.54430175597E-01 -0.38719234518E-01 -0.11520114525E+00  0.14037695298E+00  0.44413533091E-01 0.  0.
         14    1    1    2    0    0 -0.54470025143E-02  0.28230871126E-02 -0.10222861534E-01  0.11922523021E-01  0.00000000000E+00 0. -1.
     999901    1    3    3    0    0  0.59877178111E-01  0.35896147405E-01  0.12542400679E+00  0.89163052400E+00  0.88000000000E+00 0. -1.
        -11    1    4    4    0    0 -0.13162807633E-01 -0.35243896209E-03 -0.60232371023E-01  0.61656981422E-01  0.51100000000E-03 0.  1.
         11    1    4    4    0    0 -0.41267367964E-01 -0.38366795555E-01 -0.54968774231E-01  0.78719971553E-01  0.51100000000E-03 0. -1.
</event>
<event>
 8    1  0.2824193E+004  0.1043930E+01  0.7957747E-01            NaN
         13   -1    0    0    0    0  0.00000000000E+00  0.00000000000E+00  0.74505805969E-08  0.10566000000E+00  0.10566000000E+00 0.  1.
     999900   -1    0    0    0    0 -0.00000000000E+00 -0.00000000000E+00 -0.74505805969E-08  0.93827000000E+00  0.93827000000E+00 0.  1.
     999902    2    1    2    0    0 -0.58701087154E-02  0.20171022729E-01 -0.34880329912E-02  0.10226345848E+01  0.10224128321E+01 0.  0.
     999903    2    3    3    0    0  0.35497256998E-01  0.12045685415E+00 -0.26274021390E-01  0.13568041000E+00  0.44146806150E-01 0.  0.
         14    1    1    2    0    0  0.58701087154E-02 -0.20171022729E-01  0.34880329912E-02  0.21295415197E-01  0.00000000000E+00 0.  1.
     999901    1    3    3    0    0 -0.41367365713E-01 -0.10028583142E+00  0.22785988399E-01  0.88695417480E+00  0.88000000000E+00 0. -1.
        -11    1    4    4    0    0  0.50064377296E-02  0.60941093517E-01 -0.31157125211E-01  0.68628775818E-01  0.51100000000E-03 0. -1.
         11    1    4    4    0    0  0.30490819268E-01  0.59515760629E-01  0.48831038211E-02  0.67051634184E-01  0.51100000000E-03 0.  1.
</event>
<event>
 8    1  0.2824193E+004  0.1043930E+01  0.7957747E-01            NaN
         13   -1    0    0    0    0  0.00000000000E+00  0.00000000000E+00  0.74505805969E-08  0.10566000000E+00  0.10566000000E+00 0.  1.
     999900   -1    0    0    0    0 -0.00000000000E+00 -0.00000000000E+00 -0.74505805969E-08  0.93827000000E+00  0.93827000000E+00 0.  1.
     999902    2    1    2    0    0  0.72030416948E-02  0.68494603646E-02 -0.78682266521E-02  0.10312529377E+01  0.10311750160E+01 0.  0.
     999903    2    3    3    0    0 -0.43587514468E-01 -0.16884626839E-01 -0.12537482130E+00  0.14167394334E+00  0.46558547711E-01 0.  0.
         14    1    1    2    0    0 -0.72030416948E-02 -0.68494603646E-02  0.78682266521E-02  0.12677062262E-01  0.00000000000E+00 0.  1.
     999901    1    3    3    0    0  0.50790556163E-01  0.23734087204E-01  0.11750659465E+00  0.88957899440E+00  0.88000000000E+00 0. -1.
        -11    1    4    4    0    0 -0.89583076340E-02 -0.15038855517E-01 -0.79461622885E-02  0.19230732358E-01  0.51100000000E-03 0. -1.
         11    1    4    4    0    0 -0.34629206834E-01 -0.18457713226E-02 -0.11742865901E+00  0.12244321098E+00  0.51100000000E-03 0.  1.
</event>
<event>
 8    1  0.2824193E+004  0.1043930E+01  0.7957747E-01            NaN
         13   -1    0    0    0    0  0.00000000000E+00  0.00000000000E+00  0.74505805969E-08  0.10566000000E+00  0.10566000000E+00 0.  1.
     999900   -1    0    0    0    0 -0.00000000000E+00 -0.00000000000E+00 -0.74505805969E-08  0.93827000000E+00  0.93827000000E+00 0. -1.
     999902    2    1    2    0    0 -0.66856152641E-02  0.10130960284E-01  0.68937701842E-02  0.10299708498E+01  0.10298762515E+01 0.  0.
     999903    2    3    3    0    0  0.44198763186E-01  0.12413353915E+00 -0.18603198368E-01  0.14079375641E+00  0.45979741689E-01 0.  0.
         14    1    1    2    0    0  0.66856152641E-02 -0.10130960284E-01 -0.68937701842E-02  0.13959150228E-01  0.00000000000E+00 0. -1.
     999901    1    3    3    0    0 -0.50884378450E-01 -0.11400257886E+00  0.25496968552E-01  0.88917709336E+00  0.88000000000E+00 0. -1.
        -11    1    4    4    0    0  0.40648728758E-01  0.68951336958E-01  0.60029929799E-02  0.80267696265E-01  0.51100000000E-03 0.  1.
         11    1    4    4    0    0  0.35500344273E-02  0.55182202188E-01 -0.24606191348E-01  0.60526060143E-01  0.51100000000E-03 0. -1.
</event>
<event>
 8    1  0.2824193E+004  0.1043930E+01  0.7957747E-01            NaN
         13   -1    0    0    0    0  0.00000000000E+00  0.00000000000E+00  0.74505805969E-08  0.10566000000E+00  0.10566000000E+00 0.  1.
     999900   -1    0    0    0    0 -0.00000000000E+00 -0.00000000000E+00 -0.74505805969E-08  0.93827000000E+00  0.93827000000E+00 0.  1.
     999902    2    1    2    0    0 -0.10466938644E-01  0.15334828812E-03  0.90476297008E-02  0.10300938183E+01  0.10300008906E+01 0.  0.
     999903    2    3    3    0    0 -0.77605522321E-01  0.10677235882E+00  0.19432384855E-01  0.14105892251E+00  0.45793540324E-01 0.  0.
         14    1    1    2    0    0  0.10466938644E-01 -0.15334828812E-03 -0.90476297008E-02  0.13836181680E-01  0.00000000000E+00 0. -1.
     999901    1    3    3    0    0  0.67138583677E-01 -0.10661901054E+00 -0.10384755154E-01  0.88903489581E+00  0.88000000000E+00 0. -1.
        -11    1    4    4    0    0 -0.51978115292E-01  0.35469572502E-01  0.17278762644E-01  0.65258193373E-01  0.51100000000E-03 0.  1.
         11    1    4    4    0    0 -0.25627407029E-01  0.71302786322E-01  0.21536222111E-02  0.75800729138E-01  0.51100000000E-03 0. -1.
</event>
<event>
 7    1  0.2824193E+004  0.1043930E+01  0.7957747E-01            NaN
         13   -1    0    0    0    0  0.00000000000E+00  0.00000000000E+00  0.74505805969E-08  0.10566000000E+00  0.10566000000E+00 0.  1.
     999900   -1    0    0    0    0 -0.00000000000E+00 -0.00000000000E+00 -0.74505805969E-08  0.93827000000E+00  0.93827000000E+00 0.  1.
     999903    2    1    2    0    0 -0.10799805558E+00 -0.42865971427E-01 -0.27420600051E-01  0.12679101394E+00  0.42696608668E-01 0.  0.
         14    1    1    2    0    0  0.25016406302E-01  0.88320316293E-02  0.18839670694E-01  0.32538570326E-01  0.00000000000E+00 0.  1.
     999901    1    1    2    0    0  0.82981649281E-01  0.34033939797E-01  0.85809293570E-02  0.88460041574E+00  0.88000000000E+00 0. -1.
        -11    1    3    3    0    0 -0.41091170895E-01  0.34114532554E-02 -0.97547862485E-03  0.41247242555E-01  0.51100000000E-03 0. -1.
         11    1    3    3    0    0 -0.66906884688E-01 -0.46277424682E-01 -0.26445121426E-01  0.85543771381E-01  0.51100000000E-03 0.  1.
</event>
<event>
 8    1  0.2824193E+004  0.1043930E+01  0.7957747E-01            NaN
         13   -1    0    0    0    0  0.00000000000E+00  0.00000000000E+00  0.74505805969E-08  0.10566000000E+00  0.10566000000E+00 0. -1.
     999900   -1    0    0    0    0 -0.00000000000E+00 -0.00000000000E+00 -0.74505805969E-08  0.93827000000E+00  0.93827000000E+00 0. -1.
     999902    2    1    2    0    0  0.79759369396E-04  0.36229429940E-02 -0.12821866883E-01  0.10306058735E+01  0.10305197398E+01 0.  0.
     999903    2    3    3    0    0  0.47946956047E-01  0.28881046797E-01  0.11915270516E+00  0.13912029984E+00  0.44989612389E-01 0.  0.
         14    1    1    2    0    0 -0.79759369396E-04 -0.36229429940E-02  0.12821866883E-01  0.13324126532E-01  0.00000000000E+00 0. -1.
     999901    1    3    3    0    0 -0.47867196678E-01 -0.25258103803E-01 -0.13197457204E+00  0.89148557363E+00  0.88000000000E+00 0. -1.
        -11    1    4    4    0    0  0.51306837947E-01  0.20152102845E-01  0.11724967643E+00  0.12956174826E+00  0.51100000000E-03 0. -1.
         11    1    4    4    0    0 -0.33598818999E-02  0.87289439520E-02  0.19030287276E-02  0.95585515763E-02  0.51100000000E-03 0.  1.
</event>
<event>
 8    1  0.2824193E+004  0.1043930E+01  0.7957747E-01            NaN
         13   -1    0    0    0    0  0.00000000000E+00  0.00000000000E+00  0.74505805969E-08  0.10566000000E+00  0.10566000000E+00 0. -1.
     999900   -1    0    0    0    0 -0.00000000000E+00 -0.00000000000E+00 -0.74505805969E-08  0.93827000000E+00  0.93827000000E+00 0. -1.
     999902    2    1    2    0    0  0.59613189228E-02  0.11375876219E-01 -0.60126913299E-02  0.10297490148E+01  0.10296513649E+01 0.  0.
     999903    2    3    3    0    0 -0.11335853496E+00  0.65679550379E-02 -0.68025654869E-01  0.13952098153E+00  0.44105771569E-01 0.  0.
         14    1    1    2    0    0 -0.59613189228E-02 -0.11375876219E-01  0.60126913299E-02  0.14180985159E-01  0.00000000000E+00 0.  1.
     999901    1    3    3    0    0  0.11931985389E+00  0.48079211815E-02  0.62012963539E-01  0.89022803331E+00  0.88000000000E+00 0.  1.
        -11    1    4    4    0    0 -0.46968927773E-01 -0.74038000709E-02 -0.66147470601E-02  0.48009503552E-01  0.51100000000E-03 0.  1.
         11    1    4    4    0    0 -0.66389607190E-01  0.13971755109E-01 -0.61410907809E-01  0.91511477983E-01  0.51100000000E-03 0. -1.
</event>
<event>
 8    1  0.2824193E+004  0.1043930E+01  0.7957747E-01            NaN
         13   -1    0    0    0    0  0.00000000000E+00  0.00000000000E+00  0.74505805969E-08  0.10566000000E+00  0.10566000000E+00 0.  1.
     999900   -1    0    0    0    0 -0.00000000000E+00 -0.00000000000E+00 -0.74505805969E-08  0.93827000000E+00  0.93827000000E+00 0.  1.
     999902    2    1    2    0    0 -0.21997218277E-02  0.12218583857E-01 -0.55652573075E-02  0.10303246828E+01  0.10302348506E+01 0.  0.
     999903    2    3    3    0    0  0.48014505418E-01 -0.42884560592E-01 -0.11761576334E+00  0.14009261133E+00  0.40595488605E-01 0.  0.
         14    1    1    2    0    0  0.21997218277E-02 -0.12218583857E-01  0.55652573075E-02  0.13605317214E-01  0.00000000000E+00 0.  1.
     999901    1    3    3    0    0 -0.50214227246E-01  0.55103144449E-01  0.11205050603E+00  0.89023207146E+00  0.88000000000E+00 0. -1.
        -11    1    4    4    0    0  0.69055967082E-02 -0.33135784308E-01 -0.53082534471E-01  0.62957795820E-01  0.51100000000E-03 0. -1.
         11    1    4    4    0    0  0.41108908710E-01 -0.97487762844E-02 -0.64533228871E-01  0.77134815511E-01  0.51100000000E-03 0.  1.
</event>
<event>
 8    1  0.2824193E+004  0.1043930E+01  0.7957747E-01            NaN
         13   -1    0    0    0    0  0.00000000000E+00  0.00000000000E+00  0.74505805969E-08  0.10566000000E+00  0.10566000000E+00 0.  1.
     999900   -1    0    0    0    0 -0.00000000000E+00 -0.00000000000E+00 -0.74505805969E-08  0.93827000000E+00  0.93827000000E+00 0.  1.
     999902    2    1    2    0    0  0.11708882164E-02 -0.98949737282E-02 -0.91831835772E-02  0.10303796367E+01  0.10302905335E+01 0.  0.
     999903    2    3    3    0    0 -0.20965669890E-01 -0.12416295654E+00 -0.45191244875E-01  0.14198570407E+00  0.47557254510E-01 0.  0.
         14    1    1    2    0    0 -0.11708882164E-02  0.98949737282E-02  0.91831835772E-02  0.13550363276E-01  0.00000000000E+00 0. -1.
     999901    1    3    3    0    0  0.22136558107E-01  0.11426798281E+00  0.36008061298E-01  0.88839393266E+00  0.88000000000E+00 0. -1.
        -11    1    4    4    0    0  0.11886524099E-01 -0.34877342502E-01 -0.25546101931E-01  0.44839524083E-01  0.51100000000E-03 0. -1.
         11    1    4    4    0    0 -0.32852193989E-01 -0.89285614035E-01 -0.19645142944E-01  0.97146179986E-01  0.51100000000E-03 0.  1.
</event>
<event>
 8    1  0.2824193E+004  0.1043930E+01  0.7957747E-01            NaN
         13   -1    0    0    0    0  0.00000000000E+00  0.00000000000E+00  0.74505805969E-08  0.10566000000E+00  0.10566000000E+00 0. -1.
     999900   -1    0    0    0    0 -0.00000000000E+00 -0.00000000000E+00 -0.74505805969E-08  0.93827000000E+00  0.93827000000E+00 0.  1.
     999902    2    1    2    0    0  0.11895358866E-01 -0.35986416098E-02  0.79762622312E-02  0.10291627882E+01  0.10290568372E+01 0.  0.
     999903    2    3    3    0    0 -0.85255834714E-01 -0.49220793281E-01 -0.84900105305E-01  0.13778982770E+00  0.45681121838E-01 0.  0.
         14    1    1    2    0    0 -0.11895358866E-01  0.35986416098E-02 -0.79762622312E-02  0.14767211760E-01  0.00000000000E+00 0.  1.
     999901    1    3    3    0    0  0.97151193580E-01  0.45622151671E-01  0.92876367537E-01  0.89137296054E+00  0.88000000000E+00 0. -1.
        -11    1    4    4    0    0 -0.23264209737E-01 -0.29171960113E-01 -0.54100673319E-01  0.65721919373E-01  0.51100000000E-03 0. -1.
         11    1    4    4    0    0 -0.61991624978E-01 -0.20048833167E-01 -0.30799431986E-01  0.72067908325E-01  0.51100000000E-03 0.  1.
</event>
<event>
 8    1  0.2824193E+004  0.1043930E+01  0.7957747E-01            NaN
         13   -1    0    0    0    0  0.00000000000E+00  0.00000000000E+00  0.74505805969E-08  0.10566000000E+00  0.10566000000E+00 0.  1.
     999900   -1    0    0    0    0 -0.00000000000E+00 -0.00000000000E+00 -0.74505805969E-08  0.93827000000E+00  0.93827000000E+00 0. -1.
     999902    2    1    2    0    0  0.50033802829E-02  0.92926179864E-02  0.86347304200E-02  0.10302938300E+01  0.10302035871E+01 0.  0.
     999903    2    3    3    0    0 -0.10165697990E+00 -0.37633353635E-01  0.73944226600E-01  0.14021304177E+00  0.49411917272E-01 0.  0.
         14    1    1    2    0    0 -0.50033802829E-02 -0.92926179864E-02 -0.86347304200E-02  0.13636170017E-01  0.00000000000E+00 0. -1.
     999901    1    3    3    0    0  0.10666036018E+00  0.46925971622E-01 -0.65309496180E-01  0.89008078821E+00  0.88000000000E+00 0. -1.
        -11    1    4    4    0    0 -0.87171639010E-01 -0.25982656054E-01  0.35757083698E-01  0.97738545205E-01  0.51100000000E-03 0.  1.
         11    1    4    4    0    0 -0.14485340888E-01 -0.11650697582E-01  0.38187142903E-01  0.42474496570E-01  0.51100000000E-03 0. -1.
</event>
<event>
 8    1  0.2824193E+004  0.1043930E+01  0.7957747E-01            NaN
         13   -1    0    0    0    0  0.00000000000E+00  0.00000000000E+00  0.74505805969E-08  0.10566000000E+00  0.10566000000E+00 0. -1.
     999900   -1    0    0    0    0 -0.00000000000E+00 -0.00000000000E+00 -0.74505805969E-08  0.93827000000E+00  0.93827000000E+00 0. -1.
     999902    2    1    2    0    0 -0.68258388116E-02 -0.11343204308E-01  0.66697123605E-02  0.10291061873E+01  0.10289994166E+01 0.  0.
     999903    2    3    3    0    0  0.28782539014E-01 -0.11672540802E+00  0.57779797586E-01  0.14063243630E+00  0.44561437383E-01 0.  0.
         14    1    1    2    0    0  0.68258388116E-02  0.11343204308E-01 -0.66697123605E-02  0.14823812682E-01  0.00000000000E+00 0.  1.
     999901    1    3    3    0    0 -0.35608377826E-01  0.10538220371E+00 -0.51110085225E-01  0.88847375101E+00  0.88000000000E+00 0.  1.
        -11    1    4    4    0    0  0.37536611440E-01 -0.60984211438E-01  0.28655300833E-01  0.77132733842E-01  0.51100000000E-03 0. -1.
         11    1    4    4    0    0 -0.87540724254E-02 -0.55741196583E-01  0.29124496753E-01  0.63499702461E-01  0.51100000000E-03 0.  1.
</event>
<event>
 8    1  0.2824193E+004  0.1043930E+01  0.7957747E-01            NaN
         13   -1    0    0    0    0  0.00000000000E+00  0.00000000000E+00  0.74505805969E-08  0.10566000000E+00  0.10566000000E+00 0. -1.
     999900   -1    0    0    0    0 -0.00000000000E+00 -0.00000000000E+00 -0.74505805969E-08  0.93827000000E+00  0.93827000000E+00 0. -1.
     999902    2    1    2    0    0 -0.23291460537E-02  0.12506101819E-01 -0.47835202569E-02  0.10303392101E+01  0.10302495709E+01 0.  0.
     999903    2    3    3    0    0  0.18118875867E-01  0.10456387215E+00  0.81328662090E-01  0.14112154123E+00  0.45155742727E-01 0.  0.
         14    1    1    2    0    0  0.23291460537E-02 -0.12506101819E-01  0.47835202569E-02  0.13590789899E-01  0.00000000000E+00 0.  1.
     999901    1    3    3    0    0 -0.20448021920E-01 -0.92057770329E-01 -0.86112182347E-01  0.88921766887E+00  0.88000000000E+00 0. -1.
        -11    1    4    4    0    0  0.19385845870E-01  0.13198126637E-01  0.11536343125E-01  0.26140962119E-01  0.51100000000E-03 0.  1.
         11    1    4    4    0    0 -0.12669700029E-02  0.91365745511E-01  0.69792318965E-01  0.11498057911E+00  0.51100000000E-03 0. -1.
</event>
<event>
 8    1  0.2824193E+004  0.1043930E+01  0.7957747E-01            NaN
         13   -1    0    0    0    0  0.00000000000E+00  0.00000000000E+00  0.74505805969E-08  0.10566000000E+00  0.10566000000E+00 0. -1.
     999900   -1    0    0    0    0 -0.00000000000E+00 -0.00000000000E+00 -0.74505805969E-08  0.93827000000E+00  0.93827000000E+00 0. -1.
     999902    2    1    2    0    0 -0.11173996751E-01 -0.64285234527E-02  0.44775294176E-02  0.10302833012E+01  0.10301929181E+01 0.  0.
     999903    2    3    3    0    0  0.36602520317E-01  0.14822288273E-01 -0.12587445657E+00  0.13914591968E+00  0.44246620480E-01 0.  0.
         14    1    1    2    0    0  0.11173996751E-01  0.64285234527E-02 -0.44775294176E-02  0.13646698753E-01  0.00000000000E+00 0.  1.
     999901    1    3    3    0    0 -0.47776517068E-01 -0.21250811726E-01  0.13035198598E+00  0.89113738157E+00  0.88000000000E+00 0.  1.
        -11    1    4    4    0    0  0.46602161695E-01  0.15838857425E-01 -0.10315730538E+00  0.11429926358E+00  0.51100000000E-03 0.  1.
         11    1    4    4    0    0 -0.99996413784E-02 -0.10165691516E-02 -0.22717151184E-01  0.24846656102E-01  0.51100000000E-03 0. -1.
</event>
<event>
 8    1  0.2824193E+004  0.1043930E+01  0.7957747E-01            NaN
         13   -1    0    0    0    0  0.00000000000E+00  0.00000000000E+00  0.74505805969E-08  0.10566000000E+00  0.10566000000E+00 0. -1.
     999900   -1    0    0    0    0 -0.00000000000E+00 -0.00000000000E+00 -0.74505805969E-08  0.93827000000E+00  0.93827000000E+00 0. -1.
     999902    2    1    2    0    0 -0.95562983420E-02  0.67084481294E-02  0.74964944939E-02  0.10300547146E+01  0.10299612573E+01 0.  0.
     999903    2    3    3    0    0  0.11810329037E+00 -0.50917964779E-01  0.38301282747E-02  0.13897042216E+00  0.52507923399E-01 0.  0.
         14    1    1    2    0    0  0.95562983420E-02 -0.67084481294E-02 -0.74964944939E-02  0.13875285367E-01  0.00000000000E+00 0.  1.
     999901    1    3    3    0    0 -0.12765958871E+00  0.57626412909E-01  0.36663662192E-02  0.89108429247E+00  0.88000000000E+00 0. -1.
        -11    1    4    4    0    0  0.31996676421E-01 -0.39498768603E-01 -0.74536454948E-02  0.51378575061E-01  0.51100000000E-03 0.  1.
         11    1    4    4    0    0  0.86106613946E-01 -0.11419196176E-01  0.11283773770E-01  0.87591847098E-01  0.51100000000E-03 0. -1.
</event>
<event>
 7    1  0.2824193E+004  0.1043930E+01  0.7957747E-01            NaN
         13   -1    0    0    0    0  0.00000000000E+00  0.00000000000E+00  0.74505805969E-08  0.10566000000E+00  0.10566000000E+00 0. -1.
     999900   -1    0    0    0    0 -0.00000000000E+00 -0.00000000000E+00 -0.74505805969E-08  0.93827000000E+00  0.93827000000E+00 0. -1.
     999903    2    1    2    0    0 -0.53767757194E-01  0.28163183665E-01 -0.95762160629E-01  0.12183120311E+00  0.44590514861E-01 0.  0.
         14    1    1    2    0    0  0.75199179108E-02  0.30288181503E-01 -0.96827595571E-02  0.32675356720E-01  0.00000000000E+00 0.  1.
     999901    1    1    2    0    0  0.46247839283E-01 -0.58451365168E-01  0.10544492019E+00  0.88942344017E+00  0.88000000000E+00 0.  1.
        -11    1    3    3    0    0 -0.50554957674E-01  0.37684404699E-02 -0.65253079307E-01  0.82633106979E-01  0.51100000000E-03 0.  1.
         11    1    3    3    0    0 -0.32127995197E-02  0.24394743195E-01 -0.30509081322E-01  0.39198096133E-01  0.51100000000E-03 0. -1.
</event>
<event>
 8    1  0.2824193E+004  0.1043930E+01  0.7957747E-01            NaN
         13   -1    0    0    0    0  0.00000000000E+00  0.00000000000E+00  0.74505805969E-08  0.10566000000E+00  0.10566000000E+00 0. -1.
     999900   -1    0    0    0    0 -0.00000000000E+00 -0.00000000000E+00 -0.74505805969E-08  0.93827000000E+00  0.93827000000E+00 0. -1.
     999902    2    1    2    0    0 -0.54675885276E-02  0.46385150071E-02  0.13222602564E-01  0.10288884720E+01  0.10287785186E+01 0.  0.
     999903    2    3    3    0    0  0.39070732772E-01  0.68093405940E-01 -0.10375225646E+00  0.13776934255E+00  0.45305926030E-01 0.  0.
         14    1    1    2    0    0  0.54675885276E-02 -0.46385150071E-02 -0.13222602564E-01  0.15041527992E-01  0.00000000000E+00 0.  1.
     999901    1    3    3    0    0 -0.44538321300E-01 -0.63454890933E-01  0.11697485902E+00  0.89111912946E+00  0.88000000000E+00 0.  1.
        -11    1    4    4    0    0  0.19956188980E-01  0.24148604166E-01 -0.76431627482E-01  0.82604233320E-01  0.51100000000E-03 0. -1.
         11    1    4    4    0    0  0.19114543792E-01  0.43944801773E-01 -0.27320628978E-01  0.55165109227E-01  0.51100000000E-03 0.  1.
</event>
<event>
 8    1  0.2824193E+004  0.1043930E+01  0.7957747E-01            NaN
         13   -1    0    0    0    0  0.00000000000E+00  0.00000000000E+00  0.74505805969E-08  0.10566000000E+00  0.10566000000E+00 0.  1.
     999900   -1    0    0    0    0 -0.00000000000E+00 -0.00000000000E+00 -0.74505805969E-08  0.93827000000E+00  0.93827000000E+00 0.  1.
     999902    2    1    2    0    0  0.12675415731E-02 -0.13214824369E-01  0.32250630263E-02  0.10302684014E+01  0.10301778194E+01 0.  0.
     999903    2    3    3    0    0 -0.12589948607E+00  0.16792683918E-01 -0.36675367689E-01  0.13972702233E+00  0.45231442021E-01 0.  0.
         14    1    1    2    0    0 -0.12675415731E-02  0.13214824369E-01 -0.32250630263E-02  0.13661598598E-01  0.00000000000E+00 0.  1.
     999901    1    3    3    0    0  0.12716702764E+00 -0.30007508287E-01  0.39900430716E-01  0.89054137907E+00  0.88000000000E+00 0. -1.
        -11    1    4    4    0    0 -0.44133925613E-01  0.13853443008E-01  0.73091786632E-02  0.46833817770E-01  0.51100000000E-03 0.  1.
         11    1    4    4    0    0 -0.81765560457E-01  0.29392409106E-02 -0.43984546352E-01  0.92893204557E-01  0.51100000000E-03 0. -1.
</event>
<event>
 8    1  0.2824193E+004  0.1043930E+01  0.7957747E-01            NaN
         13   -1    0    0    0    0  0.00000000000E+00  0.00000000000E+00  0.74505805969E-08  0.10566000000E+00  0.10566000000E+00 0.  1.
     999900   -1    0    0    0    0 -0.00000000000E+00 -0.00000000000E+00 -0.74505805969E-08  0.93827000000E+00  0.93827000000E+00 0. -1.
     999902    2    1    2    0    0  0.11560158621E-01  0.60935469065E-02  0.10037093865E-01  0.10274523838E+01  0.10273202467E+01 0.  0.
     999903    2    3    3    0    0  0.21203624272E-01  0.10278030223E-01 -0.12697993914E+00  0.13678736619E+00  0.45073795234E-01 0.  0.
         14    1    1    2    0    0 -0.11560158621E-01 -0.60935469065E-02 -0.10037093865E-01  0.16477616165E-01  0.00000000000E+00 0. -1.
     999901    1    3    3    0    0 -0.96434656514E-02 -0.41844833165E-02  0.13701703300E+00  0.89066501765E+00  0.88000000000E+00 0.  1.
        -11    1    4    4    0    0 -0.36840572314E-02  0.13429206064E-01 -0.10012442820E-01  0.17158845691E-01  0.51100000000E-03 0.  1.
         11    1    4    4    0    0  0.24887681504E-01 -0.31511758414E-02 -0.11696749632E+00  0.11962852049E+00  0.51100000000E-03 0. -1.
</event>
<event>
 8    1  0.2824193E+004  0.1043930E+01  0.7957747E-01            NaN
         13   -1    0    0    0    0  0.00000000000E+00  0.00000000000E+00  0.74505805969E-08  0.10566000000E+00  0.10566000000E+00 0. -1.
     999900   -1    0    0    0    0 -0.00000000000E+00 -0.00000000000E+00 -0.74505805969E-08  0.93827000000E+00  0.93827000000E+00 0. -1.
     999902    2    1    2    0    0  0.13365977939E-01  0.15872628044E-02 -0.63386400167E-02  0.10290522607E+01  0.10289447061E+01 0.  0.
     999903    2    3    3    0    0 -0.41115090990E-02  0.61598153019E-01  0.11561686066E+00  0.13844577428E+00  0.44595257444E-01 0.  0.
         14    1    1    2    0    0 -0.13365977939E-01 -0.15872628044E-02  0.63386400167E-02  0.14877739302E-01  0.00000000000E+00 0.  1.
     999901    1    3    3    0    0  0.17477487038E-01 -0.60010890214E-01 -0.12195550067E+00  0.89060648641E+00  0.88000000000E+00 0. -1.
        -11    1    4    4    0    0  0.13583079292E-01  0.40414918346E-01  0.94549094394E-01  0.10371913054E+00  0.51100000000E-03 0.  1.
         11    1    4    4    0    0 -0.17694588390E-01  0.21183234673E-01  0.21067766264E-01  0.34726643746E-01  0.51100000000E-03 0. -1.
</event>
<event>
 8    1  0.2824193E+004  0.1043930E+01  0.7957747E-01            NaN
         13   -1    0    0    0    0  0.00000000000E+00  0.00000000000E+00  0.74505805969E-08  0.10566000000E+00  0.10566000000E+00 0. -1.
     999900   -1    0    0    0    0 -0.00000000000E+00 -0.00000000000E+00 -0.74505805969E-08  0.93827000000E+00  0.93827000000E+00 0. -1.
     999902    2    1    2    0    0  0.12755438822E-01  0.16166544278E-01 -0.91921630274E-02  0.10213788529E+01  0.10211298678E+01 0.  0.
     999903    2    3    3    0    0  0.86178756054E-02 -0.20241346661E-01  0.12112342972E+00  0.13102790657E+00  0.44871451730E-01 0.  0.
         14    1    1    2    0    0 -0.12755438822E-01 -0.16166544278E-01  0.91921630274E-02  0.22551147078E-01  0.00000000000E+00 0. -1.
     999901    1    3    3    0    0  0.41375632168E-02  0.36407890938E-01 -0.13031559274E+00  0.89035094635E+00  0.88000000000E+00 0. -1.
        -11    1    4    4    0    0 -0.14730068517E-01 -0.78309361733E-02  0.17914175977E-01  0.24484225571E-01  0.51100000000E-03 0.  1.
         11    1    4    4    0    0  0.23347944123E-01 -0.12410410487E-01  0.10320925374E+00  0.10654368100E+00  0.51100000000E-03 0. -1.
</event>
<event>
 8    1  0.2824193E+004  0.1043930E+01  0.7957747E-01            NaN
         13   -1    0    0    0    0  0.00000000000E+00  0.00000000000E+00  0.74505805969E-08  0.10566000000E+00  0.10566000000E+00 0. -1.
     999900   -1    0    0    0    0 -0.00000000000E+00 -0.00000000000E+00 -0.74505805969E-08  0.93827000000E+00  0.93827000000E+00 0. -1.
     999902    2    1    2    0    0 -0.57685278855E-02 -0.13374579048E-01  0.20736630736E-02  0.10292175781E+01  0.10291124175E+01 0.  0.
     999903    2    3    3    0    0  0.88150325238E-01  0.83606682012E-01 -0.45725628299E-01  0.13763982593E+00  0.45752939595E-01 0.  0.
         14    1    1    2    0    0  0.57685278855E-02  0.13374579048E-01 -0.20736630736E-02  0.14712421868E-01  0.00000000000E+00 0.  1.
     999901    1    3    3    0    0 -0.93918853124E-01 -0.96981261060E-01  0.47799291372E-01  0.89157775220E+00  0.88000000000E+00 0.  1.
        -11    1    4    4    0    0 -0.21789179632E-03  0.44771697814E-02 -0.14203813332E-01  0.14903085595E-01  0.51100000000E-03 0.  1.
         11    1    4    4    0    0  0.88368217035E-01  0.79129512231E-01 -0.31521814966E-01  0.12273674033E+00  0.51100000000E-03 0. -1.
</event>
<event>
 8    1  0.2824193E+004  0.1043930E+01  0.7957747E-01            NaN
         13   -1    0    0    0    0  0.00000000000E+00  0.00000000000E+00  0.74505805969E-08  0.10566000000E+00  0.10566000000E+00 0.  1.
     999900   -1    0    0    0    0 -0.00000000000E+00 -0.00000000000E+00 -0.74505805969E-08  0.93827000000E+00  0.93827000000E+00 0. -1.
     999902    2    1    2    0    0  0.10135527734E-01  0.89583232072E-02 -0.40269375835E-02  0.10298162938E+01  0.10297195746E+01 0.  0.
     999903    2    3    3    0    0  0.50400001452E-01  0.23018546071E-01 -0.12156637586E+00  0.14097747978E+00  0.45013914015E-01 0.  0.
         14    1    1    2    0    0 -0.10135527734E-01 -0.89583232072E-02  0.40269375835E-02  0.14113706226E-01  0.00000000000E+00 0.  1.
     999901    1    3    3    0    0 -0.40264473718E-01 -0.14060222863E-01  0.11753943828E+00  0.88883881399E+00  0.88000000000E+00 0.  1.
        -11    1    4    4    0    0  0.17401644402E-01  0.29541351847E-01 -0.39637475843E-01  0.52410870142E-01  0.51100000000E-03 0.  1.
         11    1    4    4    0    0  0.32998357050E-01 -0.65228057760E-02 -0.81928900021E-01  0.88566609638E-01  0.51100000000E-03 0. -1.
</event>
<event>
 8    1  0.2824193E+004  0.1043930E+01  0.7957747E-01            NaN
         13   -1    0    0    0    0  0.00000000000E+00  0.00000000000E+00  0.74505805969E-08  0.10566000000E+00  0.10566000000E+00 0. -1.
     999900   -1    0    0    0    0 -0.00000000000E+00 -0.00000000000E+00 -0.74505805969E-08  0.93827000000E+00  0.93827000000E+00 0.  1.
     999902    2    1    2    0    0  0.45786250405E-02  0.12426404543E-01 -0.18633256190E-02  0.10305564694E+01  0.10304696916E+01 0.  0.
     999903    2    3    3    0    0 -0.98004999876E-01  0.50965598055E-01  0.72500693918E-01  0.14064710499E+00  0.48195283365E-01 0.  0.
         14    1    1    2    0    0 -0.45786250405E-02 -0.12426404543E-01  0.18633256190E-02  0.13373530554E-01  0.00000000000E+00 0. -1.
     999901    1    3    3    0    0  0.10258362492E+00 -0.38539193512E-01 -0.74364019537E-01  0.88990936445E+00  0.88000000000E+00 0.  1.
        -11    1    4    4    0    0 -0.35950027671E-01  0.44924781311E-01  0.27636173310E-01  0.63833060882E-01  0.51100000000E-03 0. -1.
         11    1    4    4    0    0 -0.62054972206E-01  0.60408167440E-02  0.44864520608E-01  0.76814044111E-01  0.51100000000E-03 0.  1.
</event>
<event>
 8    1  0.2824193E+004  0.1043930E+01  0.7957747E-01            NaN
         13   -1    0    0    0    0  0.00000000000E+00  0.00000000000E+00  0.74505805969E-08  0.10566000000E+00  0.10566000000E+00 0.  1.
     999900   -1    0    0    0    0 -0.00000000000E+00 -0.00000000000E+00 -0.74505805969E-08  0.93827000000E+00  0.93827000000E+00 0.  1.
     999902    2    1    2    0    0 -0.98895756942E-02  0.22499770026E-02 -0.10692199063E-01  0.10291926588E+01  0.10290871391E+01 0.  0.
     999903    2    3    3    0    0 -0.41929311321E-01  0.46405140734E-01  0.11567427471E+00  0.13849365870E+00  0.43456316412E-01 0.  0.
         14    1    1    2    0    0  0.98895756942E-02 -0.22499770026E-02  0.10692199063E-01  0.14737341169E-01  0.00000000000E+00 0.  1.
     999901    1    3    3    0    0  0.32039735627E-01 -0.44155163732E-01 -0.12636647377E+00  0.89069900013E+00  0.88000000000E+00 0.  1.
        -11    1    4    4    0    0 -0.31842079346E-01  0.15593433976E-01  0.28526786776E-01  0.45509470278E-01  0.51100000000E-03 0.  1.
         11    1    4    4    0    0 -0.10087231975E-01  0.30811706758E-01  0.87147487933E-01  0.92984188421E-01  0.51100000000E-03 0. -1.
</event>
<event>
 8    1  0.2824193E+004  0.1043930E+01  0.7957747E-01            NaN
         13   -1    0    0    0    0  0.00000000000E+00  0.00000000000E+00  0.74505805969E-08  0.10566000000E+00  0.10566000000E+00 0.  1.
     999900   -1    0    0    0    0 -0.00000000000E+00 -0.00000000000E+00 -0.74505805969E-08  0.93827000000E+00  0.93827000000E+00 0. -1.
     999902    2    1    2    0    0 -0.60537090998E-02 -0.26898847205E-02  0.12126504511E-01  0.10301120774E+01  0.10300193964E+01 0.  0.
     999903    2    3    3    0    0 -0.52422327188E-01 -0.12181382214E+00  0.95181629848E-02  0.14087230958E+00  0.46558613888E-01 0.  0.
         14    1    1    2    0    0  0.60537090998E-02  0.26898847205E-02 -0.12126504511E-01  0.13817922613E-01  0.00000000000E+00 0. -1.
     999901    1    3    3    0    0  0.46368618088E-01  0.11912393742E+00  0.26083415265E-02  0.88923976781E+00  0.88000000000E+00 0. -1.
        -11    1    4    4    0    0  0.70137160740E-02 -0.11082319300E-01 -0.56402615614E-02  0.14285786143E-01  0.51100000000E-03 0.  1.
         11    1    4    4    0    0 -0.59436043262E-01 -0.11073150284E+00  0.15158424546E-01  0.12658652343E+00  0.51100000000E-03 0. -1.
</event>
<event>
 8    1  0.2824193E+004  0.1043930E+01  0.7957747E-01            NaN
         13   -1    0    0    0    0  0.00000000000E+00  0.00000000000E+00  0.74505805969E-08  0.10566000000E+00  0.10566000000E+00 0.  1.
     999900   -1    0    0    0    0 -0.00000000000E+00 -0.00000000000E+00 -0.74505805969E-08  0.93827000000E+00  0.93827000000E+00 0. -1.
     999902    2    1    2    0    0  0.14137228823E-01 -0.37568087448E-02  0.15408849503E-02  0.10292211871E+01  0.10291160784E+01 0.  0.
     999903    2    3    3    0    0  0.53038046042E-02  0.41653774785E-01 -0.12465323155E+00  0.13901609526E+00  0.44987546164E-01 0.  0.
         14    1    1    2    0    0 -0.14137228823E-01  0.37568087448E-02 -0.15408849503E-02  0.14708812908E-01  0.00000000000E+00 0. -1.
     999901    1    3    3    0    0  0.88334242189E-02 -0.45410583530E-01  0.12619411650E+00  0.89020509183E+00  0.88000000000E+00 0.  1.
        -11    1    4    4    0    0  0.24660754189E-01  0.28113482098E-01 -0.84867036053E-01  0.92742630986E-01  0.51100000000E-03 0. -1.
         11    1    4    4    0    0 -0.19356949584E-01  0.13540292687E-01 -0.39786195494E-01  0.46273464276E-01  0.51100000000E-03 0.  1.
</event>
<event>
 8    1  0.2824193E+004  0.1043930E+01  0.7957747E-01            NaN
         13   -1    0    0    0    0  0.00000000000E+00  0.00000000000E+00  0.74505805969E-08  0.10566000000E+00  0.10566000000E+00 0.  1.
     999900   -1    0    0    0    0 -0.00000000000E+00 -0.00000000000E+00 -0.74505805969E-08  0.93827000000E+00  0.93827000000E+00 0. -1.
     999902    2    1    2    0    0 -0.12069841318E-02  0.64633471075E-02  0.12356773307E-01  0.10299328034E+01  0.10298376853E+01 0.  0.
     999903    2    3    3    0    0 -0.11292765894E+00 -0.63819759341E-01 -0.19008462443E-01  0.13953682280E+00  0.47786875154E-01 0.  0.
         14    1    1    2    0    0  0.12069841318E-02 -0.64633471075E-02 -0.12356773307E-01  0.13997196615E-01  0.00000000000E+00 0. -1.
     999901    1    3    3    0    0  0.11172067480E+00  0.70283106449E-01  0.31365235750E-01  0.89039598059E+00  0.88000000000E+00 0. -1.
        -11    1    4    4    0    0 -0.91668713577E-01 -0.27869976073E-01 -0.69602998021E-02  0.96065579213E-01  0.51100000000E-03 0. -1.
         11    1    4    4    0    0 -0.21258945359E-01 -0.35949783268E-01 -0.12048162641E-01  0.43471243585E-01  0.51100000000E-03 0.  1.
</event>
<event>
 8    1  0.2824193E+004  0.1043930E+01  0.7957747E-01            NaN
         13   -1    0    0    0    0  0.00000000000E+00  0.00000000000E+00  0.74505805969E-08  0.10566000000E+00  0.10566000000E+00 0.  1.
     999900   -1    0    0    0    0 -0.00000000000E+00 -0.00000000000E+00 -0.74505805969E-08  0.93827000000E+00  0.93827000000E+00 0. -1.
     999902    2    1    2    0    0 -0.10121563614E-01 -0.57096433767E-02 -0.10150579240E-01  0.10285001479E+01  0.10283843999E+01 0.  0.
     999903    2    3    3    0    0 -0.36450748804E-01 -0.12051680189E+00  0.39886895294E-01  0.13924334667E+00  0.44099756808E-01 0.  0.
         14    1    1    2    0    0  0.10121563614E-01  0.57096433767E-02  0.10150579240E-01  0.15429852118E-01  0.00000000000E+00 0.  1.
     999901    1    3    3    0    0  0.26329185189E-01  0.11480715851E+00 -0.50037474534E-01  0.88925680121E+00  0.88000000000E+00 0.  1.
        -11    1    4    4    0    0 -0.43843551577E-02 -0.62253270606E-01  0.37257144440E-01  0.72684580236E-01  0.51100000000E-03 0. -1.
         11    1    4    4    0    0 -0.32066393646E-01 -0.58263531283E-01  0.26297508545E-02  0.66558766437E-01  0.51100000000E-03 0.  1.
</event>
<event>
 8    1  0.2824193E+004  0.1043930E+01  0.7957747E-01            NaN
         13   -1    0    0    0    0  0.00000000000E+00  0.00000000000E+00  0.74505805969E-08  0.10566000000E+00  0.10566000000E+00 0. -1.
     999900   -1    0    0    0    0 -0.00000000000E+00 -0.00000000000E+00 -0.74505805969E-08  0.93827000000E+00  0.93827000000E+00 0. -1.
     999902    2    1    2    0    0  0.13096801295E-01 -0.15184800998E-02  0.54545907834E-02  0.10296616943E+01  0.10295628297E+01 0.  0.
     999903    2    3    3    0    0 -0.37735827052E-01  0.12161413280E+00  0.33119346157E-01  0.13920622933E+00  0.45469695992E-01 0.  0.
         14    1    1    2    0    0 -0.13096801295E-01  0.15184800998E-02 -0.54545907834E-02  0.14268305666E-01  0.00000000000E+00 0.  1.
     999901    1    3    3    0    0  0.50832628347E-01 -0.12313261290E+00 -0.27664755374E-01  0.89045546500E+00  0.88000000000E+00 0. -1.
        -11    1    4    4    0    0 -0.39179359702E-01  0.57931852752E-01  0.27879370370E-01  0.75290385862E-01  0.51100000000E-03 0.  1.
         11    1    4    4    0    0  0.14435326504E-02  0.63682280051E-01  0.52399757873E-02  0.63915843468E-01  0.51100000000E-03 0. -1.
</event>
<event>
 8    1  0.2824193E+004  0.1043930E+01  0.7957747E-01            NaN
         13   -1    0    0    0    0  0.00000000000E+00  0.00000000000E+00  0.74505805969E-08  0.10566000000E+00  0.10566000000E+00 0.  1.
     999900   -1    0    0    0    0 -0.00000000000E+00 -0.00000000000E+00 -0.74505805969E-08  0.93827000000E+00  0.93827000000E+00 0.  1.
     999902    2    1    2    0    0  0.99386885211E-02 -0.74205271721E-02  0.69722057453E-02  0.10297013878E+01  0.10296030762E+01 0.  0.
     999903    2    3    3    0    0 -0.76298602937E-01 -0.10298764897E+00 -0.32275009146E-01  0.13947091813E+00  0.44525589680E-01 0.  0.
         14    1    1    2    0    0 -0.99386885211E-02  0.74205271721E-02 -0.69722057453E-02  0.14228612230E-01  0.00000000000E+00 0. -1.
     999901    1    3    3    0    0  0.86237291458E-01  0.95567121801E-01  0.39247214892E-01  0.89023046964E+00  0.88000000000E+00 0. -1.
        -11    1    4    4    0    0 -0.68963227545E-01 -0.66932609676E-01 -0.35684533300E-01  0.10251608668E+00  0.51100000000E-03 0. -1.
         11    1    4    4    0    0 -0.73353753920E-02 -0.36055039297E-01  0.34095241535E-02  0.36954831441E-01  0.51100000000E-03 0.  1.
</event>
<event>
 8    1  0.2824193E+004  0.1043930E+01  0.7957747E-01            NaN
         13   -1    0    0    0    0  0.00000000000E+00  0.00000000000E+00  0.74505805969E-08  0.10566000000E+00  0.10566000000E+00 0. -1.
     999900   -1    0    0    0    0 -0.00000000000E+00 -0.00000000000E+00 -0.74505805969E-08  0.93827000000E+00  0.93827000000E+00 0.  1.
     999902    2    1    2    0    0 -0.13859461935E-01 -0.49041978889E-02  0.10664642946E-03  0.10292280540E+01  0.10291230441E+01 0.  0.
     999903    2    3    3    0    0 -0.38798551165E-01 -0.93876667977E-01  0.82345977190E-01  0.14057662285E+00  0.51602040358E-01 0.  0.
         14    1    1    2    0    0  0.13859461935E-01  0.49041978889E-02 -0.10664642946E-03  0.14701945977E-01  0.00000000000E+00 0.  1.
     999901    1    3    3    0    0  0.24939089230E-01  0.88972470088E-01 -0.82239330760E-01  0.88865143117E+00  0.88000000000E+00 0. -1.
        -11    1    4    4    0    0 -0.17494310004E-01 -0.80400170353E-01  0.40472889835E-01  0.91698169054E-01  0.51100000000E-03 0.  1.
         11    1    4    4    0    0 -0.21304241160E-01 -0.13476497624E-01  0.41873087355E-01  0.48878453794E-01  0.51100000000E-03 0. -1.
</event>
<event>
 8    1  0.2824193E+004  0.1043930E+01  0.7957747E-01            NaN
         13   -1    0    0    0    0  0.00000000000E+00  0.00000000000E+00  0.74505805969E-08  0.10566000000E+00  0.10566000000E+00 0. -1.
     999900   -1    0    0    0    0 -0.00000000000E+00 -0.00000000000E+00 -0.74505805969E-08  0.93827000000E+00  0.93827000000E+00 0. -1.
     999902    2    1    2    0    0 -0.10787380230E-01 -0.78793863581E-02  0.14582267766E-02  0.10304920416E+01  0.10304044201E+01 0.  0.
     999903    2    3    3    0    0  0.14815114902E-01  0.10951410153E+00 -0.72043171246E-01  0.13929106857E+00  0.44709699124E-01 0.  0.
         14    1    1    2    0    0  0.10787380230E-01  0.78793863581E-02 -0.14582267766E-02  0.13437958436E-01  0.00000000000E+00 0.  1.
     999901    1    3    3    0    0 -0.25602495132E-01 -0.11739348789E+00  0.73501398022E-01  0.89120097300E+00  0.88000000000E+00 0.  1.
        -11    1    4    4    0    0  0.23221295509E-01  0.39454615203E-01 -0.43560784160E-01  0.63195713965E-01  0.51100000000E-03 0.  1.
         11    1    4    4    0    0 -0.84061806062E-02  0.70059486329E-01 -0.28482387086E-01  0.76095354604E-01  0.51100000000E-03 0. -1.
</event>
<event>
 8    1  0.2824193E+004  0.1043930E+01  0.7957747E-01            NaN
         13   -1    0    0    0    0  0.00000000000E+00  0.00000000000E+00  0.74505805969E-08  0.10566000000E+00  0.10566000000E+00 0.  1.
     999900   -1    0    0    0    0 -0.00000000000E+00 -0.00000000000E+00 -0.74505805969E-08  0.93827000000E+00  0.93827000000E+00 0. -1.
     999902    2    1    2    0    0 -0.71681394774E-02 -0.47879824709E-02  0.10764077124E-01  0.10301397007E+01  0.10300473924E+01 0.  0.
     999903    2    3    3    0    0 -0.10658585036E+00 -0.32635057156E-01 -0.72494106079E-01  0.14020078934E+00  0.44444071175E-01 0.  0.
         14    1    1    2    0    0  0.71681394774E-02  0.47879824709E-02 -0.10764077124E-01  0.13790299345E-01  0.00000000000E+00 0. -1.
     999901    1    3    3    0    0  0.99417710881E-01  0.27847074685E-01  0.83258183202E-01  0.88993891132E+00  0.88000000000E+00 0.  1.
        -11    1    4    4    0    0 -0.60992100657E-01  0.48840521770E-03 -0.52255209519E-01  0.80319007247E-01  0.51100000000E-03 0. -1.
         11    1    4    4    0    0 -0.45593749701E-01 -0.33123462374E-01 -0.20238896559E-01  0.59881782091E-01  0.51100000000E-03 0.  1.
</event>
<event>
 8    1  0.2824193E+004  0.1043930E+01  0.7957747E-01            NaN
         13   -1    0    0    0    0  0.00000000000E+00  0.00000000000E+00  0.74505805969E-08  0.10566000000E+00  0.10566000000E+00 0. -1.
     999900   -1    0    0    0    0 -0.00000000000E+00 -0.00000000000E+00 -0.74505805969E-08  0.93827000000E+00  0.93827000000E+00 0. -1.
     999902    2    1    2    0    0  0.33855109001E-03 -0.11856722784E-01  0.71764293815E-02  0.10300664640E+01  0.10299731660E+01 0.  0.
     999903    2    3    3    0    0 -0.11268988404E+00  0.19742125464E-02  0.70674310678E-01  0.14046053840E+00  0.45071023683E-01 0.  0.
         14    1    1    2    0    0 -0.33855109001E-03  0.11856722784E-01 -0.71764293815E-02  0.13863536009E-01  0.00000000000E+00 0.  1.
     999901    1    3    3    0    0  0.11302843513E+00 -0.13830935330E-01 -0.63497881297E-01  0.88960592559E+00  0.88000000000E+00 0. -1.
        -11    1    4    4    0    0 -0.79298607068E-01  0.22106122526E-01  0.50125609990E-01  0.96383544415E-01  0.51100000000E-03 0.  1.
         11    1    4    4    0    0 -0.33391276977E-01 -0.20131909980E-01  0.20548700688E-01  0.44076993983E-01  0.51100000000E-03 0. -1.
</event>
<event>
 8    1  0.2824193E+004  0.1043930E+01  0.7957747E-01            NaN
         13   -1    0    0    0    0  0.00000000000E+00  0.00000000000E+00  0.74505805969E-08  0.10566000000E+00  0.10566000000E+00 0. -1.
     999900   -1    0    0    0    0 -0.00000000000E+00 -0.00000000000E+00 -0.74505805969E-08  0.93827000000E+00  0.93827000000E+00 0. -1.
     999902    2    1    2    0    0 -0.13049592628E-02  0.30686911432E-02 -0.14502517691E-01  0.10290490456E+01  0.10289414441E+01 0.  0.
     999903    2    3    3    0    0  0.56866798186E-01 -0.11234206837E-01  0.11612578402E+00  0.13739200423E+00  0.45070222683E-01 0.  0.
         14    1    1    2    0    0  0.13049592628E-02 -0.30686911432E-02  0.14502517691E-01  0.14880954384E-01  0.00000000000E+00 0. -1.
     999901    1    3    3    0    0 -0.58171757449E-01  0.14302897980E-01 -0.13062830171E+00  0.89165704139E+00  0.88000000000E+00 0. -1.
        -11    1    4    4    0    0  0.13968751815E-01 -0.16024780314E-01  0.11420678907E-01  0.24137370178E-01  0.51100000000E-03 0.  1.
         11    1    4    4    0    0  0.42898046371E-01  0.47905734766E-02  0.10470510511E+00  0.11325463405E+00  0.51100000000E-03 0. -1.
</event>
<event>
 8    1  0.2824193E+004  0.1043930E+01  0.7957747E-01            NaN
         13   -1    0    0    0    0  0.00000000000E+00  0.00000000000E+00  0.74505805969E-08  0.10566000000E+00  0.10566000000E+00 0.  1.
     999900   -1    0    0    0    0 -0.00000000000E+00 -0.00000000000E+00 -0.74505805969E-08  0.93827000000E+00  0.93827000000E+00 0.  1.
     999902    2    1    2    0    0  0.11216764033E-01 -0.20527186662E-02  0.64556233799E-02  0.10308263928E+01  0.10307431045E+01 0.  0.
     999903    2    3    3    0    0 -0.26693959421E-01 -0.11932591637E+00  0.53576733569E-01  0.14098897791E+00  0.45345162105E-01 0.  0.
         14    1    1    2    0    0 -0.11216764033E-01  0.20527186662E-02 -0.64556233799E-02  0.13103607233E-01  0.00000000000E+00 0. -1.
     999901    1    3    3    0    0  0.37910723454E-01  0.11727319770E+00 -0.47121110189E-01  0.88983741486E+00  0.88000000000E+00 0.  1.
        -11    1    4    4    0    0 -0.57658183606E-02 -0.88972254459E-01  0.20572696122E-01  0.91503025478E-01  0.51100000000E-03 0. -1.
         11    1    4    4    0    0 -0.20928141060E-01 -0.30353661907E-01  0.33004037447E-01  0.49485952433E-01  0.51100000000E-03 0.  1.
</event>
<event>
 8    1  0.2824193E+004  0.1043930E+01  0.7957747E-01            NaN
         13   -1    0    0    0    0  0.00000000000E+00  0.00000000000E+00  0.74505805969E-08  0.10566000000E+00  0.10566000000E+00 0. -1.
     999900   -1    0    0    0    0 -0.00000000000E+00 -0.00000000000E+00 -0.74505805969E-08  0.93827000000E+00  0.93827000000E+00 0. -1.
     999902    2    1    2    0    0  0.60464542658E-02 -0.12537377938E-01  0.21769581819E-02  0.10298415437E+01  0.10297451726E+01 0.  0.
     999903    2    3    3    0    0 -0.10645986079E+00  0.84639359744E-02 -0.76327777155E-01  0.13896460515E+00  0.45605830214E-01 0.  0.
         14    1    1    2    0    0 -0.60464542658E-02  0.12537377938E-01 -0.21769581819E-02  0.14088456327E-01  0.00000000000E+00 0. -1.
     999901    1    3    3    0    0  0.11250631505E+00 -0.21001313913E-01  0.78504735337E-01  0.89087693852E+00  0.88000000000E+00 0.  1.
        -11    1    4    4    0    0 -0.68975692053E-01  0.21186301282E-01 -0.66608924777E-01  0.98201402420E-01  0.51100000000E-03 0. -1.
         11    1    4    4    0    0 -0.37484168734E-01 -0.12722365308E-01 -0.97188523782E-02  0.40763202735E-01  0.51100000000E-03 0.  1.
</event>
<event>
 8    1  0.2824193E+004  0.1043930E+01  0.7957747E-01            NaN
         13   -1    0    0    0    0  0.00000000000E+00  0.00000000000E+00  0.74505805969E-08  0.10566000000E+00  0.10566000000E+00 0. -1.
     999900   -1    0    0    0    0 -0.00000000000E+00 -0.00000000000E+00 -0.74505805969E-08  0.93827000000E+00  0.93827000000E+00 0. -1.
     999902    2    1    2    0    0 -0.10685860716E-01  0.79715810921E-02 -0.58254598809E-02  0.10293811269E+01  0.10292783077E+01 0.  0.
     999903    2    3    3    0    0  0.84669750537E-01 -0.91007497457E-01 -0.40036967824E-01  0.13805628276E+00  0.44779986236E-01 0.  0.
         14    1    1    2    0    0  0.10685860716E-01 -0.79715810921E-02  0.58254598809E-02  0.14548873055E-01  0.00000000000E+00 0.  1.
     999901    1    3    3    0    0 -0.95355611253E-01  0.98979078549E-01  0.34211507943E-01  0.89132484419E+00  0.88000000000E+00 0.  1.
        -11    1    4    4    0    0  0.49046299245E-01 -0.44565530824E-01 -0.43742380069E-01  0.79405811766E-01  0.51100000000E-03 0. -1.
         11    1    4    4    0    0  0.35623451292E-01 -0.46441966633E-01  0.37054122447E-02  0.58650470993E-01  0.51100000000E-03 0.  1.
</event>
<event>
 8    1  0.2824193E+004  0.1043930E+01  0.7957747E-01            NaN
         13   -1    0    0    0    0  0.00000000000E+00  0.00000000000E+00  0.74505805969E-08  0.10566000000E+00  0.10566000000E+00 0.  1.
     999900   -1    0    0    0    0 -0.00000000000E+00 -0.00000000000E+00 -0.74505805969E-08  0.93827000000E+00  0.93827000000E+00 0. -1.
     999902    2    1    2    0    0  0.12606328557E-02  0.86118796486E-02  0.10666592916E-01  0.10301630152E+01  0.10300710209E+01 0.  0.
     999903    2    3    3    0    0 -0.19230636734E-02 -0.12886157609E+00 -0.24542698485E-01  0.13878835706E+00  0.45286422264E-01 0.  0.
         14    1    1    2    0    0 -0.12606328557E-02 -0.86118796486E-02 -0.10666592916E-01  0.13766984808E-01  0.00000000000E+00 0. -1.
     999901    1    3    3    0    0  0.31836965291E-02  0.13747345574E+00  0.35209291401E-01  0.89137465813E+00  0.88000000000E+00 0.  1.
        -11    1    4    4    0    0  0.10763115191E-01 -0.29023879334E-01 -0.22241036463E-01  0.38120270777E-01  0.51100000000E-03 0. -1.
         11    1    4    4    0    0 -0.12686178864E-01 -0.99837696753E-01 -0.23016620224E-02  0.10066808628E+00  0.51100000000E-03 0.  1.
</event>
<event>
 8    1  0.2824193E+004  0.1043930E+01  0.7957747E-01            NaN
         13   -1    0    0    0    0  0.00000000000E+00  0.00000000000E+00  0.74505805969E-08  0.10566000000E+00  0.10566000000E+00 0.  1.
     999900   -1    0    0    0    0 -0.00000000000E+00 -0.00000000000E+00 -0.74505805969E-08  0.93827000000E+00  0.93827000000E+00 0. -1.
     999902    2    1    2    0    0 -0.12720071819E-02 -0.17533593118E-02 -0.13450036655E-01  0.10303066466E+01  0.10302165745E+01 0.  0.
     999903    2    3    3    0    0  0.20564261309E-01  0.10296177077E+00 -0.82692306488E-01  0.14112917670E+00  0.45336650525E-01 0.  0.
         14    1    1    2    0    0  0.12720071819E-02  0.17533593118E-02  0.13450036655E-01  0.13623353375E-01  0.00000000000E+00 0.  1.
     999901    1    3    3    0    0 -0.21836268490E-01 -0.10471513008E+00  0.69242269833E-01  0.88917746992E+00  0.88000000000E+00 0. -1.
        -11    1    4    4    0    0  0.20825481850E-01  0.81293303061E-01 -0.39389953402E-01  0.92704538005E-01  0.51100000000E-03 0. -1.
         11    1    4    4    0    0 -0.26122054138E-03  0.21668467709E-01 -0.43302353086E-01  0.48424638696E-01  0.51100000000E-03 0.  1.
</event>
<event>
 8    1  0.2824193E+004  0.1043930E+01  0.7957747E-01            NaN
         13   -1    0    0    0    0  0.00000000000E+00  0.00000000000E+00  0.74505805969E-08  0.10566000000E+00  0.10566000000E+00 0.  1.
     999900   -1    0    0    0    0 -0.00000000000E+00 -0.00000000000E+00 -0.74505805969E-08  0.93827000000E+00  0.93827000000E+00 0. -1.
     999902    2    1    2    0    0 -0.11119296041E-01  0.97112550685E-02  0.25391885528E-02  0.10289501903E+01  0.10288411439E+01 0.  0.
     999903    2    3    3    0    0  0.76310209046E-01  0.10636687175E+00 -0.14866301395E-01  0.13918101932E+00  0.44868583784E-01 0.  0.
         14    1    1    2    0    0  0.11119296041E-01 -0.97112550685E-02 -0.25391885528E-02  0.14979809677E-01  0.00000000000E+00 0. -1.
     999901    1    3    3    0    0 -0.87429505087E-01 -0.96655616678E-01  0.17405489948E-01  0.88976917101E+00  0.88000000000E+00 0. -1.
        -11    1    4    4    0    0  0.54640864669E-01  0.69485286982E-01  0.11171840242E-01  0.89100506924E-01  0.51100000000E-03 0. -1.
         11    1    4    4    0    0  0.21669344377E-01  0.36881584764E-01 -0.26038141637E-01  0.50080512391E-01  0.51100000000E-03 0.  1.
</event>
<event>
 8    1  0.2824193E+004  0.1043930E+01  0.7957747E-01            NaN
         13   -1    0    0    0    0  0.00000000000E+00  0.00000000000E+00  0.74505805969E-08  0.10566000000E+00  0.10566000000E+00 0.  1.
     999900   -1    0    0    0    0 -0.00000000000E+00 -0.00000000000E+00 -0.74505805969E-08  0.93827000000E+00  0.93827000000E+00 0.  1.
     999902    2    1    2    0    0 -0.23088302015E-02 -0.11184811513E-01  0.80165200666E-02  0.10299766743E+01  0.10298821555E+01 0.  0.
     999903    2    3    3    0    0 -0.11622484816E+00  0.58442418198E-01 -0.18972245335E-01  0.13949747532E+00  0.46646199772E-01 0.  0.
         14    1    1    2    0    0  0.23088302015E-02  0.11184811513E-01 -0.80165200666E-02  0.13953325749E-01  0.00000000000E+00 0. -1.
     999901    1    3    3    0    0  0.11391601796E+00 -0.69627229711E-01  0.26988765402E-01  0.89047919893E+00  0.88000000000E+00 0. -1.
        -11    1    4    4    0    0 -0.43711947545E-01  0.24477095621E-01 -0.30412509583E-01  0.58609252071E-01  0.51100000000E-03 0.  1.
         11    1    4    4    0    0 -0.72512900618E-01  0.33965322577E-01  0.11440264248E-01  0.80888223252E-01  0.51100000000E-03 0. -1.
</event>
<event>
 7    1  0.2824193E+004  0.1043930E+01  0.7957747E-01            NaN
         13   -1    0    0    0    0  0.00000000000E+00  0.00000000000E+00  0.74505805969E-08  0.10566000000E+00  0.10566000000E+00 0.  1.
     999900   -1    0    0    0    0 -0.00000000000E+00 -0.00000000000E+00 -0.74505805969E-08  0.93827000000E+00  0.93827000000E+00 0.  1.
     999902    2    1    2    0    0 -0.45504796473E-02  0.11699284795E-01  0.37644787330E-02  0.10308246030E+01  0.10307412919E+01 0.  0.
         14    1    1    2    0    0  0.45504796473E-02 -0.11699284795E-01 -0.37644787330E-02  0.13105396974E-01  0.00000000000E+00 0. -1.
     999901    1    3    3    0    0  0.65079252468E-02 -0.12589702251E+00  0.24958596196E-01  0.88933421439E+00  0.88000000000E+00 0. -1.
        -11    1    3    3    0    0  0.31654302989E-02  0.86201397294E-01 -0.17614433799E-01  0.88041071344E-01  0.51100000000E-03 0. -1.
         11    1    3    3    0    0 -0.14223835193E-01  0.51394910009E-01 -0.35796836637E-02  0.53449317288E-01  0.51100000000E-03 0.  1.
</event>
<event>
 7    1  0.2824193E+004  0.1043930E+01  0.7957747E-01            NaN
         13   -1    0    0    0    0  0.00000000000E+00  0.00000000000E+00  0.74505805969E-08  0.10566000000E+00  0.10566000000E+00 0.  1.
     999900   -1    0    0    0    0 -0.00000000000E+00 -0.00000000000E+00 -0.74505805969E-08  0.93827000000E+00  0.93827000000E+00 0.  1.
     999902    2    1    2    0    0  0.24401506669E-02 -0.12932449232E-01  0.42942824348E-02  0.10300864658E+01  0.10299934386E+01 0.  0.
         14    1    1    2    0    0 -0.24401506669E-02  0.12932449232E-01 -0.42942824348E-02  0.13843534233E-01  0.00000000000E+00 0.  1.
     999901    1    3    3    0    0  0.15312307514E-01  0.78030751001E-01 -0.75379747542E-01  0.88679499954E+00  0.88000000000E+00 0. -1.
        -11    1    3    3    0    0 -0.36737596892E-01 -0.65108920944E-01  0.78030591001E-01  0.10806413311E+00  0.51100000000E-03 0. -1.
         11    1    3    3    0    0  0.23865440045E-01 -0.25854279290E-01  0.16434389764E-02  0.35227333121E-01  0.51100000000E-03 0.  1.
</event>
<event>
 8    1  0.2824193E+004  0.1043930E+01  0.7957747E-01            NaN
         13   -1    0    0    0    0  0.00000000000E+00  0.00000000000E+00  0.74505805969E-08  0.10566000000E+00  0.10566000000E+00 0. -1.
     999900   -1    0    0    0    0 -0.00000000000E+00 -0.00000000000E+00 -0.74505805969E-08  0.93827000000E+00  0.93827000000E+00 0. -1.
     999902    2    1    2    0    0  0.11920587398E-01  0.27766960933E-03  0.69403611705E-02  0.10301334020E+01  0.10300410088E+01 0.  0.
     999903    2    3    3    0    0 -0.31893884185E-02 -0.65590144546E-01 -0.11456757193E+00  0.13921754840E+00  0.44085802538E-01 0.  0.
         14    1    1    2    0    0 -0.11920587398E-01 -0.27766960933E-03 -0.69403611705E-02  0.13796598041E-01  0.00000000000E+00 0.  1.
     999901    1    3    3    0    0  0.15109975817E-01  0.65867814155E-01  0.12150793310E+00  0.89091585356E+00  0.88000000000E+00 0.  1.
        -11    1    4    4    0    0  0.11338289014E-01 -0.10615578025E-01 -0.59979465056E-02  0.16657844334E-01  0.51100000000E-03 0. -1.
         11    1    4    4    0    0 -0.14527677432E-01 -0.54974566521E-01 -0.10856962542E+00  0.12255970407E+00  0.51100000000E-03 0.  1.
</event>
<event>
 8    1  0.2824193E+004  0.1043930E+01  0.7957747E-01            NaN
         13   -1    0    0    0    0  0.00000000000E+00  0.00000000000E+00  0.74505805969E-08  0.10566000000E+00  0.10566000000E+00 0.  1.
     999900   -1    0    0    0    0 -0.00000000000E+00 -0.00000000000E+00 -0.74505805969E-08  0.93827000000E+00  0.93827000000E+00 0.  1.
     999902    2    1    2    0    0  0.11915499056E-01  0.31108670119E-02 -0.66086203940E-02  0.10299539321E+01  0.10298591028E+01 0.  0.
     999903    2    3    3    0    0  0.20099075559E-01  0.95237452789E-01  0.88268495322E-01  0.14003486506E+00  0.48417878053E-01 0.  0.
         14    1    1    2    0    0 -0.11915499056E-01 -0.31108670119E-02  0.66086203940E-02  0.13976067931E-01  0.00000000000E+00 0.  1.
     999901    1    3    3    0    0 -0.81835765031E-02 -0.92126585777E-01 -0.94877115716E-01  0.88991906700E+00  0.88000000000E+00 0.  1.
        -11    1    4    4    0    0  0.20266476353E-01  0.15608017789E-01  0.38181831048E-01  0.45961436295E-01  0.51100000000E-03 0. -1.
         11    1    4    4    0    0 -0.16740079460E-03  0.79629434999E-01  0.50086664274E-01  0.94073428769E-01  0.51100000000E-03 0.  1.
</event>
<event>
 8    1  0.2824193E+004  0.1043930E+01  0.7957747E-01            NaN
         13   -1    0    0    0    0  0.00000000000E+00  0.00000000000E+00  0.74505805969E-08  0.10566000000E+00  0.10566000000E+00 0. -1.
     999900   -1    0    0    0    0 -0.00000000000E+00 -0.00000000000E+00 -0.74505805969E-08  0.93827000000E+00  0.93827000000E+00 0.  1.
     999902    2    1    2    0    0 -0.69926857746E-02  0.10496764603E-01  0.87843651313E-02  0.10285597433E+01  0.10284448943E+01 0.  0.
     999903    2    3    3    0    0 -0.14342095929E-01  0.22450457017E-01 -0.12766500867E+00  0.13793337031E+00  0.44917050990E-01 0.  0.
         14    1    1    2    0    0  0.69926857746E-02 -0.10496764603E-01 -0.87843651313E-02  0.15370256740E-01  0.00000000000E+00 0.  1.
     999901    1    3    3    0    0  0.73494101542E-02 -0.11953692413E-01  0.13644937380E+00  0.89062637295E+00  0.88000000000E+00 0. -1.
        -11    1    4    4    0    0 -0.27609411190E-01  0.26551530377E-01 -0.92025256714E-01  0.99680350852E-01  0.51100000000E-03 0. -1.
         11    1    4    4    0    0  0.13267315262E-01 -0.41010733603E-02 -0.35639751955E-01  0.38253019454E-01  0.51100000000E-03 0.  1.
</event>
<event>
 8    1  0.2824193E+004  0.1043930E+01  0.7957747E-01            NaN
         13   -1    0    0    0    0  0.00000000000E+00  0.00000000000E+00  0.74505805969E-08  0.10566000000E+00  0.10566000000E+00 0. -1.
     999900   -1    0    0    0    0 -0.00000000000E+00 -0.00000000000E+00 -0.74505805969E-08  0.93827000000E+00  0.93827000000E+00 0.  1.
     999902    2    1    2    0    0 -0.72265732027E-02  0.22705803553E-04 -0.11564903475E-01  0.10302928864E+01  0.10302026310E+01 0.  0.
     999903    2    3    3    0    0  0.86810249487E-01 -0.94046799335E-01  0.32507730737E-01  0.13920681146E+00  0.44056372033E-01 0.  0.
         14    1    1    2    0    0  0.72265732027E-02 -0.22705803553E-04  0.11564903475E-01  0.13637113631E-01  0.00000000000E+00 0. -1.
     999901    1    3    3    0    0 -0.94036822689E-01  0.94069505138E-01 -0.44072634212E-01  0.89108607491E+00  0.88000000000E+00 0.  1.
        -11    1    4    4    0    0  0.55191436098E-01 -0.86470175655E-01  0.28313851930E-01  0.10641955285E+00  0.51100000000E-03 0. -1.
         11    1    4    4    0    0  0.31618813388E-01 -0.75766236800E-02  0.41938788073E-02  0.32787258606E-01  0.51100000000E-03 0.  1.
</event>
<event>
 8    1  0.2824193E+004  0.1043930E+01  0.7957747E-01            NaN
         13   -1    0    0    0    0  0.00000000000E+00  0.00000000000E+00  0.74505805969E-08  0.10566000000E+00  0.10566000000E+00 0. -1.
     999900   -1    0    0    0    0 -0.00000000000E+00 -0.00000000000E+00 -0.74505805969E-08  0.93827000000E+00  0.93827000000E+00 0.  1.
     999902    2    1    2    0    0 -0.62778452147E-03  0.41085023211E-02 -0.14476649298E-01  0.10288685499E+01  0.10287583028E+01 0.  0.
     999903    2    3    3    0    0 -0.66800711922E-01 -0.97894256336E-01 -0.57872648753E-01  0.13944928325E+00  0.45290601535E-01 0.  0.
         14    1    1    2    0    0  0.62778452147E-03 -0.41085023211E-02  0.14476649298E-01  0.15061450117E-01  0.00000000000E+00 0. -1.
     999901    1    3    3    0    0  0.66172927401E-01  0.10200275866E+00  0.43395999455E-01  0.88941926664E+00  0.88000000000E+00 0. -1.
        -11    1    4    4    0    0 -0.13899819929E-01 -0.36077456646E-01  0.15492563475E-02  0.38696888613E-01  0.51100000000E-03 0. -1.
         11    1    4    4    0    0 -0.52900891994E-01 -0.61816799690E-01 -0.59421905101E-01  0.10075239463E+00  0.51100000000E-03 0.  1.
</event>
<event>
 8    1  0.2824193E+004  0.1043930E+01  0.7957747E-01            NaN
         13   -1    0    0    0    0  0.00000000000E+00  0.00000000000E+00  0.74505805969E-08  0.10566000000E+00  0.10566000000E+00 0.  1.
     999900   -1    0    0    0    0 -0.00000000000E+00 -0.00000000000E+00 -0.74505805969E-08  0.93827000000E+00  0.93827000000E+00 0. -1.
     999902    2    1    2    0    0  0.66562377674E-02 -0.85205542748E-02  0.77782101712E-02  0.10306106194E+01  0.10305245475E+01 0.  0.
     999903    2    3    3    0    0 -0.13093873476E+00 -0.25000943764E-01 -0.91938204366E-02  0.13960443000E+00  0.40433539187E-01 0.  0.
         14    1    1    2    0    0 -0.66562377674E-02  0.85205542748E-02 -0.77782101712E-02  0.13319380610E-01  0.00000000000E+00 0.  1.
     999901    1    3    3    0    0  0.13759497253E+00  0.16480389489E-01  0.16972030608E-01  0.89100618939E+00  0.88000000000E+00 0. -1.
        -11    1    4    4    0    0 -0.48177626334E-01  0.10369426650E-01 -0.41918909220E-02  0.49461517958E-01  0.51100000000E-03 0. -1.
         11    1    4    4    0    0 -0.82761108431E-01 -0.35370370414E-01 -0.50019295146E-02  0.90142912044E-01  0.51100000000E-03 0.  1.
</event>
<event>
 8    1  0.2824193E+004  0.1043930E+01  0.7957747E-01            NaN
         13   -1    0    0    0    0  0.00000000000E+00  0.00000000000E+00  0.74505805969E-08  0.10566000000E+00  0.10566000000E+00 0. -1.
     999900   -1    0    0    0    0 -0.00000000000E+00 -0.00000000000E+00 -0.74505805969E-08  0.93827000000E+00  0.93827000000E+00 0. -1.
     999902    2    1    2    0    0 -0.55172559661E-02  0.16230985023E-01  0.13251195355E-01  0.10222625321E+01  0.10220328788E+01 0.  0.
     999903    2    3    3    0    0 -0.34185667923E-01 -0.74418155432E-01  0.94919026606E-01  0.13338189938E+00  0.45545446762E-01 0.  0.
         14    1    1    2    0    0  0.55172559661E-02 -0.16230985023E-01 -0.13251195355E-01  0.21667467932E-01  0.00000000000E+00 0.  1.
     999901    1    3    3    0    0  0.28668411957E-01  0.90649140456E-01 -0.81667831251E-01  0.88888063269E+00  0.88000000000E+00 0. -1.
        -11    1    4    4    0    0 -0.26167623771E-01 -0.21960277293E-01  0.14691058583E-01  0.37189872760E-01  0.51100000000E-03 0. -1.
         11    1    4    4    0    0 -0.80180441521E-02 -0.52457878140E-01  0.80227968023E-01  0.96192026619E-01  0.51100000000E-03 0.  1.
</event>
<event>
 8    1  0.2824193E+004  0.1043930E+01  0.7957747E-01            NaN
         13   -1    0    0    0    0  0.00000000000E+00  0.00000000000E+00  0.74505805969E-08  0.10566000000E+00  0.10566000000E+00 0.  1.
     999900   -1    0    0    0    0 -0.00000000000E+00 -0.00000000000E+00 -0.74505805969E-08  0.93827000000E+00  0.93827000000E+00 0. -1.
     999902    2    1    2    0    0  0.18070627091E-02  0.14101115324E-01 -0.13131244891E-02  0.10296530527E+01  0.10295540674E+01 0.  0.
     999903    2    3    3    0    0  0.62227813636E-01 -0.43707077391E-01  0.10717611879E+00  0.13905641547E+00  0.45468195930E-01 0.  0.
         14    1    1    2    0    0 -0.18070627091E-02 -0.14101115324E-01  0.13131244891E-02  0.14276947326E-01  0.00000000000E+00 0.  1.
     999901    1    3    3    0    0 -0.60420750927E-01  0.57808192715E-01 -0.10848924328E+00  0.89059663720E+00  0.88000000000E+00 0. -1.
        -11    1    4    4    0    0  0.21979678958E-01  0.72970503781E-02  0.22185212453E-01  0.32074881198E-01  0.51100000000E-03 0.  1.
         11    1    4    4    0    0  0.40248134678E-01 -0.51004127769E-01  0.84990906337E-01  0.10698153427E+00  0.51100000000E-03 0. -1.
</event>
<event>
 8    1  0.2824193E+004  0.1043930E+01  0.7957747E-01            NaN
         13   -1    0    0    0    0  0.00000000000E+00  0.00000000000E+00  0.74505805969E-08  0.10566000000E+00  0.10566000000E+00 0. -1.
     999900   -1    0    0    0    0 -0.00000000000E+00 -0.00000000000E+00 -0.74505805969E-08  0.93827000000E+00  0.93827000000E+00 0.  1.
     999902    2    1    2    0    0 -0.12792855202E-01 -0.87618548547E-03  0.53411048052E-02  0.10300392748E+01  0.10299456080E+01 0.  0.
     999903    2    3    3    0    0 -0.54901753892E-01  0.35335843971E-01  0.11679747944E+00  0.14127215467E+00  0.45313861366E-01 0.  0.
         14    1    1    2    0    0  0.12792855202E-01  0.87618548547E-03 -0.53411048052E-02  0.13890725170E-01  0.00000000000E+00 0. -1.
     999901    1    3    3    0    0  0.42108898690E-01 -0.36212029456E-01 -0.11145637464E+00  0.88876712016E+00  0.88000000000E+00 0.  1.
        -11    1    4    4    0    0 -0.29553125808E-01  0.39867977278E-01  0.96371533410E-01  0.10840007578E+00  0.51100000000E-03 0. -1.
         11    1    4    4    0    0 -0.25348628084E-01 -0.45321333069E-02  0.20425946033E-01  0.32872078888E-01  0.51100000000E-03 0.  1.
</event>
<event>
 8    1  0.2824193E+004  0.1043930E+01  0.7957747E-01            NaN
         13   -1    0    0    0    0  0.00000000000E+00  0.00000000000E+00  0.74505805969E-08  0.10566000000E+00  0.10566000000E+00 0.  1.
     999900   -1    0    0    0    0 -0.00000000000E+00 -0.00000000000E+00 -0.74505805969E-08  0.93827000000E+00  0.93827000000E+00 0.  1.
     999902    2    1    2    0    0  0.91480684002E-02  0.16086315593E-03 -0.41759566596E-03  0.10347709925E+01  0.10347304574E+01 0.  0.
     999903    2    3    3    0    0 -0.50957733004E-01 -0.12697913895E-02 -0.12664421230E+00  0.14373344397E+00  0.44969361578E-01 0.  0.
         14    1    1    2    0    0 -0.91480684002E-02 -0.16086315593E-03  0.41759566596E-03  0.91590075090E-02  0.00000000000E+00 0.  1.
     999901    1    3    3    0    0  0.60105801404E-01  0.14306545455E-02  0.12622661664E+00  0.89103754853E+00  0.88000000000E+00 0. -1.
        -11    1    4    4    0    0 -0.20216387180E-01 -0.17631384611E-01 -0.86607906073E-01  0.90668398846E-01  0.51100000000E-03 0.  1.
         11    1    4    4    0    0 -0.30741345824E-01  0.16361593222E-01 -0.40036306232E-01  0.53065045119E-01  0.51100000000E-03 0. -1.
</event>
<event>
 8    1  0.2824193E+004  0.1043930E+01  0.7957747E-01            NaN
         13   -1    0    0    0    0  0.00000000000E+00  0.00000000000E+00  0.74505805969E-08  0.10566000000E+00  0.10566000000E+00 0. -1.
     999900   -1    0    0    0    0 -0.00000000000E+00 -0.00000000000E+00 -0.74505805969E-08  0.93827000000E+00  0.93827000000E+00 0. -1.
     999902    2    1    2    0    0 -0.10169152912E-01 -0.79650815532E-02 -0.15687756942E-02  0.10309178806E+01  0.10308357586E+01 0.  0.
     999903    2    3    3    0    0 -0.10849543883E+00  0.70985724886E-01  0.33629511763E-01  0.14123242616E+00  0.44781924378E-01 0.  0.
         14    1    1    2    0    0  0.10169152912E-01  0.79650815532E-02  0.15687756942E-02  0.13012119439E-01  0.00000000000E+00 0. -1.
     999901    1    3    3    0    0  0.98326285923E-01 -0.78950806439E-01 -0.35198287457E-01  0.88968545441E+00  0.88000000000E+00 0. -1.
        -11    1    4    4    0    0 -0.12789308842E-01  0.13446334351E-02  0.17578225432E-01  0.21785995273E-01  0.51100000000E-03 0. -1.
         11    1    4    4    0    0 -0.95706129993E-01  0.69641091450E-01  0.16051286331E-01  0.11944643088E+00  0.51100000000E-03 0.  1.
</event>
<event>
 8    1  0.2824193E+004  0.1043930E+01  0.7957747E-01            NaN
         13   -1    0    0    0    0  0.00000000000E+00  0.00000000000E+00  0.74505805969E-08  0.10566000000E+00  0.10566000000E+00 0. -1.
     999900   -1    0    0    0    0 -0.00000000000E+00 -0.00000000000E+00 -0.74505805969E-08  0.93827000000E+00  0.93827000000E+00 0.  1.
     999902    2    1    2    0    0  0.18168702958E-02  0.14741913933E-01 -0.11691511004E-01  0.10250271834E+01  0.10248528725E+01 0.  0.
     999903    2    3    3    0    0  0.10205835130E+00 -0.29886670914E-02 -0.78832431185E-01  0.13661813848E+00  0.45001381691E-01 0.  0.
         14    1    1    2    0    0 -0.18168702958E-02 -0.14741913933E-01  0.11691511004E-01  0.18902816553E-01  0.00000000000E+00 0.  1.
     999901    1    3    3    0    0 -0.10024148100E+00  0.17730581024E-01  0.67140920181E-01  0.88840904497E+00  0.88000000000E+00 0.  1.
        -11    1    4    4    0    0  0.43051163799E-01  0.92230764292E-02 -0.58083251340E-01  0.72886165015E-01  0.51100000000E-03 0.  1.
         11    1    4    4    0    0  0.59007187500E-01 -0.12211743521E-01 -0.20749179845E-01  0.63731973465E-01  0.51100000000E-03 0. -1.
</event>
<event>
 8    1  0.2824193E+004  0.1043930E+01  0.7957747E-01            NaN
         13   -1    0    0    0    0  0.00000000000E+00  0.00000000000E+00  0.74505805969E-08  0.10566000000E+00  0.10566000000E+00 0.  1.
     999900   -1    0    0    0    0 -0.00000000000E+00 -0.00000000000E+00 -0.74505805969E-08  0.93827000000E+00  0.93827000000E+00 0. -1.
     999902    2    1    2    0    0  0.59841422219E-02  0.10200169814E-01 -0.72302851576E-02  0.10300688873E+01  0.10299756221E+01 0.  0.
     999903    2    3    3    0    0  0.10099559622E+00 -0.30653692404E-04  0.85392470199E-01  0.14006280812E+00  0.46104282402E-01 0.  0.
         14    1    1    2    0    0 -0.59841422219E-02 -0.10200169814E-01  0.72302851576E-02  0.13861112720E-01  0.00000000000E+00 0.  1.
     999901    1    3    3    0    0 -0.95011453994E-01  0.10230823507E-01 -0.92622755357E-01  0.89000607916E+00  0.88000000000E+00 0. -1.
        -11    1    4    4    0    0  0.45046133946E-01 -0.40837355396E-02  0.67357880908E-01  0.81136775391E-01  0.51100000000E-03 0. -1.
         11    1    4    4    0    0  0.55949462270E-01  0.40530818472E-02  0.18034589292E-01  0.58926032725E-01  0.51100000000E-03 0.  1.
</event>
<event>
 8    1  0.2824193E+004  0.1043930E+01  0.7957747E-01            NaN
         13   -1    0    0    0    0  0.00000000000E+00  0.00000000000E+00  0.74505805969E-08  0.10566000000E+00  0.10566000000E+00 0.  1.
     999900   -1    0    0    0    0 -0.00000000000E+00 -0.00000000000E+00 -0.74505805969E-08  0.93827000000E+00  0.93827000000E+00 0.  1.
     999902    2    1    2    0    0 -0.17705194642E-02  0.13993594109E-01 -0.50219285433E-02  0.10289575192E+01  0.10288485803E+01 0.  0.
     999903    2    3    3    0    0 -0.10671077596E+00 -0.61397015533E-01  0.41925205084E-01  0.13828348521E+00  0.46987405093E-01 0.  0.
         14    1    1    2    0    0  0.17705194642E-02 -0.13993594109E-01  0.50219285433E-02  0.14972480809E-01  0.00000000000E+00 0.  1.
     999901    1    3    3    0    0  0.10494025650E+00  0.75390609642E-01 -0.46947133627E-01  0.89067403398E+00  0.88000000000E+00 0.  1.
        -11    1    4    4    0    0 -0.26750650395E-01 -0.21548227377E-01 -0.89124764031E-02  0.35491079954E-01  0.51100000000E-03 0. -1.
         11    1    4    4    0    0 -0.79960125566E-01 -0.39848788156E-01  0.50837681487E-01  0.10279240525E+00  0.51100000000E-03 0.  1.
</event>
<event>
 8    1  0.2824193E+004  0.1043930E+01  0.7957747E-01            NaN
         13   -1    0    0    0    0  0.00000000000E+00  0.00000000000E+00  0.74505805969E-08  0.10566000000E+00  0.10566000000E+00 0. -1.
     999900   -1    0    0    0    0 -0.00000000000E+00 -0.00000000000E+00 -0.74505805969E-08  0.93827000000E+00  0.93827000000E+00 0.  1.
     999902    2    1    2    0    0 -0.12844587302E-01 -0.32045071119E-02 -0.53009957232E-02  0.10296698161E+01  0.10295710648E+01 0.  0.
     999903    2    3    3    0    0 -0.50969063363E-01  0.83849663043E-01 -0.89735549556E-01  0.14053478807E+00  0.45485672370E-01 0.  0.
         14    1    1    2    0    0  0.12844587302E-01  0.32045071119E-02  0.53009957232E-02  0.14260183886E-01  0.00000000000E+00 0.  1.
     999901    1    3    3    0    0  0.38124476060E-01 -0.87054170155E-01  0.84434553833E-01  0.88913502805E+00  0.88000000000E+00 0. -1.
        -11    1    4    4    0    0 -0.10681232796E-01  0.51930615208E-01 -0.27216552819E-01  0.59597645912E-01  0.51100000000E-03 0. -1.
         11    1    4    4    0    0 -0.40287830567E-01  0.31919047835E-01 -0.62518996737E-01  0.80937142157E-01  0.51100000000E-03 0.  1.
</event>
<event>
 8    1  0.2824193E+004  0.1043930E+01  0.7957747E-01            NaN
         13   -1    0    0    0    0  0.00000000000E+00  0.00000000000E+00  0.74505805969E-08  0.10566000000E+00  0.10566000000E+00 0.  1.
     999900   -1    0    0    0    0 -0.00000000000E+00 -0.00000000000E+00 -0.74505805969E-08  0.93827000000E+00  0.93827000000E+00 0. -1.
     999902    2    1    2    0    0 -0.25877838441E-02 -0.13011136883E-01  0.18962220051E-02  0.10305291804E+01  0.10304420458E+01 0.  0.
     999903    2    3    3    0    0 -0.14463119570E-01 -0.11768312553E+00 -0.63514483110E-01  0.14183586482E+00  0.44998034632E-01 0.  0.
         14    1    1    2    0    0  0.25877838441E-02  0.13011136883E-01 -0.18962220051E-02  0.13400819606E-01  0.00000000000E+00 0. -1.
     999901    1    3    3    0    0  0.11875335726E-01  0.10467198865E+00  0.65410705115E-01  0.88869331558E+00  0.88000000000E+00 0.  1.
        -11    1    4    4    0    0 -0.27577541491E-01 -0.53260106855E-01 -0.39616003621E-01  0.71880794659E-01  0.51100000000E-03 0. -1.
         11    1    4    4    0    0  0.13114421921E-01 -0.64423018679E-01 -0.23898479489E-01  0.69955070159E-01  0.51100000000E-03 0.  1.
</event>
<event>
 8    1  0.2824193E+004  0.1043930E+01  0.7957747E-01            NaN
         13   -1    0    0    0    0  0.00000000000E+00  0.00000000000E+00  0.74505805969E-08  0.10566000000E+00  0.10566000000E+00 0.  1.
     999900   -1    0    0    0    0 -0.00000000000E+00 -0.00000000000E+00 -0.74505805969E-08  0.93827000000E+00  0.93827000000E+00 0. -1.
     999902    2    1    2    0    0  0.67451489701E-02  0.12412632497E-01  0.21842132043E-02  0.10296352014E+01  0.10295359667E+01 0.  0.
     999903    2    3    3    0    0  0.58361116644E-01 -0.11632163473E-01  0.11869569609E+00  0.14013124637E+00  0.44796995169E-01 0.  0.
         14    1    1    2    0    0 -0.67451489701E-02 -0.12412632497E-01 -0.21842132043E-02  0.14294798616E-01  0.00000000000E+00 0. -1.
     999901    1    3    3    0    0 -0.51615967674E-01  0.24044795970E-01 -0.11651148289E+00  0.88950395501E+00  0.88000000000E+00 0. -1.
        -11    1    4    4    0    0  0.53347146699E-01 -0.25050444795E-01  0.84219153274E-01  0.10279382153E+00  0.51100000000E-03 0. -1.
         11    1    4    4    0    0  0.50139699450E-02  0.13418281322E-01  0.34476542821E-01  0.37337424846E-01  0.51100000000E-03 0.  1.
</event>
<event>
 8    1  0.2824193E+004  0.1043930E+01  0.7957747E-01            NaN
         13   -1    0    0    0    0  0.00000000000E+00  0.00000000000E+00  0.74505805969E-08  0.10566000000E+00  0.10566000000E+00 0. -1.
     999900   -1    0    0    0    0 -0.00000000000E+00 -0.00000000000E+00 -0.74505805969E-08  0.93827000000E+00  0.93827000000E+00 0.  1.
     999902    2    1    2    0    0 -0.53704389972E-02 -0.41559144268E-03  0.12345827399E-01  0.10304602641E+01  0.10303722250E+01 0.  0.
     999903    2    3    3    0    0 -0.89345043108E-01  0.98879270705E-01  0.51643414010E-02  0.14087453044E+00  0.45379687087E-01 0.  0.
         14    1    1    2    0    0  0.53704389972E-02  0.41559144268E-03 -0.12345827399E-01  0.13469735908E-01  0.00000000000E+00 0.  1.
     999901    1    3    3    0    0  0.83974604111E-01 -0.99294862148E-01  0.71814859975E-02  0.88958573366E+00  0.88000000000E+00 0.  1.
        -11    1    4    4    0    0 -0.66807665128E-01  0.80081560034E-01  0.22631648937E-01  0.10671819447E+00  0.51100000000E-03 0.  1.
         11    1    4    4    0    0 -0.22537377980E-01  0.18797710671E-01 -0.17467307536E-01  0.34156335961E-01  0.51100000000E-03 0. -1.
</event>
<event>
 8    1  0.2824193E+004  0.1043930E+01  0.7957747E-01            NaN
         13   -1    0    0    0    0  0.00000000000E+00  0.00000000000E+00  0.74505805969E-08  0.10566000000E+00  0.10566000000E+00 0.  1.
     999900   -1    0    0    0    0 -0.00000000000E+00 -0.00000000000E+00 -0.74505805969E-08  0.93827000000E+00  0.93827000000E+00 0. -1.
     999902    2    1    2    0    0 -0.12796020482E-01  0.22900927540E-02 -0.41755654213E-02  0.10302765019E+01  0.10301860280E+01 0.  0.
     999903    2    3    3    0    0 -0.77680396599E-02 -0.54904572021E-01  0.12001468902E+00  0.13970380433E+00  0.45152772841E-01 0.  0.
         14    1    1    2    0    0  0.12796020482E-01 -0.22900927540E-02  0.41755654213E-02  0.13653498145E-01  0.00000000000E+00 0. -1.
     999901    1    3    3    0    0 -0.50279808222E-02  0.57194664775E-01 -0.12419025444E+00  0.89057269752E+00  0.88000000000E+00 0. -1.
        -11    1    4    4    0    0 -0.16332291885E-01 -0.42737582595E-01  0.48581911809E-01  0.66736107170E-01  0.51100000000E-03 0.  1.
         11    1    4    4    0    0  0.85642522255E-02 -0.12166989426E-01  0.71432777215E-01  0.72967697164E-01  0.51100000000E-03 0. -1.
</event>
<event>
 8    1  0.2824193E+004  0.1043930E+01  0.7957747E-01            NaN
         13   -1    0    0    0    0  0.00000000000E+00  0.00000000000E+00  0.74505805969E-08  0.10566000000E+00  0.10566000000E+00 0.  1.
     999900   -1    0    0    0    0 -0.00000000000E+00 -0.00000000000E+00 -0.74505805969E-08  0.93827000000E+00  0.93827000000E+00 0.  1.
     999902    2    1    2    0    0  0.39267543240E-02 -0.72984247115E-02 -0.11565312831E-01  0.10297017582E+01  0.10296034518E+01 0.  0.
     999903    2    3    3    0    0 -0.31529240250E-01 -0.81392358717E-01  0.98115842176E-01  0.13909691075E+00  0.45852186923E-01 0.  0.
         14    1    1    2    0    0 -0.39267543240E-02  0.72984247115E-02  0.11565312831E-01  0.14228241763E-01  0.00000000000E+00 0.  1.
     999901    1    3    3    0    0  0.35455994574E-01  0.74093934005E-01 -0.10968115501E+00  0.89060484749E+00  0.88000000000E+00 0.  1.
        -11    1    4    4    0    0 -0.42176730978E-01 -0.64530037340E-01  0.87067001318E-01  0.11629241675E+00  0.51100000000E-03 0. -1.
         11    1    4    4    0    0  0.10647490728E-01 -0.16862321377E-01  0.11048840858E-01  0.22804493994E-01  0.51100000000E-03 0.  1.
</event>
<event>
 8    1  0.2824193E+004  0.1043930E+01  0.7957747E-01            NaN
         13   -1    0    0    0    0  0.00000000000E+00  0.00000000000E+00  0.74505805969E-08  0.10566000000E+00  0.10566000000E+00 0.  1.
     999900   -1    0    0    0    0 -0.00000000000E+00 -0.00000000000E+00 -0.74505805969E-08  0.93827000000E+00  0.93827000000E+00 0. -1.
     999902    2    1    2    0    0 -0.48181565821E-02 -0.69619621614E-02  0.11010937216E-01  0.10300402812E+01  0.10299466280E+01 0.  0.
     999903    2    3    3    0    0 -0.17452662525E-02  0.12809369230E+00  0.32034287786E-01  0.13948345891E+00  0.44926604077E-01 0.  0.
         14    1    1    2    0    0  0.48181565821E-02  0.69619621614E-02 -0.11010937216E-01  0.13889718801E-01  0.00000000000E+00 0. -1.
     999901    1    3    3    0    0 -0.30728903296E-02 -0.13505565446E+00 -0.21023350570E-01  0.89055682229E+00  0.88000000000E+00 0. -1.
        -11    1    4    4    0    0 -0.64206283288E-02  0.46420288777E-01  0.33590777206E-01  0.57659943744E-01  0.51100000000E-03 0.  1.
         11    1    4    4    0    0  0.46753620763E-02  0.81673403524E-01 -0.15564894201E-02  0.81823515166E-01  0.51100000000E-03 0. -1.
</event>
<event>
 8    1  0.2824193E+004  0.1043930E+01  0.7957747E-01            NaN
         13   -1    0    0    0    0  0.00000000000E+00  0.00000000000E+00  0.74505805969E-08  0.10566000000E+00  0.10566000000E+00 0.  1.
     999900   -1    0    0    0    0 -0.00000000000E+00 -0.00000000000E+00 -0.74505805969E-08  0.93827000000E+00  0.93827000000E+00 0. -1.
     999902    2    1    2    0    0 -0.10797843115E-02  0.24679164640E-01  0.12051007126E-01  0.10164444788E+01  0.10160727950E+01 0.  0.
     999903    2    3    3    0    0  0.10179371213E+00 -0.10730835915E-01 -0.63848826887E-01  0.12650200360E+00  0.38065385201E-01 0.  0.
         14    1    1    2    0    0  0.10797843115E-02 -0.24679164640E-01 -0.12051007126E-01  0.27485521175E-01  0.00000000000E+00 0. -1.
     999901    1    3    3    0    0 -0.10287349644E+00  0.35410000555E-01  0.75899834013E-01  0.88994247523E+00  0.88000000000E+00 0. -1.
        -11    1    4    4    0    0  0.90344736362E-01  0.33627411007E-02 -0.58020015505E-01  0.10742468402E+00  0.51100000000E-03 0.  1.
         11    1    4    4    0    0  0.11448975771E-01 -0.14093577015E-01 -0.58288113816E-02  0.19077319581E-01  0.51100000000E-03 0. -1.
</event>
<event>
 8    1  0.2824193E+004  0.1043930E+01  0.7957747E-01            NaN
         13   -1    0    0    0    0  0.00000000000E+00  0.00000000000E+00  0.74505805969E-08  0.10566000000E+00  0.10566000000E+00 0. -1.
     999900   -1    0    0    0    0 -0.00000000000E+00 -0.00000000000E+00 -0.74505805969E-08  0.93827000000E+00  0.93827000000E+00 0.  1.
     999902    2    1    2    0    0  0.73077801265E-02  0.11736526409E-01  0.27217638856E-02  0.10298389496E+01  0.10297425428E+01 0.  0.
     999903    2    3    3    0    0  0.62360539089E-01  0.91198146694E-01  0.75918007943E-01  0.14152445265E+00  0.45383785329E-01 0.  0.
         14    1    1    2    0    0 -0.73077801265E-02 -0.11736526409E-01 -0.27217638856E-02  0.14091050393E-01  0.00000000000E+00 0. -1.
     999901    1    3    3    0    0 -0.55052758963E-01 -0.79461620285E-01 -0.73196244057E-01  0.88831449696E+00  0.88000000000E+00 0.  1.
        -11    1    4    4    0    0  0.46129352256E-01  0.44595379298E-01  0.64272748806E-01  0.90818017785E-01  0.51100000000E-03 0.  1.
         11    1    4    4    0    0  0.16231186833E-01  0.46602767396E-01  0.11645259137E-01  0.50706434861E-01  0.51100000000E-03 0. -1.
</event>
<event>
 6    1  0.2824193E+004  0.1043930E+01  0.7957747E-01            NaN
         13   -1    0    0    0    0  0.00000000000E+00  0.00000000000E+00  0.74505805969E-08  0.10566000000E+00  0.10566000000E+00 0. -1.
     999900   -1    0    0    0    0 -0.00000000000E+00 -0.00000000000E+00 -0.74505805969E-08  0.93827000000E+00  0.93827000000E+00 0.  1.
         14    1    1    2    0    0 -0.15801226560E-02  0.24627719855E-01 -0.61740055410E-01  0.66489516579E-01  0.00000000000E+00 0.  1.
     999901    1    1    2    0    0 -0.64574587893E-02 -0.86812256780E-01  0.11411723643E+00  0.89162817943E+00  0.88000000000E+00 0. -1.
        -11    1    1    2    0    0 -0.13856828414E-02  0.31118273596E-01 -0.40817629716E-01  0.51347902442E-01  0.51100000000E-03 0.  1.
         11    1    1    2    0    0  0.94232642867E-02  0.31066263328E-01 -0.11559551301E-01  0.34464401551E-01  0.51100000000E-03 0. -1.
</event>
<event>
 8    1  0.2824193E+004  0.1043930E+01  0.7957747E-01            NaN
         13   -1    0    0    0    0  0.00000000000E+00  0.00000000000E+00  0.74505805969E-08  0.10566000000E+00  0.10566000000E+00 0. -1.
     999900   -1    0    0    0    0 -0.00000000000E+00 -0.00000000000E+00 -0.74505805969E-08  0.93827000000E+00  0.93827000000E+00 0.  1.
     999902    2    1    2    0    0  0.17264768102E-01 -0.13247086125E-01 -0.67794918172E-02  0.10211370402E+01  0.10208826259E+01 0.  0.
     999903    2    3    3    0    0 -0.22527427777E-01  0.10082084802E+00 -0.66516501154E-01  0.13087672839E+00  0.45077097391E-01 0.  0.
         14    1    1    2    0    0 -0.17264768102E-01  0.13247086125E-01  0.67794918172E-02  0.22792959828E-01  0.00000000000E+00 0. -1.
     999901    1    3    3    0    0  0.39792195879E-01 -0.11406793415E+00  0.59737009337E-01  0.89026031178E+00  0.88000000000E+00 0. -1.
        -11    1    4    4    0    0 -0.35660273343E-01  0.69617085258E-01 -0.39902710660E-01  0.87810483962E-01  0.51100000000E-03 0. -1.
         11    1    4    4    0    0  0.13132845566E-01  0.31203762766E-01 -0.26613790494E-01  0.43066244426E-01  0.51100000000E-03 0.  1.
</event>
<event>
 8    1  0.2824193E+004  0.1043930E+01  0.7957747E-01            NaN
         13   -1    0    0    0    0  0.00000000000E+00  0.00000000000E+00  0.74505805969E-08  0.10566000000E+00  0.10566000000E+00 0.  1.
     999900   -1    0    0    0    0 -0.00000000000E+00 -0.00000000000E+00 -0.74505805969E-08  0.93827000000E+00  0.93827000000E+00 0.  1.
     999902    2    1    2    0    0 -0.43805899779E-02 -0.19117180513E-01  0.17963630905E-01  0.10173339816E+01  0.10169862742E+01 0.  0.
     999903    2    3    3    0    0  0.23595177139E-01 -0.63051426966E-01 -0.99254935008E-01  0.12803478912E+00  0.44823545981E-01 0.  0.
         14    1    1    2    0    0  0.43805899779E-02  0.19117180513E-01 -0.17963630905E-01  0.26596018398E-01  0.00000000000E+00 0. -1.
     999901    1    3    3    0    0 -0.27975767117E-01  0.43934246452E-01  0.11721856591E+00  0.88929919248E+00  0.88000000000E+00 0. -1.
        -11    1    4    4    0    0  0.21954366617E-01 -0.60980113912E-01 -0.58864835079E-01  0.87555116562E-01  0.51100000000E-03 0.  1.
         11    1    4    4    0    0  0.16408105223E-02 -0.20713130534E-02 -0.40390099929E-01  0.40479672556E-01  0.51100000000E-03 0. -1.
</event>
<event>
 8    1  0.2824193E+004  0.1043930E+01  0.7957747E-01            NaN
         13   -1    0    0    0    0  0.00000000000E+00  0.00000000000E+00  0.74505805969E-08  0.10566000000E+00  0.10566000000E+00 0.  1.
     999900   -1    0    0    0    0 -0.00000000000E+00 -0.00000000000E+00 -0.74505805969E-08  0.93827000000E+00  0.93827000000E+00 0. -1.
     999902    2    1    2    0    0 -0.14659876382E-01 -0.67160405931E-03 -0.29117015001E-02  0.10289686821E+01  0.10288599068E+01 0.  0.
     999903    2    3    3    0    0 -0.91507748203E-01 -0.39960188649E-01  0.91728845625E-01  0.13969593348E+00  0.33619756894E-01 0.  0.
         14    1    1    2    0    0  0.14659876382E-01  0.67160405931E-03  0.29117015001E-02  0.14961317896E-01  0.00000000000E+00 0.  1.
     999901    1    3    3    0    0  0.76847871821E-01  0.39288584590E-01 -0.94640547125E-01  0.88927274862E+00  0.88000000000E+00 0. -1.
        -11    1    4    4    0    0 -0.22394637086E-01 -0.15827570057E-01  0.82012976494E-02  0.28627856159E-01  0.51100000000E-03 0. -1.
         11    1    4    4    0    0 -0.69113111118E-01 -0.24132618592E-01  0.83527547975E-01  0.11106807732E+00  0.51100000000E-03 0.  1.
</event>
<event>
 8    1  0.2824193E+004  0.1043930E+01  0.7957747E-01            NaN
         13   -1    0    0    0    0  0.00000000000E+00  0.00000000000E+00  0.74505805969E-08  0.10566000000E+00  0.10566000000E+00 0.  1.
     999900   -1    0    0    0    0 -0.00000000000E+00 -0.00000000000E+00 -0.74505805969E-08  0.93827000000E+00  0.93827000000E+00 0. -1.
     999902    2    1    2    0    0  0.83639219847E-02  0.94990361770E-02  0.25775648336E-03  0.10312708801E+01  0.10311931801E+01 0.  0.
     999903    2    3    3    0    0  0.10161468223E+00 -0.74966039275E-01 -0.30333937780E-01  0.14179580733E+00  0.56924972588E-01 0.  0.
         14    1    1    2    0    0 -0.83639219847E-02 -0.94990361770E-02 -0.25775648336E-03  0.12659119940E-01  0.00000000000E+00 0. -1.
     999901    1    3    3    0    0 -0.93250760247E-01  0.84465075452E-01  0.30591694263E-01  0.88947507273E+00  0.88000000000E+00 0.  1.
        -11    1    4    4    0    0  0.27402353436E-01 -0.55327431613E-01 -0.13795637301E-01  0.63266060350E-01  0.51100000000E-03 0.  1.
         11    1    4    4    0    0  0.74212328796E-01 -0.19638607662E-01 -0.16538300479E-01  0.78529746975E-01  0.51100000000E-03 0. -1.
</event>
<event>
 8    1  0.2824193E+004  0.1043930E+01  0.7957747E-01            NaN
         13   -1    0    0    0    0  0.00000000000E+00  0.00000000000E+00  0.74505805969E-08  0.10566000000E+00  0.10566000000E+00 0.  1.
     999900   -1    0    0    0    0 -0.00000000000E+00 -0.00000000000E+00 -0.74505805969E-08  0.93827000000E+00  0.93827000000E+00 0.  1.
     999902    2    1    2    0    0  0.36633610310E-02  0.34063061588E-02  0.12569960837E-01  0.10304012509E+01  0.10303124336E+01 0.  0.
     999903    2    3    3    0    0  0.11988741090E+00  0.54012729756E-01  0.25342599257E-01  0.14122625120E+00  0.44858002884E-01 0.  0.
         14    1    1    2    0    0 -0.36633610310E-02 -0.34063061588E-02 -0.12569960837E-01  0.13528749060E-01  0.00000000000E+00 0. -1.
     999901    1    3    3    0    0 -0.11622404987E+00 -0.50606423597E-01 -0.12772638421E-01  0.88917499974E+00  0.88000000000E+00 0. -1.
        -11    1    4    4    0    0  0.76820149580E-01  0.18665920211E-01  0.31641097668E-01  0.85153814602E-01  0.51100000000E-03 0.  1.
         11    1    4    4    0    0  0.43067261317E-01  0.35346809545E-01 -0.62984984103E-02  0.56072436594E-01  0.51100000000E-03 0. -1.
</event>
<event>
 7    1  0.2824193E+004  0.1043930E+01  0.7957747E-01            NaN
         13   -1    0    0    0    0  0.00000000000E+00  0.00000000000E+00  0.74505805969E-08  0.10566000000E+00  0.10566000000E+00 0.  1.
     999900   -1    0    0    0    0 -0.00000000000E+00 -0.00000000000E+00 -0.74505805969E-08  0.93827000000E+00  0.93827000000E+00 0.  1.
     999903    2    1    2    0    0  0.59542285290E-01  0.68637442318E-01  0.36763318074E-01  0.10776066122E+00  0.44770931690E-01 0.  0.
         14    1    1    2    0    0 -0.38868933166E-02  0.34052501932E-01  0.30537046223E-01  0.45904161244E-01  0.00000000000E+00 0.  1.
     999901    1    1    2    0    0 -0.55655391974E-01 -0.10268994425E+00 -0.67300364297E-01  0.89026517754E+00  0.88000000000E+00 0.  1.
        -11    1    3    3    0    0  0.14065791411E-01  0.49014303473E-01  0.12022305448E-01  0.52393180685E-01  0.51100000000E-03 0.  1.
         11    1    3    3    0    0  0.45476493879E-01  0.19623138845E-01  0.24741012626E-01  0.55367480531E-01  0.51100000000E-03 0. -1.
</event>
<event>
 8    1  0.2824193E+004  0.1043930E+01  0.7957747E-01            NaN
         13   -1    0    0    0    0  0.00000000000E+00  0.00000000000E+00  0.74505805969E-08  0.10566000000E+00  0.10566000000E+00 0. -1.
     999900   -1    0    0    0    0 -0.00000000000E+00 -0.00000000000E+00 -0.74505805969E-08  0.93827000000E+00  0.93827000000E+00 0. -1.
     999902    2    1    2    0    0  0.31267787213E-02 -0.29313934516E-02 -0.13825685502E-01  0.10294552153E+01  0.10293534480E+01 0.  0.
     999903    2    3    3    0    0  0.28487162486E-01 -0.48876117013E-01 -0.12158198239E+00  0.14133051335E+00  0.44628940384E-01 0.  0.
         14    1    1    2    0    0 -0.31267787213E-02  0.29313934516E-02  0.13825685502E-01  0.14474784708E-01  0.00000000000E+00 0. -1.
     999901    1    3    3    0    0 -0.25360383764E-01  0.45944723561E-01  0.10775629689E+00  0.88812470195E+00  0.88000000000E+00 0.  1.
        -11    1    4    4    0    0  0.15529008319E-01 -0.34526509879E-03 -0.59365666519E-01  0.61366218635E-01  0.51100000000E-03 0.  1.
         11    1    4    4    0    0  0.12958154166E-01 -0.48530851914E-01 -0.62216315872E-01  0.79964294711E-01  0.51100000000E-03 0. -1.
</event>
<event>
 8    1  0.2824193E+004  0.1043930E+01  0.7957747E-01            NaN
         13   -1    0    0    0    0  0.00000000000E+00  0.00000000000E+00  0.74505805969E-08  0.10566000000E+00  0.10566000000E+00 0. -1.
     999900   -1    0    0    0    0 -0.00000000000E+00 -0.00000000000E+00 -0.74505805969E-08  0.93827000000E+00  0.93827000000E+00 0.  1.
     999902    2    1    2    0    0  0.56742336606E-02  0.12204821885E-02 -0.14839856542E-01  0.10279955139E+01  0.10278720099E+01 0.  0.
     999903    2    3    3    0    0  0.11595988874E+00  0.42688384392E-01  0.42650506629E-01  0.13828339504E+00  0.45102523983E-01 0.  0.
         14    1    1    2    0    0 -0.56742336606E-02 -0.12204821885E-02  0.14839856542E-01  0.15934486079E-01  0.00000000000E+00 0. -1.
     999901    1    3    3    0    0 -0.11028565508E+00 -0.41467902203E-01 -0.57490363172E-01  0.88971211888E+00  0.88000000000E+00 0. -1.
        -11    1    4    4    0    0  0.32872152585E-01  0.28055775960E-01  0.30835222362E-01  0.53092156101E-01  0.51100000000E-03 0.  1.
         11    1    4    4    0    0  0.83087736152E-01  0.14632608432E-01  0.11815284267E-01  0.85191238938E-01  0.51100000000E-03 0. -1.
</event>
<event>
 8    1  0.2824193E+004  0.1043930E+01  0.7957747E-01            NaN
         13   -1    0    0    0    0  0.00000000000E+00  0.00000000000E+00  0.74505805969E-08  0.10566000000E+00  0.10566000000E+00 0. -1.
     999900   -1    0    0    0    0 -0.00000000000E+00 -0.00000000000E+00 -0.74505805969E-08  0.93827000000E+00  0.93827000000E+00 0.  1.
     999902    2    1    2    0    0  0.10504037122E-01 -0.62825633026E-02 -0.69037954302E-02  0.10298776767E+01  0.10297818027E+01 0.  0.
     999903    2    3    3    0    0  0.19451749196E-01  0.11795648754E+00  0.53935264894E-01  0.13902595251E+00  0.46120485386E-01 0.  0.
         14    1    1    2    0    0 -0.10504037122E-01  0.62825633026E-02  0.69037954302E-02  0.14052323254E-01  0.00000000000E+00 0.  1.
     999901    1    3    3    0    0 -0.89477120744E-02 -0.12423905085E+00 -0.60839060325E-01  0.89085172423E+00  0.88000000000E+00 0. -1.
        -11    1    4    4    0    0  0.57010070989E-02  0.10661730752E+00  0.33494400246E-01  0.11190124089E+00  0.51100000000E-03 0. -1.
         11    1    4    4    0    0  0.13750742097E-01  0.11339180024E-01  0.20440864648E-01  0.27124711619E-01  0.51100000000E-03 0.  1.
</event>
<event>
 8    1  0.2824193E+004  0.1043930E+01  0.7957747E-01            NaN
         13   -1    0    0    0    0  0.00000000000E+00  0.00000000000E+00  0.74505805969E-08  0.10566000000E+00  0.10566000000E+00 0. -1.
     999900   -1    0    0    0    0 -0.00000000000E+00 -0.00000000000E+00 -0.74505805969E-08  0.93827000000E+00  0.93827000000E+00 0.  1.
     999902    2    1    2    0    0 -0.12632535347E-01 -0.46311148565E-02  0.49320348567E-02  0.10295998520E+01  0.10295001224E+01 0.  0.
     999903    2    3    3    0    0  0.42385448311E-01 -0.10374484209E+00 -0.69183178908E-01  0.13923836677E+00  0.45182873387E-01 0.  0.
         14    1    1    2    0    0  0.12632535347E-01  0.46311148565E-02 -0.49320348567E-02  0.14330148008E-01  0.00000000000E+00 0.  1.
     999901    1    3    3    0    0 -0.55017983658E-01  0.99113727238E-01  0.74115213765E-01  0.89036148522E+00  0.88000000000E+00 0.  1.
        -11    1    4    4    0    0  0.84330583415E-02 -0.75353723384E-01 -0.51033899421E-01  0.91400328839E-01  0.51100000000E-03 0. -1.
         11    1    4    4    0    0  0.33952389970E-01 -0.28391118711E-01 -0.18149279488E-01  0.47838037932E-01  0.51100000000E-03 0.  1.
</event>
<event>
 8    1  0.2824193E+004  0.1043930E+01  0.7957747E-01            NaN
         13   -1    0    0    0    0  0.00000000000E+00  0.00000000000E+00  0.74505805969E-08  0.10566000000E+00  0.10566000000E+00 0. -1.
     999900   -1    0    0    0    0 -0.00000000000E+00 -0.00000000000E+00 -0.74505805969E-08  0.93827000000E+00  0.93827000000E+00 0. -1.
     999902    2    1    2    0    0  0.85037508129E-02  0.11474094071E-01  0.11563547545E-02  0.10296015050E+01  0.10295017986E+01 0.  0.
     999903    2    3    3    0    0  0.11909056015E+00 -0.31558260547E-01  0.49963582489E-01  0.14029651152E+00  0.44813683695E-01 0.  0.
         14    1    1    2    0    0 -0.85037508129E-02 -0.11474094071E-01 -0.11563547545E-02  0.14328495000E-01  0.00000000000E+00 0. -1.
     999901    1    3    3    0    0 -0.11058680933E+00  0.43032354618E-01 -0.48807227734E-01  0.88930499348E+00  0.88000000000E+00 0. -1.
        -11    1    4    4    0    0  0.19408092305E-01 -0.52438736633E-02 -0.84343498143E-02  0.21807604997E-01  0.51100000000E-03 0. -1.
         11    1    4    4    0    0  0.99682467841E-01 -0.26314386884E-01  0.58397932303E-01  0.11848890653E+00  0.51100000000E-03 0.  1.
</event>
<event>
 8    1  0.2824193E+004  0.1043930E+01  0.7957747E-01            NaN
         13   -1    0    0    0    0  0.00000000000E+00  0.00000000000E+00  0.74505805969E-08  0.10566000000E+00  0.10566000000E+00 0.  1.
     999900   -1    0    0    0    0 -0.00000000000E+00 -0.00000000000E+00 -0.74505805969E-08  0.93827000000E+00  0.93827000000E+00 0. -1.
     999902    2    1    2    0    0  0.11661863784E-01 -0.52489170531E-02 -0.58192137157E-02  0.10298796105E+01  0.10297837631E+01 0.  0.
     999903    2    3    3    0    0 -0.15526283778E-01 -0.11758177179E+00 -0.60752225338E-01  0.14062402215E+00  0.44919307412E-01 0.  0.
         14    1    1    2    0    0 -0.11661863784E-01  0.52489170531E-02  0.58192137157E-02  0.14050389511E-01  0.00000000000E+00 0.  1.
     999901    1    3    3    0    0  0.27188147562E-01  0.11233285473E+00  0.54933011623E-01  0.88925558834E+00  0.88000000000E+00 0.  1.
        -11    1    4    4    0    0 -0.58172416378E-02 -0.48501573081E-01 -0.50240010053E-01  0.70075406690E-01  0.51100000000E-03 0. -1.
         11    1    4    4    0    0 -0.97090421400E-02 -0.69080198706E-01 -0.10512215285E-01  0.70548615463E-01  0.51100000000E-03 0.  1.
</event>
<event>
 8    1  0.2824193E+004  0.1043930E+01  0.7957747E-01            NaN
         13   -1    0    0    0    0  0.00000000000E+00  0.00000000000E+00  0.74505805969E-08  0.10566000000E+00  0.10566000000E+00 0.  1.
     999900   -1    0    0    0    0 -0.00000000000E+00 -0.00000000000E+00 -0.74505805969E-08  0.93827000000E+00  0.93827000000E+00 0.  1.
     999902    2    1    2    0    0  0.90423740564E-02 -0.87500496430E-02 -0.61895751798E-02  0.10299072065E+01  0.10298117378E+01 0.  0.
     999903    2    3    3    0    0 -0.51242274030E-01  0.11207494862E+00  0.47402132505E-01  0.13799634202E+00  0.40118119215E-01 0.  0.
         14    1    1    2    0    0 -0.90423740564E-02  0.87500496430E-02  0.61895751798E-02  0.14022793525E-01  0.00000000000E+00 0.  1.
     999901    1    3    3    0    0  0.60284648086E-01 -0.12082499826E+00 -0.53591707684E-01  0.89191086445E+00  0.88000000000E+00 0. -1.
        -11    1    4    4    0    0 -0.14283603338E-02  0.27064697079E-01 -0.30869760468E-02  0.27282385953E-01  0.51100000000E-03 0. -1.
         11    1    4    4    0    0 -0.49813913696E-01  0.85010251540E-01  0.50489108551E-01  0.11071395607E+00  0.51100000000E-03 0.  1.
</event>
<event>
 8    1  0.2824193E+004  0.1043930E+01  0.7957747E-01            NaN
         13   -1    0    0    0    0  0.00000000000E+00  0.00000000000E+00  0.74505805969E-08  0.10566000000E+00  0.10566000000E+00 0.  1.
     999900   -1    0    0    0    0 -0.00000000000E+00 -0.00000000000E+00 -0.74505805969E-08  0.93827000000E+00  0.93827000000E+00 0. -1.
     999902    2    1    2    0    0  0.27191524309E-02 -0.90489996695E-02 -0.21253078824E-02  0.10342452120E+01  0.10341998663E+01 0.  0.
     999903    2    3    3    0    0  0.17031929537E-01 -0.11388692900E+00 -0.75983623951E-01  0.14483479051E+00  0.44082720101E-01 0.  0.
         14    1    1    2    0    0 -0.27191524309E-02  0.90489996695E-02  0.21253078824E-02  0.96847879975E-02  0.00000000000E+00 0. -1.
     999901    1    3    3    0    0 -0.14312777106E-01  0.10483792933E+00  0.73858316068E-01  0.88941042150E+00  0.88000000000E+00 0. -1.
        -11    1    4    4    0    0  0.78189298410E-02 -0.57408718413E-01 -0.12329656475E-01  0.59238316683E-01  0.51100000000E-03 0.  1.
         11    1    4    4    0    0  0.92129996963E-02 -0.56478210586E-01 -0.63653967476E-01  0.85596473822E-01  0.51100000000E-03 0. -1.
</event>
<event>
 7    1  0.2824193E+004  0.1043930E+01  0.7957747E-01            NaN
         13   -1    0    0    0    0  0.00000000000E+00  0.00000000000E+00  0.74505805969E-08  0.10566000000E+00  0.10566000000E+00 0.  1.
     999900   -1    0    0    0    0 -0.00000000000E+00 -0.00000000000E+00 -0.74505805969E-08  0.93827000000E+00  0.93827000000E+00 0. -1.
     999903    2    1    2    0    0 -0.10485485315E+00  0.36424190997E-01  0.13657934817E-01  0.12066877457E+00  0.45311720947E-01 0.  0.
         14    1    1    2    0    0  0.33448239507E-02  0.87786488542E-02  0.33724634438E-01  0.35008620238E-01  0.00000000000E+00 0.  1.
     999901    1    1    2    0    0  0.10151002920E+00 -0.45202839851E-01 -0.47382569255E-01  0.88825260519E+00  0.88000000000E+00 0. -1.
        -11    1    3    3    0    0 -0.59943532984E-01  0.34893055698E-01 -0.96737633119E-02  0.70032815881E-01  0.51100000000E-03 0.  1.
         11    1    3    3    0    0 -0.44911320162E-01  0.15311352986E-02  0.23331698129E-01  0.50635958691E-01  0.51100000000E-03 0. -1.
</event>
<event>
 8    1  0.2824193E+004  0.1043930E+01  0.7957747E-01            NaN
         13   -1    0    0    0    0  0.00000000000E+00  0.00000000000E+00  0.74505805969E-08  0.10566000000E+00  0.10566000000E+00 0. -1.
     999900   -1    0    0    0    0 -0.00000000000E+00 -0.00000000000E+00 -0.74505805969E-08  0.93827000000E+00  0.93827000000E+00 0.  1.
     999902    2    1    2    0    0 -0.12363488295E-01 -0.76751418961E-03  0.39222503535E-02  0.10309365798E+01  0.10308546952E+01 0.  0.
     999903    2    3    3    0    0 -0.64720279463E-01  0.80827174211E-01  0.86437715438E-01  0.14177532966E+00  0.43669426211E-01 0.  0.
         14    1    1    2    0    0  0.12363488295E-01  0.76751418961E-03 -0.39222503535E-02  0.12993420208E-01  0.00000000000E+00 0. -1.
     999901    1    3    3    0    0  0.52356791168E-01 -0.81594688401E-01 -0.82515465084E-01  0.88916125013E+00  0.88000000000E+00 0.  1.
        -11    1    4    4    0    0 -0.49553115832E-01  0.63649658836E-01  0.40111228091E-01  0.90088634680E-01  0.51100000000E-03 0.  1.
         11    1    4    4    0    0 -0.15167163631E-01  0.17177515375E-01  0.46326487347E-01  0.51686694981E-01  0.51100000000E-03 0. -1.
</event>
<event>
 8    1  0.2824193E+004  0.1043930E+01  0.7957747E-01            NaN
         13   -1    0    0    0    0  0.00000000000E+00  0.00000000000E+00  0.74505805969E-08  0.10566000000E+00  0.10566000000E+00 0.  1.
     999900   -1    0    0    0    0 -0.00000000000E+00 -0.00000000000E+00 -0.74505805969E-08  0.93827000000E+00  0.93827000000E+00 0.  1.
     999902    2    1    2    0    0  0.99204880153E-02 -0.94158089199E-02  0.23534951022E-02  0.10300515102E+01  0.10299580094E+01 0.  0.
     999903    2    3    3    0    0 -0.10358094702E+00  0.40642977114E-02 -0.80638934055E-01  0.13878722149E+00  0.44874536886E-01 0.  0.
         14    1    1    2    0    0 -0.99204880153E-02  0.94158089199E-02 -0.23534951022E-02  0.13878489805E-01  0.00000000000E+00 0. -1.
     999901    1    3    3    0    0  0.11350143504E+00 -0.13480106631E-01  0.82992429157E-01  0.89126428871E+00  0.88000000000E+00 0. -1.
        -11    1    4    4    0    0 -0.21643344350E-01 -0.58847957524E-02 -0.42073275190E-01  0.47681094596E-01  0.51100000000E-03 0.  1.
         11    1    4    4    0    0 -0.81937602671E-01  0.99490934637E-02 -0.38565658865E-01  0.91106126890E-01  0.51100000000E-03 0. -1.
</event>
<event>
 8    1  0.2824193E+004  0.1043930E+01  0.7957747E-01            NaN
         13   -1    0    0    0    0  0.00000000000E+00  0.00000000000E+00  0.74505805969E-08  0.10566000000E+00  0.10566000000E+00 0.  1.
     999900   -1    0    0    0    0 -0.00000000000E+00 -0.00000000000E+00 -0.74505805969E-08  0.93827000000E+00  0.93827000000E+00 0.  1.
     999902    2    1    2    0    0  0.69506872587E-02 -0.32407685563E-02  0.12402200099E-01  0.10293481894E+01  0.10292449008E+01 0.  0.
     999903    2    3    3    0    0  0.27821669438E-01 -0.12860324370E+00  0.22975459455E-01  0.14015577943E+00  0.42460937206E-01 0.  0.
         14    1    1    2    0    0 -0.69506872587E-02  0.32407685563E-02 -0.12402200099E-01  0.14581810638E-01  0.00000000000E+00 0. -1.
     999901    1    3    3    0    0 -0.20870982179E-01  0.12536247515E+00 -0.10573259356E-01  0.88919240993E+00  0.88000000000E+00 0. -1.
        -11    1    4    4    0    0 -0.75525653740E-02 -0.14720956596E-01  0.11910070720E-01  0.20392614163E-01  0.51100000000E-03 0. -1.
         11    1    4    4    0    0  0.35374234812E-01 -0.11388228711E+00  0.11065388734E-01  0.11976316526E+00  0.51100000000E-03 0.  1.
</event>
<event>
 8    1  0.2824193E+004  0.1043930E+01  0.7957747E-01            NaN
         13   -1    0    0    0    0  0.00000000000E+00  0.00000000000E+00  0.74505805969E-08  0.10566000000E+00  0.10566000000E+00 0. -1.
     999900   -1    0    0    0    0 -0.00000000000E+00 -0.00000000000E+00 -0.74505805969E-08  0.93827000000E+00  0.93827000000E+00 0.  1.
     999902    2    1    2    0    0 -0.12508392399E-01 -0.42345649591E-02  0.53958205666E-02  0.10296644366E+01  0.10295656102E+01 0.  0.
     999903    2    3    3    0    0  0.20177403576E-01  0.56680374853E-01 -0.11639434454E+00  0.13859101900E+00  0.45166742192E-01 0.  0.
         14    1    1    2    0    0  0.12508392399E-01  0.42345649591E-02 -0.53958205666E-02  0.14265563444E-01  0.00000000000E+00 0.  1.
     999901    1    3    3    0    0 -0.32685795975E-01 -0.60914939812E-01  0.12179016510E+00  0.89107341755E+00  0.88000000000E+00 0. -1.
        -11    1    4    4    0    0 -0.11846049994E-01  0.29682522503E-01 -0.37563003821E-01  0.49321612095E-01  0.51100000000E-03 0.  1.
         11    1    4    4    0    0  0.32023453570E-01  0.26997852350E-01 -0.78831340715E-01  0.89269406909E-01  0.51100000000E-03 0. -1.
</event>
<event>
 8    1  0.2824193E+004  0.1043930E+01  0.7957747E-01            NaN
         13   -1    0    0    0    0  0.00000000000E+00  0.00000000000E+00  0.74505805969E-08  0.10566000000E+00  0.10566000000E+00 0.  1.
     999900   -1    0    0    0    0 -0.00000000000E+00 -0.00000000000E+00 -0.74505805969E-08  0.93827000000E+00  0.93827000000E+00 0.  1.
     999902    2    1    2    0    0  0.59472235047E-02  0.10426503632E-01 -0.63160921205E-02  0.10303662813E+01  0.10302770012E+01 0.  0.
     999903    2    3    3    0    0 -0.12184433157E+00 -0.46859967533E-01  0.12214412852E-01  0.13909987839E+00  0.46450905201E-01 0.  0.
         14    1    1    2    0    0 -0.59472235047E-02 -0.10426503632E-01  0.63160921205E-02  0.13563718704E-01  0.00000000000E+00 0.  1.
     999901    1    3    3    0    0  0.12779155508E+00  0.57286471165E-01 -0.18530504972E-01  0.89126640290E+00  0.88000000000E+00 0. -1.
        -11    1    4    4    0    0 -0.24310386368E-01  0.89207017491E-02 -0.12861358097E-02  0.25932394247E-01  0.51100000000E-03 0. -1.
         11    1    4    4    0    0 -0.97533945205E-01 -0.55780669282E-01  0.13500548662E-01  0.11316748415E+00  0.51100000000E-03 0.  1.
</event>
<event>
 8    1  0.2824193E+004  0.1043930E+01  0.7957747E-01            NaN
         13   -1    0    0    0    0  0.00000000000E+00  0.00000000000E+00  0.74505805969E-08  0.10566000000E+00  0.10566000000E+00 0. -1.
     999900   -1    0    0    0    0 -0.00000000000E+00 -0.00000000000E+00 -0.74505805969E-08  0.93827000000E+00  0.93827000000E+00 0. -1.
     999902    2    1    2    0    0 -0.55623122046E-02 -0.76460540990E-02 -0.94895619405E-02  0.10305339839E+01  0.10304469122E+01 0.  0.
     999903    2    3    3    0    0 -0.11599057990E+00  0.65173165065E-01  0.28229743844E-02  0.14056283861E+00  0.45261311772E-01 0.  0.
         14    1    1    2    0    0  0.55623122046E-02  0.76460540990E-02  0.94895619405E-02  0.13396016056E-01  0.00000000000E+00 0. -1.
     999901    1    3    3    0    0  0.11042826769E+00 -0.72819219164E-01 -0.12312536325E-01  0.88997114534E+00  0.88000000000E+00 0.  1.
        -11    1    4    4    0    0 -0.30031079555E-01  0.41757215009E-01  0.52258458658E-03  0.51439916020E-01  0.51100000000E-03 0.  1.
         11    1    4    4    0    0 -0.85959500341E-01  0.23415950056E-01  0.23003897978E-02  0.89122922585E-01  0.51100000000E-03 0. -1.
</event>
<event>
 7    1  0.2824193E+004  0.1043930E+01  0.7957747E-01            NaN
         13   -1    0    0    0    0  0.00000000000E+00  0.00000000000E+00  0.74505805969E-08  0.10566000000E+00  0.10566000000E+00 0.  1.
     999900   -1    0    0    0    0 -0.00000000000E+00 -0.00000000000E+00 -0.74505805969E-08  0.93827000000E+00  0.93827000000E+00 0. -1.
     999903    2    1    2    0    0 -0.30311916776E-01  0.14903902895E-01  0.10709827221E+00  0.12104892644E+00  0.45186989952E-01 0.  0.
         14    1    1    2    0    0 -0.15950759016E-02  0.76327748607E-02 -0.38572817532E-01  0.39353091004E-01  0.00000000000E+00 0. -1.
     999901    1    1    2    0    0  0.31906992677E-01 -0.22536677756E-01 -0.68525454679E-01  0.88352798256E+00  0.88000000000E+00 0. -1.
        -11    1    3    3    0    0  0.11820421490E-01  0.11593459845E-02  0.18632797518E-01  0.22102233183E-01  0.51100000000E-03 0. -1.
         11    1    3    3    0    0 -0.42132338266E-01  0.13744556910E-01  0.88465474693E-01  0.98946693255E-01  0.51100000000E-03 0.  1.
</event>
<event>
 8    1  0.2824193E+004  0.1043930E+01  0.7957747E-01            NaN
         13   -1    0    0    0    0  0.00000000000E+00  0.00000000000E+00  0.74505805969E-08  0.10566000000E+00  0.10566000000E+00 0.  1.
     999900   -1    0    0    0    0 -0.00000000000E+00 -0.00000000000E+00 -0.74505805969E-08  0.93827000000E+00  0.93827000000E+00 0. -1.
     999902    2    1    2    0    0  0.55057317650E-02  0.18695864309E-03  0.11934666380E-01  0.10307852559E+01  0.10307014405E+01 0.  0.
     999903    2    3    3    0    0  0.12610993846E-01  0.13176002274E+00 -0.16157606320E-01  0.14053184719E+00  0.44366553554E-01 0.  0.
         14    1    1    2    0    0 -0.55057317650E-02 -0.18695864309E-03 -0.11934666380E-01  0.13144744098E-01  0.00000000000E+00 0. -1.
     999901    1    3    3    0    0 -0.71052620815E-02 -0.13157306409E+00  0.28092272700E-01  0.89025340872E+00  0.88000000000E+00 0.  1.
        -11    1    4    4    0    0  0.15462882416E-01  0.17789508975E-01 -0.11986703256E-01  0.26448242629E-01  0.51100000000E-03 0.  1.
         11    1    4    4    0    0 -0.28518885700E-02  0.11397051376E+00 -0.41709030635E-02  0.11408360456E+00  0.51100000000E-03 0. -1.
</event>
<event>
 8    1  0.2824193E+004  0.1043930E+01  0.7957747E-01            NaN
         13   -1    0    0    0    0  0.00000000000E+00  0.00000000000E+00  0.74505805969E-08  0.10566000000E+00  0.10566000000E+00 0.  1.
     999900   -1    0    0    0    0 -0.00000000000E+00 -0.00000000000E+00 -0.74505805969E-08  0.93827000000E+00  0.93827000000E+00 0.  1.
     999902    2    1    2    0    0  0.31744647987E-02  0.71587494394E-02 -0.11445642864E-01  0.10300617751E+01  0.10299684136E+01 0.  0.
     999903    2    3    3    0    0  0.95457089098E-01 -0.64009688626E-01 -0.66808071429E-01  0.14065409144E+00  0.45945173122E-01 0.  0.
         14    1    1    2    0    0 -0.31744647987E-02 -0.71587494394E-02  0.11445642864E-01  0.13868224863E-01  0.00000000000E+00 0.  1.
     999901    1    3    3    0    0 -0.92282624300E-01  0.71168438066E-01  0.55362428565E-01  0.88940768370E+00  0.88000000000E+00 0.  1.
        -11    1    4    4    0    0  0.81292912997E-02  0.38979348982E-02  0.33799905010E-02  0.96418219384E-02  0.51100000000E-03 0.  1.
         11    1    4    4    0    0  0.87327797798E-01 -0.67907623525E-01 -0.70188061930E-01  0.13101226950E+00  0.51100000000E-03 0. -1.
</event>
<event>
 8    1  0.2824193E+004  0.1043930E+01  0.7957747E-01            NaN
         13   -1    0    0    0    0  0.00000000000E+00  0.00000000000E+00  0.74505805969E-08  0.10566000000E+00  0.10566000000E+00 0.  1.
     999900   -1    0    0    0    0 -0.00000000000E+00 -0.00000000000E+00 -0.74505805969E-08  0.93827000000E+00  0.93827000000E+00 0.  1.
     999902    2    1    2    0    0  0.48414592717E-02  0.95526021778E-02 -0.85299542889E-02  0.10302386868E+01  0.10301477077E+01 0.  0.
     999903    2    3    3    0    0 -0.12551468899E+00 -0.47508236650E-02  0.40544466233E-01  0.13916876133E+00  0.44131427689E-01 0.  0.
         14    1    1    2    0    0 -0.48414592717E-02 -0.95526021778E-02  0.85299542889E-02  0.13691313174E-01  0.00000000000E+00 0.  1.
     999901    1    3    3    0    0  0.13035614826E+00  0.14303425843E-01 -0.49074420522E-01  0.89106992550E+00  0.88000000000E+00 0. -1.
        -11    1    4    4    0    0 -0.15096702192E-01 -0.12319272561E-01 -0.39384978264E-02  0.19885868843E-01  0.51100000000E-03 0.  1.
         11    1    4    4    0    0 -0.11041798680E+00  0.75684488964E-02  0.44482964059E-01  0.11928289248E+00  0.51100000000E-03 0. -1.
</event>
<event>
 8    1  0.2824193E+004  0.1043930E+01  0.7957747E-01            NaN
         13   -1    0    0    0    0  0.00000000000E+00  0.00000000000E+00  0.74505805969E-08  0.10566000000E+00  0.10566000000E+00 0.  1.
     999900   -1    0    0    0    0 -0.00000000000E+00 -0.00000000000E+00 -0.74505805969E-08  0.93827000000E+00  0.93827000000E+00 0. -1.
     999902    2    1    2    0    0 -0.80246993424E-02 -0.91495061615E-02 -0.13536928902E-03  0.10317592323E+01  0.10316874458E+01 0.  0.
     999903    2    3    3    0    0 -0.11126759979E+00 -0.51125372309E-01  0.58692908333E-01  0.14278125948E+00  0.44128767418E-01 0.  0.
         14    1    1    2    0    0  0.80246993424E-02  0.91495061615E-02  0.13536928902E-03  0.12170767740E-01  0.00000000000E+00 0.  1.
     999901    1    3    3    0    0  0.10324290045E+00  0.41975866148E-01 -0.58828277622E-01  0.88897797278E+00  0.88000000000E+00 0.  1.
        -11    1    4    4    0    0 -0.11702746517E-01 -0.98230643249E-02  0.25962032680E-01  0.30128643027E-01  0.51100000000E-03 0.  1.
         11    1    4    4    0    0 -0.99564853276E-01 -0.41302307984E-01  0.32730875653E-01  0.11265261646E+00  0.51100000000E-03 0. -1.
</event>
<event>
 8    1  0.2824193E+004  0.1043930E+01  0.7957747E-01            NaN
         13   -1    0    0    0    0  0.00000000000E+00  0.00000000000E+00  0.74505805969E-08  0.10566000000E+00  0.10566000000E+00 0.  1.
     999900   -1    0    0    0    0 -0.00000000000E+00 -0.00000000000E+00 -0.74505805969E-08  0.93827000000E+00  0.93827000000E+00 0. -1.
     999902    2    1    2    0    0 -0.16124858086E-01 -0.27774489767E-02  0.10920680403E-01  0.10242580267E+01  0.10240690987E+01 0.  0.
     999903    2    3    3    0    0  0.72291093610E-01  0.82871082452E-01 -0.58897274049E-01  0.13295134652E+00  0.45973395895E-01 0.  0.
         14    1    1    2    0    0  0.16124858086E-01  0.27774489767E-02 -0.10920680403E-01  0.19671973250E-01  0.00000000000E+00 0.  1.
     999901    1    3    3    0    0 -0.88415951695E-01 -0.85648531429E-01  0.69817954452E-01  0.89130668023E+00  0.88000000000E+00 0. -1.
        -11    1    4    4    0    0  0.84377627342E-02 -0.46042853639E-02  0.91116710542E-04  0.96262509279E-02  0.51100000000E-03 0. -1.
         11    1    4    4    0    0  0.63853330876E-01  0.87475367816E-01 -0.58988390760E-01  0.12332509560E+00  0.51100000000E-03 0.  1.
</event>
<event>
 8    1  0.2824193E+004  0.1043930E+01  0.7957747E-01            NaN
         13   -1    0    0    0    0  0.00000000000E+00  0.00000000000E+00  0.74505805969E-08  0.10566000000E+00  0.10566000000E+00 0. -1.
     999900   -1    0    0    0    0 -0.00000000000E+00 -0.00000000000E+00 -0.74505805969E-08  0.93827000000E+00  0.93827000000E+00 0. -1.
     999902    2    1    2    0    0  0.59055263859E-02  0.12890263315E-01 -0.20686135040E-02  0.10296012425E+01  0.10295015324E+01 0.  0.
     999903    2    3    3    0    0 -0.88850094449E-02 -0.54879955298E-01 -0.11936060714E+00  0.13911318852E+00  0.44886209410E-01 0.  0.
         14    1    1    2    0    0 -0.59055263859E-02 -0.12890263315E-01  0.20686135040E-02  0.14328757519E-01  0.00000000000E+00 0.  1.
     999901    1    3    3    0    0  0.14790535831E-01  0.67770218613E-01  0.11729199364E+00  0.89048805396E+00  0.88000000000E+00 0.  1.
        -11    1    4    4    0    0  0.95547092678E-02 -0.30255027728E-01 -0.94092899657E-01  0.99299516911E-01  0.51100000000E-03 0.  1.
         11    1    4    4    0    0 -0.18439718713E-01 -0.24624927570E-01 -0.25267707487E-01  0.39813671605E-01  0.51100000000E-03 0. -1.
</event>
<event>
 7    1  0.2824193E+004  0.1043930E+01  0.7957747E-01            NaN
         13   -1    0    0    0    0  0.00000000000E+00  0.00000000000E+00  0.74505805969E-08  0.10566000000E+00  0.10566000000E+00 0. -1.
     999900   -1    0    0    0    0 -0.00000000000E+00 -0.00000000000E+00 -0.74505805969E-08  0.93827000000E+00  0.93827000000E+00 0. -1.
     999902    2    1    2    0    0 -0.87778389781E-02 -0.79209855134E-02  0.56394164362E-02  0.10308305540E+01  0.10307473189E+01 0.  0.
         14    1    1    2    0    0  0.87778389781E-02  0.79209855134E-02 -0.56394164362E-02  0.13099446033E-01  0.00000000000E+00 0. -1.
     999901    1    3    3    0    0 -0.51452173828E-01  0.75019874641E-01  0.73023927854E-01  0.88769803527E+00  0.88000000000E+00 0.  1.
        -11    1    3    3    0    0 -0.25378938222E-01 -0.21031047692E-01 -0.90079291769E-02  0.34173079776E-01  0.51100000000E-03 0. -1.
         11    1    3    3    0    0  0.68053273072E-01 -0.61909812463E-01 -0.58376582241E-01  0.10895943892E+00  0.51100000000E-03 0.  1.
</event>
<event>
 8    1  0.2824193E+004  0.1043930E+01  0.7957747E-01            NaN
         13   -1    0    0    0    0  0.00000000000E+00  0.00000000000E+00  0.74505805969E-08  0.10566000000E+00  0.10566000000E+00 0. -1.
     999900   -1    0    0    0    0 -0.00000000000E+00 -0.00000000000E+00 -0.74505805969E-08  0.93827000000E+00  0.93827000000E+00 0. -1.
     999902    2    1    2    0    0  0.90628137350E-02  0.95107691896E-02  0.45853538188E-02  0.10300154467E+01  0.10299214561E+01 0.  0.
     999903    2    3    3    0    0 -0.14963522239E-01  0.12308031968E+00  0.44862418676E-01  0.14147870039E+00  0.51292435746E-01 0.  0.
         14    1    1    2    0    0 -0.90628137350E-02 -0.95107691896E-02 -0.45853538188E-02  0.13914553281E-01  0.00000000000E+00 0. -1.
     999901    1    3    3    0    0  0.24026335974E-01 -0.11356955049E+00 -0.40277064857E-01  0.88853674633E+00  0.88000000000E+00 0. -1.
        -11    1    4    4    0    0 -0.99587910357E-02  0.11639483180E-01  0.23254116190E-01  0.27850855074E-01  0.51100000000E-03 0. -1.
         11    1    4    4    0    0 -0.50047312028E-02  0.11144083650E+00  0.21608302486E-01  0.11362784532E+00  0.51100000000E-03 0.  1.
</event>
<event>
 8    1  0.2824193E+004  0.1043930E+01  0.7957747E-01            NaN
         13   -1    0    0    0    0  0.00000000000E+00  0.00000000000E+00  0.74505805969E-08  0.10566000000E+00  0.10566000000E+00 0.  1.
     999900   -1    0    0    0    0 -0.00000000000E+00 -0.00000000000E+00 -0.74505805969E-08  0.93827000000E+00  0.93827000000E+00 0. -1.
     999902    2    1    2    0    0  0.95280932221E-02 -0.13128888744E-02 -0.82001026560E-02  0.10312907785E+01  0.10312133241E+01 0.  0.
     999903    2    3    3    0    0  0.67971504578E-01 -0.39798710721E-02 -0.11703536938E+00  0.14265819949E+00  0.44923483689E-01 0.  0.
         14    1    1    2    0    0 -0.95280932221E-02  0.13128888744E-02  0.82001026560E-02  0.12639221543E-01  0.00000000000E+00 0.  1.
     999901    1    3    3    0    0 -0.58443411356E-01  0.26669821976E-02  0.10883526672E+00  0.88863257897E+00  0.88000000000E+00 0.  1.
        -11    1    4    4    0    0 -0.34589648294E-03  0.19788101129E-02  0.34488780517E-02  0.40238308433E-02  0.51100000000E-03 0. -1.
         11    1    4    4    0    0  0.68317401061E-01 -0.59586811850E-02 -0.12048424743E+00  0.13863436864E+00  0.51100000000E-03 0.  1.
</event>
<event>
 8    1  0.2824193E+004  0.1043930E+01  0.7957747E-01            NaN
         13   -1    0    0    0    0  0.00000000000E+00  0.00000000000E+00  0.74505805969E-08  0.10566000000E+00  0.10566000000E+00 0.  1.
     999900   -1    0    0    0    0 -0.00000000000E+00 -0.00000000000E+00 -0.74505805969E-08  0.93827000000E+00  0.93827000000E+00 0.  1.
     999902    2    1    2    0    0 -0.70857545131E-02  0.62548051800E-02  0.10020050381E-01  0.10301556792E+01  0.10300635861E+01 0.  0.
     999903    2    3    3    0    0  0.13435131012E-01  0.28265040194E-01 -0.12763290122E+00  0.13894644881E+00  0.45128072420E-01 0.  0.
         14    1    1    2    0    0  0.70857545131E-02 -0.62548051800E-02 -0.10020050381E-01  0.13774320836E-01  0.00000000000E+00 0. -1.
     999901    1    3    3    0    0 -0.20520885525E-01 -0.22010235014E-01  0.13765295160E+00  0.89120923036E+00  0.88000000000E+00 0. -1.
        -11    1    4    4    0    0 -0.14244455017E-01  0.19890357570E-01 -0.74986226424E-01  0.78877918946E-01  0.51100000000E-03 0. -1.
         11    1    4    4    0    0  0.27679586029E-01  0.83746826243E-02 -0.52646674795E-01  0.60068529862E-01  0.51100000000E-03 0.  1.
</event>
<event>
 8    1  0.2824193E+004  0.1043930E+01  0.7957747E-01            NaN
         13   -1    0    0    0    0  0.00000000000E+00  0.00000000000E+00  0.74505805969E-08  0.10566000000E+00  0.10566000000E+00 0. -1.
     999900   -1    0    0    0    0 -0.00000000000E+00 -0.00000000000E+00 -0.74505805969E-08  0.93827000000E+00  0.93827000000E+00 0.  1.
     999902    2    1    2    0    0  0.12615139007E-01  0.47883920128E-02  0.91362099393E-03  0.10304057576E+01  0.10303169998E+01 0.  0.
     999903    2    3    3    0    0  0.86079541230E-01  0.84758321473E-01  0.59446102369E-01  0.14180108765E+00  0.44497740331E-01 0.  0.
         14    1    1    2    0    0 -0.12615139007E-01 -0.47883920128E-02 -0.91362099393E-03  0.13524242439E-01  0.00000000000E+00 0. -1.
     999901    1    3    3    0    0 -0.73464402223E-01 -0.79969929461E-01 -0.58532481375E-01  0.88860466991E+00  0.88000000000E+00 0.  1.
        -11    1    4    4    0    0  0.26500094548E-01  0.31857755732E-01 -0.15282206419E-02  0.41470087903E-01  0.51100000000E-03 0. -1.
         11    1    4    4    0    0  0.59579446682E-01  0.52900565741E-01  0.60974323011E-01  0.10033099975E+00  0.51100000000E-03 0.  1.
</event>
<event>
 8    1  0.2824193E+004  0.1043930E+01  0.7957747E-01            NaN
         13   -1    0    0    0    0  0.00000000000E+00  0.00000000000E+00  0.74505805969E-08  0.10566000000E+00  0.10566000000E+00 0.  1.
     999900   -1    0    0    0    0 -0.00000000000E+00 -0.00000000000E+00 -0.74505805969E-08  0.93827000000E+00  0.93827000000E+00 0. -1.
     999902    2    1    2    0    0  0.10617922261E-01 -0.90155087397E-02 -0.87186867999E-03  0.10299736457E+01  0.10298790856E+01 0.  0.
     999903    2    3    3    0    0 -0.10242391952E+00  0.15386516597E-01 -0.81007490757E-01  0.13879710045E+00  0.44441167321E-01 0.  0.
         14    1    1    2    0    0 -0.10617922261E-01  0.90155087397E-02  0.87186867999E-03  0.13956354322E-01  0.00000000000E+00 0. -1.
     999901    1    3    3    0    0  0.11304184178E+00 -0.24402025336E-01  0.80135622077E-01  0.89117654522E+00  0.88000000000E+00 0.  1.
        -11    1    4    4    0    0 -0.40595087413E-01 -0.15630575370E-01 -0.29797994858E-01  0.52730044823E-01  0.51100000000E-03 0.  1.
         11    1    4    4    0    0 -0.61828832106E-01  0.31017091967E-01 -0.51209495898E-01  0.86067055630E-01  0.51100000000E-03 0. -1.
</event>
<event>
 8    1  0.2824193E+004  0.1043930E+01  0.7957747E-01            NaN
         13   -1    0    0    0    0  0.00000000000E+00  0.00000000000E+00  0.74505805969E-08  0.10566000000E+00  0.10566000000E+00 0. -1.
     999900   -1    0    0    0    0 -0.00000000000E+00 -0.00000000000E+00 -0.74505805969E-08  0.93827000000E+00  0.93827000000E+00 0.  1.
     999902    2    1    2    0    0  0.12155633682E-01 -0.87597515349E-04 -0.70943929890E-02  0.10298552881E+01  0.10297591062E+01 0.  0.
     999903    2    3    3    0    0 -0.14644083027E-01 -0.94315432215E-01 -0.92498462401E-01  0.14030991841E+00  0.44956175717E-01 0.  0.
         14    1    1    2    0    0 -0.12155633682E-01  0.87597515349E-04  0.70943929890E-02  0.14074711913E-01  0.00000000000E+00 0. -1.
     999901    1    3    3    0    0  0.26799716710E-01  0.94227834700E-01  0.85404069412E-01  0.88954536968E+00  0.88000000000E+00 0.  1.
        -11    1    4    4    0    0 -0.17171457012E-01 -0.85551907252E-01 -0.58375764991E-01  0.10498561249E+00  0.51100000000E-03 0. -1.
         11    1    4    4    0    0  0.25273739841E-02 -0.87635249629E-02 -0.34122697410E-01  0.35324305918E-01  0.51100000000E-03 0.  1.
</event>
<event>
 8    1  0.2824193E+004  0.1043930E+01  0.7957747E-01            NaN
         13   -1    0    0    0    0  0.00000000000E+00  0.00000000000E+00  0.74505805969E-08  0.10566000000E+00  0.10566000000E+00 0.  1.
     999900   -1    0    0    0    0 -0.00000000000E+00 -0.00000000000E+00 -0.74505805969E-08  0.93827000000E+00  0.93827000000E+00 0.  1.
     999902    2    1    2    0    0 -0.12621885488E-01  0.53479002172E-02 -0.30056125319E-02  0.10298962643E+01  0.10298006455E+01 0.  0.
     999903    2    3    3    0    0 -0.28231377891E-01  0.46060130974E-01 -0.12214483585E+00  0.14079824020E+00  0.44567220646E-01 0.  0.
         14    1    1    2    0    0  0.12621885488E-01 -0.53479002172E-02  0.30056125319E-02  0.14033735664E-01  0.00000000000E+00 0.  1.
     999901    1    3    3    0    0  0.15609492403E-01 -0.40712230756E-01  0.11913922332E+00  0.88909802413E+00  0.88000000000E+00 0. -1.
        -11    1    4    4    0    0  0.27436242476E-02 -0.44379704300E-02 -0.35198993586E-01  0.35587263536E-01  0.51100000000E-03 0.  1.
         11    1    4    4    0    0 -0.30975002138E-01  0.50498101403E-01 -0.86945842264E-01  0.10521097667E+00  0.51100000000E-03 0. -1.
</event>
<event>
 8    1  0.2824193E+004  0.1043930E+01  0.7957747E-01            NaN
         13   -1    0    0    0    0  0.00000000000E+00  0.00000000000E+00  0.74505805969E-08  0.10566000000E+00  0.10566000000E+00 0.  1.
     999900   -1    0    0    0    0 -0.00000000000E+00 -0.00000000000E+00 -0.74505805969E-08  0.93827000000E+00  0.93827000000E+00 0.  1.
     999902    2    1    2    0    0  0.38902831468E-02  0.12537420624E-01 -0.94300525756E-02  0.10277668595E+01  0.10276397571E+01 0.  0.
     999903    2    3    3    0    0 -0.85030429154E-01 -0.47766266644E-01 -0.85964612127E-01  0.13793487167E+00  0.46090391344E-01 0.  0.
         14    1    1    2    0    0 -0.38902831468E-02 -0.12537420624E-01  0.94300525756E-02  0.16163140488E-01  0.00000000000E+00 0.  1.
     999901    1    3    3    0    0  0.88920712301E-01  0.60303687268E-01  0.76534559551E-01  0.88983198784E+00  0.88000000000E+00 0.  1.
        -11    1    4    4    0    0 -0.55155882391E-01 -0.64543023757E-02 -0.55646537700E-01  0.78616968019E-01  0.51100000000E-03 0.  1.
         11    1    4    4    0    0 -0.29874546763E-01 -0.41311964269E-01 -0.30318074426E-01  0.59317903655E-01  0.51100000000E-03 0. -1.
</event>
<event>
 8    1  0.2824193E+004  0.1043930E+01  0.7957747E-01            NaN
         13   -1    0    0    0    0  0.00000000000E+00  0.00000000000E+00  0.74505805969E-08  0.10566000000E+00  0.10566000000E+00 0. -1.
     999900   -1    0    0    0    0 -0.00000000000E+00 -0.00000000000E+00 -0.74505805969E-08  0.93827000000E+00  0.93827000000E+00 0. -1.
     999902    2    1    2    0    0  0.10974100157E-01 -0.48079377752E-02 -0.62866618059E-02  0.10303996912E+01  0.10303108533E+01 0.  0.
     999903    2    3    3    0    0 -0.39065279141E-01  0.38884000969E-01 -0.11854486495E+00  0.14078470190E+00  0.52243523214E-01 0.  0.
         14    1    1    2    0    0 -0.10974100157E-01  0.48079377752E-02  0.62866618059E-02  0.13530308813E-01  0.00000000000E+00 0.  1.
     999901    1    3    3    0    0  0.50039379298E-01 -0.43691938744E-01  0.11225820314E+00  0.88961498929E+00  0.88000000000E+00 0.  1.
        -11    1    4    4    0    0 -0.46634013817E-01  0.24325693820E-01 -0.59111605985E-01  0.79125935746E-01  0.51100000000E-03 0.  1.
         11    1    4    4    0    0  0.75687346767E-02  0.14558307149E-01 -0.59433258963E-01  0.61658766154E-01  0.51100000000E-03 0. -1.
</event>
<event>
 8    1  0.2824193E+004  0.1043930E+01  0.7957747E-01            NaN
         13   -1    0    0    0    0  0.00000000000E+00  0.00000000000E+00  0.74505805969E-08  0.10566000000E+00  0.10566000000E+00 0. -1.
     999900   -1    0    0    0    0 -0.00000000000E+00 -0.00000000000E+00 -0.74505805969E-08  0.93827000000E+00  0.93827000000E+00 0. -1.
     999902    2    1    2    0    0 -0.10764739498E-01  0.81170956617E-02 -0.26514308625E-02  0.10301896600E+01  0.10300980238E+01 0.  0.
     999903    2    3    3    0    0  0.35741922003E-01 -0.12228469936E+00 -0.31560892871E-01  0.13889663593E+00  0.45443952616E-01 0.  0.
         14    1    1    2    0    0  0.10764739498E-01 -0.81170956617E-02  0.26514308625E-02  0.13740340027E-01  0.00000000000E+00 0. -1.
     999901    1    3    3    0    0 -0.46506661501E-01  0.13040179502E+00  0.28909462009E-01  0.89129302404E+00  0.88000000000E+00 0. -1.
        -11    1    4    4    0    0  0.20590616572E-01 -0.11824060355E-01 -0.64004312783E-02  0.24596921263E-01  0.51100000000E-03 0.  1.
         11    1    4    4    0    0  0.15151305431E-01 -0.11046063900E+00 -0.25160461593E-01  0.11429971467E+00  0.51100000000E-03 0. -1.
</event>
<event>
 8    1  0.2824193E+004  0.1043930E+01  0.7957747E-01            NaN
         13   -1    0    0    0    0  0.00000000000E+00  0.00000000000E+00  0.74505805969E-08  0.10566000000E+00  0.10566000000E+00 0.  1.
     999900   -1    0    0    0    0 -0.00000000000E+00 -0.00000000000E+00 -0.74505805969E-08  0.93827000000E+00  0.93827000000E+00 0. -1.
     999902    2    1    2    0    0  0.40867969769E-02 -0.20417591301E-01 -0.56212135203E-03  0.10230998314E+01  0.10228877598E+01 0.  0.
     999903    2    3    3    0    0 -0.52058212750E-01  0.59124941757E-01  0.96659689238E-01  0.13240832635E+00  0.44531484501E-01 0.  0.
         14    1    1    2    0    0 -0.40867969769E-02  0.20417591301E-01  0.56212135203E-03  0.20830168614E-01  0.00000000000E+00 0.  1.
     999901    1    3    3    0    0  0.56145009727E-01 -0.79542533058E-01 -0.97221810590E-01  0.89069150503E+00  0.88000000000E+00 0. -1.
        -11    1    4    4    0    0 -0.39701719036E-01  0.65487331962E-01  0.81593377043E-01  0.11190423334E+00  0.51100000000E-03 0.  1.
         11    1    4    4    0    0 -0.12356493714E-01 -0.63623902053E-02  0.15066312195E-01  0.20504093010E-01  0.51100000000E-03 0. -1.
</event>
<event>
 8    1  0.2824193E+004  0.1043930E+01  0.7957747E-01            NaN
         13   -1    0    0    0    0  0.00000000000E+00  0.00000000000E+00  0.74505805969E-08  0.10566000000E+00  0.10566000000E+00 0. -1.
     999900   -1    0    0    0    0 -0.00000000000E+00 -0.00000000000E+00 -0.74505805969E-08  0.93827000000E+00  0.93827000000E+00 0. -1.
     999902    2    1    2    0    0  0.99563215899E-02 -0.67642445815E-02 -0.66774529933E-02  0.10301651272E+01  0.10300731613E+01 0.  0.
     999903    2    3    3    0    0 -0.12202390016E+00 -0.73824834089E-02  0.48128306589E-01  0.13863675838E+00  0.44266054789E-01 0.  0.
         14    1    1    2    0    0 -0.99563215899E-02  0.67642445815E-02  0.66774529933E-02  0.13764872787E-01  0.00000000000E+00 0. -1.
     999901    1    3    3    0    0  0.13198022175E+00  0.61823882739E-03 -0.54805759582E-01  0.89152836883E+00  0.88000000000E+00 0. -1.
        -11    1    4    4    0    0 -0.61595239517E-01  0.15899865763E-01  0.34821867869E-01  0.72523119523E-01  0.51100000000E-03 0.  1.
         11    1    4    4    0    0 -0.60428660646E-01 -0.23282349172E-01  0.13306438720E-01  0.66113638856E-01  0.51100000000E-03 0. -1.
</event>
<event>
 8    1  0.2824193E+004  0.1043930E+01  0.7957747E-01            NaN
         13   -1    0    0    0    0  0.00000000000E+00  0.00000000000E+00  0.74505805969E-08  0.10566000000E+00  0.10566000000E+00 0. -1.
     999900   -1    0    0    0    0 -0.00000000000E+00 -0.00000000000E+00 -0.74505805969E-08  0.93827000000E+00  0.93827000000E+00 0.  1.
     999902    2    1    2    0    0 -0.47545615903E-02  0.58765715547E-02  0.10160347523E-01  0.10312661692E+01  0.10311884111E+01 0.  0.
     999903    2    3    3    0    0 -0.52453912936E-01 -0.89122215975E-01 -0.83089596244E-01  0.13997746749E+00  0.44672452796E-01 0.  0.
         14    1    1    2    0    0  0.47545615903E-02 -0.58765715547E-02 -0.10160347523E-01  0.12663830817E-01  0.00000000000E+00 0.  1.
     999901    1    3    3    0    0  0.47699351345E-01  0.94998787530E-01  0.93249943767E-01  0.89128870169E+00  0.88000000000E+00 0. -1.
        -11    1    4    4    0    0 -0.58180938312E-02 -0.52566440245E-01 -0.45792121360E-01  0.69958990527E-01  0.51100000000E-03 0.  1.
         11    1    4    4    0    0 -0.46635819104E-01 -0.36555775730E-01 -0.37297474884E-01  0.70018476965E-01  0.51100000000E-03 0. -1.
</event>
<event>
 8    1  0.2824193E+004  0.1043930E+01  0.7957747E-01            NaN
         13   -1    0    0    0    0  0.00000000000E+00  0.00000000000E+00  0.74505805969E-08  0.10566000000E+00  0.10566000000E+00 0.  1.
     999900   -1    0    0    0    0 -0.00000000000E+00 -0.00000000000E+00 -0.74505805969E-08  0.93827000000E+00  0.93827000000E+00 0.  1.
     999902    2    1    2    0    0  0.17103705353E-02 -0.12094349999E-01 -0.51632238754E-02  0.10306688707E+01  0.10305835548E+01 0.  0.
     999903    2    3    3    0    0 -0.28800782490E-01 -0.23739444963E-01 -0.12970680254E+00  0.14129963261E+00  0.41817283883E-01 0.  0.
         14    1    1    2    0    0 -0.17103705353E-02  0.12094349999E-01  0.51632238754E-02  0.13261129291E-01  0.00000000000E+00 0.  1.
     999901    1    3    3    0    0  0.30511153025E-01  0.11645094964E-01  0.12454357866E+00  0.88936923810E+00  0.88000000000E+00 0. -1.
        -11    1    4    4    0    0 -0.17696174892E-01 -0.60479547712E-02 -0.13107214879E-01  0.22842779288E-01  0.51100000000E-03 0. -1.
         11    1    4    4    0    0 -0.11104607598E-01 -0.17691490192E-01 -0.11659958766E+00  0.11845685332E+00  0.51100000000E-03 0.  1.
</event>
<event>
 8    1  0.2824193E+004  0.1043930E+01  0.7957747E-01            NaN
         13   -1    0    0    0    0  0.00000000000E+00  0.00000000000E+00  0.74505805969E-08  0.10566000000E+00  0.10566000000E+00 0. -1.
     999900   -1    0    0    0    0 -0.00000000000E+00 -0.00000000000E+00 -0.74505805969E-08  0.93827000000E+00  0.93827000000E+00 0.  1.
     999902    2    1    2    0    0 -0.41933150631E-02 -0.46277577305E-02  0.12847697638E-01  0.10296449250E+01  0.10295458262E+01 0.  0.
     999903    2    3    3    0    0 -0.61684787080E-01 -0.99716213712E-01 -0.60701865072E-01  0.13961311547E+00  0.45373663669E-01 0.  0.
         14    1    1    2    0    0  0.41933150631E-02  0.46277577305E-02 -0.12847697638E-01  0.14285074988E-01  0.00000000000E+00 0.  1.
     999901    1    3    3    0    0  0.57491472017E-01  0.95088455982E-01  0.73549562709E-01  0.89003180954E+00  0.88000000000E+00 0.  1.
        -11    1    4    4    0    0 -0.23486595653E-01 -0.23623481072E-01 -0.39871058523E-01  0.51958170311E-01  0.51100000000E-03 0.  1.
         11    1    4    4    0    0 -0.38198191427E-01 -0.76092732640E-01 -0.20830806549E-01  0.87654945162E-01  0.51100000000E-03 0. -1.
</event>
<event>
 8    1  0.2824193E+004  0.1043930E+01  0.7957747E-01            NaN
         13   -1    0    0    0    0  0.00000000000E+00  0.00000000000E+00  0.74505805969E-08  0.10566000000E+00  0.10566000000E+00 0.  1.
     999900   -1    0    0    0    0 -0.00000000000E+00 -0.00000000000E+00 -0.74505805969E-08  0.93827000000E+00  0.93827000000E+00 0.  1.
     999902    2    1    2    0    0 -0.52574850123E-02 -0.73921435514E-02 -0.99026976476E-02  0.10305006160E+01  0.10304131070E+01 0.  0.
     999903    2    3    3    0    0 -0.87417612957E-01 -0.39274940001E-01 -0.94080413130E-01  0.14210167004E+00  0.46447825848E-01 0.  0.
         14    1    1    2    0    0  0.52574850123E-02  0.73921435514E-02  0.99026976476E-02  0.13429384038E-01  0.00000000000E+00 0.  1.
     999901    1    3    3    0    0  0.82160127945E-01  0.31882796449E-01  0.84177715482E-01  0.88839894592E+00  0.88000000000E+00 0. -1.
        -11    1    4    4    0    0 -0.69379019400E-01 -0.43377315742E-01 -0.54230909308E-01  0.98164619387E-01  0.51100000000E-03 0. -1.
         11    1    4    4    0    0 -0.18038593557E-01  0.41023757408E-02 -0.39849503821E-01  0.43937050652E-01  0.51100000000E-03 0.  1.
</event>
<event>
 8    1  0.2824193E+004  0.1043930E+01  0.7957747E-01            NaN
         13   -1    0    0    0    0  0.00000000000E+00  0.00000000000E+00  0.74505805969E-08  0.10566000000E+00  0.10566000000E+00 0.  1.
     999900   -1    0    0    0    0 -0.00000000000E+00 -0.00000000000E+00 -0.74505805969E-08  0.93827000000E+00  0.93827000000E+00 0.  1.
     999902    2    1    2    0    0  0.64154885765E-02 -0.11275258858E-01  0.34405212661E-02  0.10305088546E+01  0.10304214538E+01 0.  0.
     999903    2    3    3    0    0  0.10582635693E+00 -0.75595512162E-01  0.36088557596E-01  0.14197888329E+00  0.44064952385E-01 0.  0.
         14    1    1    2    0    0 -0.64154885765E-02  0.11275258858E-01 -0.34405212661E-02  0.13421145352E-01  0.00000000000E+00 0. -1.
     999901    1    3    3    0    0 -0.99410868358E-01  0.64320253304E-01 -0.32648036329E-01  0.88852997136E+00  0.88000000000E+00 0.  1.
        -11    1    4    4    0    0  0.11548261799E-01 -0.27319481379E-01  0.17493420177E-01  0.34438311281E-01  0.51100000000E-03 0. -1.
         11    1    4    4    0    0  0.94278095135E-01 -0.48276030783E-01  0.18595137418E-01  0.10754057200E+00  0.51100000000E-03 0.  1.
</event>
<event>
 8    1  0.2824193E+004  0.1043930E+01  0.7957747E-01            NaN
         13   -1    0    0    0    0  0.00000000000E+00  0.00000000000E+00  0.74505805969E-08  0.10566000000E+00  0.10566000000E+00 0. -1.
     999900   -1    0    0    0    0 -0.00000000000E+00 -0.00000000000E+00 -0.74505805969E-08  0.93827000000E+00  0.93827000000E+00 0.  1.
     999902    2    1    2    0    0 -0.48233695463E-02  0.84480819898E-02  0.97359876319E-02  0.10301668449E+01  0.10300749021E+01 0.  0.
     999903    2    3    3    0    0  0.40653065018E-02  0.80073617582E-01 -0.10523999412E+00  0.13975755570E+00  0.45037840359E-01 0.  0.
         14    1    1    2    0    0  0.48233695463E-02 -0.84480819898E-02 -0.97359876319E-02  0.13763155098E-01  0.00000000000E+00 0.  1.
     999901    1    3    3    0    0 -0.88886760480E-02 -0.71625535592E-01  0.11497598175E+00  0.89040928920E+00  0.88000000000E+00 0. -1.
        -11    1    4    4    0    0  0.60928240153E-03  0.14506212043E-01 -0.55539357188E-01  0.57408037161E-01  0.51100000000E-03 0.  1.
         11    1    4    4    0    0  0.34560241002E-02  0.65567405538E-01 -0.49700636932E-01  0.82349518542E-01  0.51100000000E-03 0. -1.
</event>
<event>
 8    1  0.2824193E+004  0.1043930E+01  0.7957747E-01            NaN
         13   -1    0    0    0    0  0.00000000000E+00  0.00000000000E+00  0.74505805969E-08  0.10566000000E+00  0.10566000000E+00 0.  1.
     999900   -1    0    0    0    0 -0.00000000000E+00 -0.00000000000E+00 -0.74505805969E-08  0.93827000000E+00  0.93827000000E+00 0.  1.
     999902    2    1    2    0    0  0.72365066139E-02  0.51382115565E-02 -0.10767719187E-01  0.10299760750E+01  0.10298815481E+01 0.  0.
     999903    2    3    3    0    0 -0.14442152897E-01 -0.68259305478E-01  0.11057854002E+00  0.13835840224E+00  0.45249589969E-01 0.  0.
         14    1    1    2    0    0 -0.72365066139E-02 -0.51382115565E-02  0.10767719187E-01  0.13953924984E-01  0.00000000000E+00 0.  1.
     999901    1    3    3    0    0  0.21678659511E-01  0.73397517035E-01 -0.12134625921E+00  0.89161767278E+00  0.88000000000E+00 0.  1.
        -11    1    4    4    0    0 -0.57153704891E-02 -0.30594534861E-01  0.13625404308E-01  0.33979461248E-01  0.51100000000E-03 0. -1.
         11    1    4    4    0    0 -0.87267824082E-02 -0.37664770618E-01  0.96953135712E-01  0.10437894099E+00  0.51100000000E-03 0.  1.
</event>
<event>
 8    1  0.2824193E+004  0.1043930E+01  0.7957747E-01            NaN
         13   -1    0    0    0    0  0.00000000000E+00  0.00000000000E+00  0.74505805969E-08  0.10566000000E+00  0.10566000000E+00 0.  1.
     999900   -1    0    0    0    0 -0.00000000000E+00 -0.00000000000E+00 -0.74505805969E-08  0.93827000000E+00  0.93827000000E+00 0.  1.
     999902    2    1    2    0    0  0.82383187309E-02  0.93750719739E-02  0.50541945344E-02  0.10304649804E+01  0.10303770034E+01 0.  0.
     999903    2    3    3    0    0  0.57941819950E-01  0.10806903022E+00  0.53611947122E-01  0.14222582863E+00  0.48143282638E-01 0.  0.
         14    1    1    2    0    0 -0.82383187309E-02 -0.93750719739E-02 -0.50541945344E-02  0.13465019585E-01  0.00000000000E+00 0. -1.
     999901    1    3    3    0    0 -0.49703501219E-01 -0.98693958248E-01 -0.48557752588E-01  0.88823915179E+00  0.88000000000E+00 0. -1.
        -11    1    4    4    0    0  0.26892717541E-01  0.93714171498E-01  0.38445122877E-01  0.10480387774E+00  0.51100000000E-03 0.  1.
         11    1    4    4    0    0  0.31049102409E-01  0.14354858724E-01  0.15166824245E-01  0.37421950886E-01  0.51100000000E-03 0. -1.
</event>
<event>
 8    1  0.2824193E+004  0.1043930E+01  0.7957747E-01            NaN
         13   -1    0    0    0    0  0.00000000000E+00  0.00000000000E+00  0.74505805969E-08  0.10566000000E+00  0.10566000000E+00 0.  1.
     999900   -1    0    0    0    0 -0.00000000000E+00 -0.00000000000E+00 -0.74505805969E-08  0.93827000000E+00  0.93827000000E+00 0.  1.
     999902    2    1    2    0    0 -0.15028888751E-01  0.15918563204E-01  0.19867343985E-02  0.10219478421E+01  0.10217113960E+01 0.  0.
     999903    2    3    3    0    0  0.33383759709E-01 -0.76639219576E-01 -0.88684334071E-01  0.13114372766E+00  0.48432641932E-01 0.  0.
         14    1    1    2    0    0  0.15028888751E-01 -0.15918563204E-01 -0.19867343985E-02  0.21982157882E-01  0.00000000000E+00 0. -1.
     999901    1    3    3    0    0 -0.48412648460E-01  0.92557782780E-01  0.90671068470E-01  0.89080411446E+00  0.88000000000E+00 0. -1.
        -11    1    4    4    0    0  0.38820124396E-02 -0.11182390702E-03 -0.30093076485E-01  0.30346942161E-01  0.51100000000E-03 0.  1.
         11    1    4    4    0    0  0.29501747270E-01 -0.76527395669E-01 -0.58591257586E-01  0.10079678550E+00  0.51100000000E-03 0. -1.
</event>
<event>
 8    1  0.2824193E+004  0.1043930E+01  0.7957747E-01            NaN
         13   -1    0    0    0    0  0.00000000000E+00  0.00000000000E+00  0.74505805969E-08  0.10566000000E+00  0.10566000000E+00 0. -1.
     999900   -1    0    0    0    0 -0.00000000000E+00 -0.00000000000E+00 -0.74505805969E-08  0.93827000000E+00  0.93827000000E+00 0. -1.
     999902    2    1    2    0    0  0.75331457562E-02 -0.54065002250E-02 -0.11553180513E-01  0.10291160029E+01  0.10290093746E+01 0.  0.
     999903    2    3    3    0    0  0.69990681906E-01 -0.10347368179E+00 -0.46351690069E-01  0.14078664272E+00  0.45463185323E-01 0.  0.
         14    1    1    2    0    0 -0.75331457562E-02  0.54065002250E-02  0.11553180513E-01  0.14813997085E-01  0.00000000000E+00 0. -1.
     999901    1    3    3    0    0 -0.62457536149E-01  0.98067181561E-01  0.34798509556E-01  0.88832936020E+00  0.88000000000E+00 0.  1.
        -11    1    4    4    0    0  0.28773150425E-01 -0.31715739220E-01 -0.38626821765E-01  0.57672131748E-01  0.51100000000E-03 0. -1.
         11    1    4    4    0    0  0.41217531481E-01 -0.71757942565E-01 -0.77248683044E-02  0.83114510971E-01  0.51100000000E-03 0.  1.
</event>
<event>
 8    1  0.2824193E+004  0.1043930E+01  0.7957747E-01            NaN
         13   -1    0    0    0    0  0.00000000000E+00  0.00000000000E+00  0.74505805969E-08  0.10566000000E+00  0.10566000000E+00 0. -1.
     999900   -1    0    0    0    0 -0.00000000000E+00 -0.00000000000E+00 -0.74505805969E-08  0.93827000000E+00  0.93827000000E+00 0. -1.
     999902    2    1    2    0    0  0.67022871863E-02 -0.14349318169E-01  0.73427360406E-02  0.10264732146E+01  0.10263247638E+01 0.  0.
     999903    2    3    3    0    0 -0.11002204723E+00  0.64007905840E-01 -0.24331218086E-02  0.13526056193E+00  0.45690662576E-01 0.  0.
         14    1    1    2    0    0 -0.67022871863E-02  0.14349318169E-01 -0.73427360406E-02  0.17456785443E-01  0.00000000000E+00 0. -1.
     999901    1    3    3    0    0  0.11672433441E+00 -0.78357224008E-01  0.97758578492E-02  0.89121265262E+00  0.88000000000E+00 0.  1.
        -11    1    4    4    0    0 -0.80405187983E-01  0.45754753604E-01 -0.22342760870E-01  0.95173272593E-01  0.51100000000E-03 0. -1.
         11    1    4    4    0    0 -0.29616859246E-01  0.18253152236E-01  0.19909639061E-01  0.40087289341E-01  0.51100000000E-03 0.  1.
</event>
<event>
 8    1  0.2824193E+004  0.1043930E+01  0.7957747E-01            NaN
         13   -1    0    0    0    0  0.00000000000E+00  0.00000000000E+00  0.74505805969E-08  0.10566000000E+00  0.10566000000E+00 0.  1.
     999900   -1    0    0    0    0 -0.00000000000E+00 -0.00000000000E+00 -0.74505805969E-08  0.93827000000E+00  0.93827000000E+00 0.  1.
     999902    2    1    2    0    0  0.72846325639E-02  0.93422485691E-02 -0.66945262336E-02  0.10303226431E+01  0.10302327838E+01 0.  0.
     999903    2    3    3    0    0 -0.82983903144E-01 -0.84293723418E-01 -0.58423525116E-01  0.13926035959E+00  0.44591248899E-01 0.  0.
         14    1    1    2    0    0 -0.72846325639E-02 -0.93422485691E-02  0.66945262336E-02  0.13607356886E-01  0.00000000000E+00 0. -1.
     999901    1    3    3    0    0  0.90268535708E-01  0.93635971987E-01  0.51728998882E-01  0.89106228352E+00  0.88000000000E+00 0.  1.
        -11    1    4    4    0    0 -0.67811900788E-01 -0.65982184053E-01 -0.64745477660E-01  0.11464877016E+00  0.51100000000E-03 0. -1.
         11    1    4    4    0    0 -0.15172002357E-01 -0.18311539365E-01  0.63219525449E-02  0.24611589433E-01  0.51100000000E-03 0.  1.
</event>
<event>
 8    1  0.2824193E+004  0.1043930E+01  0.7957747E-01            NaN
         13   -1    0    0    0    0  0.00000000000E+00  0.00000000000E+00  0.74505805969E-08  0.10566000000E+00  0.10566000000E+00 0.  1.
     999900   -1    0    0    0    0 -0.00000000000E+00 -0.00000000000E+00 -0.74505805969E-08  0.93827000000E+00  0.93827000000E+00 0. -1.
     999902    2    1    2    0    0 -0.41603108267E-02  0.46363550076E-02  0.11859612047E-01  0.10305339419E+01  0.10304468696E+01 0.  0.
     999903    2    3    3    0    0  0.10905634595E+00  0.40226743321E-01 -0.62868517013E-01  0.13942845974E+00  0.44456354824E-01 0.  0.
         14    1    1    2    0    0  0.41603108267E-02 -0.46363550076E-02 -0.11859612047E-01  0.13396058071E-01  0.00000000000E+00 0.  1.
     999901    1    3    3    0    0 -0.11321665678E+00 -0.35590388314E-01  0.74728129060E-01  0.89110548219E+00  0.88000000000E+00 0.  1.
        -11    1    4    4    0    0  0.38248901156E-01 -0.59414785571E-02 -0.28983711940E-01  0.48359035204E-01  0.51100000000E-03 0.  1.
         11    1    4    4    0    0  0.70807444794E-01  0.46168221878E-01 -0.33884805074E-01  0.91069424537E-01  0.51100000000E-03 0. -1.
</event>
<event>
 8    1  0.2824193E+004  0.1043930E+01  0.7957747E-01            NaN
         13   -1    0    0    0    0  0.00000000000E+00  0.00000000000E+00  0.74505805969E-08  0.10566000000E+00  0.10566000000E+00 0.  1.
     999900   -1    0    0    0    0 -0.00000000000E+00 -0.00000000000E+00 -0.74505805969E-08  0.93827000000E+00  0.93827000000E+00 0.  1.
     999902    2    1    2    0    0  0.35730122731E-02  0.12582616442E-01 -0.51071757910E-02  0.10298882089E+01  0.10297924795E+01 0.  0.
     999903    2    3    3    0    0 -0.11864699985E+00  0.36019188346E-01  0.42643168066E-01  0.13985051327E+00  0.48633669172E-01 0.  0.
         14    1    1    2    0    0 -0.35730122731E-02 -0.12582616442E-01  0.51071757910E-02  0.14041791118E-01  0.00000000000E+00 0.  1.
     999901    1    3    3    0    0  0.12222001212E+00 -0.23436571904E-01 -0.47750343857E-01  0.89003769561E+00  0.88000000000E+00 0. -1.
        -11    1    4    4    0    0 -0.95443277952E-01  0.42088197678E-01  0.48680899053E-01  0.11511266978E+00  0.51100000000E-03 0.  1.
         11    1    4    4    0    0 -0.23203721900E-01 -0.60690093324E-02 -0.60377309871E-02  0.24737843494E-01  0.51100000000E-03 0. -1.
</event>
<event>
 8    1  0.2824193E+004  0.1043930E+01  0.7957747E-01            NaN
         13   -1    0    0    0    0  0.00000000000E+00  0.00000000000E+00  0.74505805969E-08  0.10566000000E+00  0.10566000000E+00 0.  1.
     999900   -1    0    0    0    0 -0.00000000000E+00 -0.00000000000E+00 -0.74505805969E-08  0.93827000000E+00  0.93827000000E+00 0.  1.
     999902    2    1    2    0    0  0.94435314901E-02 -0.97412535769E-02 -0.54983724713E-02  0.10292908604E+01  0.10291867522E+01 0.  0.
     999903    2    3    3    0    0  0.28593526361E-01  0.30220302337E-01 -0.12582796300E+00  0.13999740006E+00  0.45119168088E-01 0.  0.
         14    1    1    2    0    0 -0.94435314901E-02  0.97412535769E-02  0.54983724713E-02  0.14639139595E-01  0.00000000000E+00 0.  1.
     999901    1    3    3    0    0 -0.19149994871E-01 -0.39961555914E-01  0.12032959052E+00  0.88929346034E+00  0.88000000000E+00 0. -1.
        -11    1    4    4    0    0  0.20176052076E-01  0.14980348491E-01 -0.11844030028E+00  0.12107786656E+00  0.51100000000E-03 0. -1.
         11    1    4    4    0    0  0.84174742856E-02  0.15239953846E-01 -0.73876627126E-02  0.18919533502E-01  0.51100000000E-03 0.  1.
</event>
<event>
 8    1  0.2824193E+004  0.1043930E+01  0.7957747E-01            NaN
         13   -1    0    0    0    0  0.00000000000E+00  0.00000000000E+00  0.74505805969E-08  0.10566000000E+00  0.10566000000E+00 0.  1.
     999900   -1    0    0    0    0 -0.00000000000E+00 -0.00000000000E+00 -0.74505805969E-08  0.93827000000E+00  0.93827000000E+00 0. -1.
     999902    2    1    2    0    0  0.56517830355E-02  0.13777799227E-01  0.42493445712E-04  0.10290379817E+01  0.10289302190E+01 0.  0.
     999903    2    3    3    0    0 -0.14085457901E-01  0.42932803625E-01  0.12433449690E+00  0.13960666054E+00  0.44601869881E-01 0.  0.
         14    1    1    2    0    0 -0.56517830355E-02 -0.13777799227E-01 -0.42493445712E-04  0.14892018289E-01  0.00000000000E+00 0. -1.
     999901    1    3    3    0    0  0.19737240936E-01 -0.29155004399E-01 -0.12429200345E+00  0.88943132117E+00  0.88000000000E+00 0. -1.
        -11    1    4    4    0    0 -0.28953251530E-01  0.20281341607E-01  0.82570688736E-01  0.89820951626E-01  0.51100000000E-03 0. -1.
         11    1    4    4    0    0  0.14867793629E-01  0.22651462019E-01  0.41763808160E-01  0.49785708913E-01  0.51100000000E-03 0.  1.
</event>
<event>
 8    1  0.2824193E+004  0.1043930E+01  0.7957747E-01            NaN
         13   -1    0    0    0    0  0.00000000000E+00  0.00000000000E+00  0.74505805969E-08  0.10566000000E+00  0.10566000000E+00 0. -1.
     999900   -1    0    0    0    0 -0.00000000000E+00 -0.00000000000E+00 -0.74505805969E-08  0.93827000000E+00  0.93827000000E+00 0.  1.
     999902    2    1    2    0    0  0.56016606982E-02  0.41963589711E-02  0.11158352314E-01  0.10307581794E+01  0.10306740162E+01 0.  0.
     999903    2    3    3    0    0  0.65994841724E-01 -0.49280239610E-01 -0.10344072293E+00  0.13966894092E+00  0.44984094390E-01 0.  0.
         14    1    1    2    0    0 -0.56016606982E-02 -0.41963589711E-02 -0.11158352314E-01  0.13171820586E-01  0.00000000000E+00 0. -1.
     999901    1    3    3    0    0 -0.60393181026E-01  0.53476598581E-01  0.11459907524E+00  0.89108923849E+00  0.88000000000E+00 0.  1.
        -11    1    4    4    0    0  0.13398243515E-01 -0.37663432919E-01 -0.43569424944E-01  0.59132081136E-01  0.51100000000E-03 0. -1.
         11    1    4    4    0    0  0.52596598209E-01 -0.11616806691E-01 -0.59871297983E-01  0.80536859785E-01  0.51100000000E-03 0.  1.
</event>
<event>
 8    1  0.2824193E+004  0.1043930E+01  0.7957747E-01            NaN
         13   -1    0    0    0    0  0.00000000000E+00  0.00000000000E+00  0.74505805969E-08  0.10566000000E+00  0.10566000000E+00 0. -1.
     999900   -1    0    0    0    0 -0.00000000000E+00 -0.00000000000E+00 -0.74505805969E-08  0.93827000000E+00  0.93827000000E+00 0. -1.
     999902    2    1    2    0    0 -0.73669410157E-02  0.11102212296E-01  0.57290159069E-02  0.10294264638E+01  0.10293242890E+01 0.  0.
     999903    2    3    3    0    0  0.17039298831E-02 -0.12964278515E+00  0.18441505021E-01  0.13810551021E+00  0.43850743702E-01 0.  0.
         14    1    1    2    0    0  0.73669410157E-02 -0.11102212296E-01 -0.57290159069E-02  0.14503536157E-01  0.00000000000E+00 0.  1.
     999901    1    3    3    0    0 -0.90708708988E-02  0.14074499745E+00 -0.12712489114E-01  0.89132095363E+00  0.88000000000E+00 0. -1.
        -11    1    4    4    0    0 -0.13963136991E-02 -0.35656563709E-01  0.25409199511E-01  0.43809003279E-01  0.51100000000E-03 0. -1.
         11    1    4    4    0    0  0.31002435821E-02 -0.93986221445E-01 -0.69676944904E-02  0.94296506931E-01  0.51100000000E-03 0.  1.
</event>
<event>
 8    1  0.2824193E+004  0.1043930E+01  0.7957747E-01            NaN
         13   -1    0    0    0    0  0.00000000000E+00  0.00000000000E+00  0.74505805969E-08  0.10566000000E+00  0.10566000000E+00 0.  1.
     999900   -1    0    0    0    0 -0.00000000000E+00 -0.00000000000E+00 -0.74505805969E-08  0.93827000000E+00  0.93827000000E+00 0. -1.
     999902    2    1    2    0    0 -0.10963012448E-01 -0.88720936422E-02  0.30660069111E-02  0.10294973258E+01  0.10293961539E+01 0.  0.
     999903    2    3    3    0    0 -0.58726477954E-01 -0.11994129232E+00  0.92963553104E-02  0.14120878436E+00  0.44930899621E-01 0.  0.
         14    1    1    2    0    0  0.10963012448E-01  0.88720936422E-02 -0.30660069111E-02  0.14432674246E-01  0.00000000000E+00 0.  1.
     999901    1    3    3    0    0  0.47763465506E-01  0.11106919868E+00 -0.62303483993E-02  0.88828854140E+00  0.88000000000E+00 0.  1.
        -11    1    4    4    0    0 -0.64535515868E-01 -0.95802735452E-01  0.12425755806E-01  0.11617941925E+00  0.51100000000E-03 0. -1.
         11    1    4    4    0    0  0.58090379147E-02 -0.24138556872E-01 -0.31294004959E-02  0.25029365110E-01  0.51100000000E-03 0.  1.
</event>
<event>
 8    1  0.2824193E+004  0.1043930E+01  0.7957747E-01            NaN
         13   -1    0    0    0    0  0.00000000000E+00  0.00000000000E+00  0.74505805969E-08  0.10566000000E+00  0.10566000000E+00 0.  1.
     999900   -1    0    0    0    0 -0.00000000000E+00 -0.00000000000E+00 -0.74505805969E-08  0.93827000000E+00  0.93827000000E+00 0.  1.
     999902    2    1    2    0    0  0.10366278158E-01 -0.77567288332E-02 -0.40332536296E-02  0.10303692589E+01  0.10302800182E+01 0.  0.
     999903    2    3    3    0    0  0.33496196962E-01 -0.11926113727E+00 -0.52028576210E-01  0.14173447606E+00  0.45127318640E-01 0.  0.
         14    1    1    2    0    0 -0.10366278158E-01  0.77567288332E-02  0.40332536296E-02  0.13560741126E-01  0.00000000000E+00 0. -1.
     999901    1    3    3    0    0 -0.23129918804E-01  0.11150440843E+00  0.47995322580E-01  0.88863478282E+00  0.88000000000E+00 0. -1.
        -11    1    4    4    0    0 -0.85561870238E-02 -0.27919489920E-01 -0.16238537933E-02  0.29250714110E-01  0.51100000000E-03 0.  1.
         11    1    4    4    0    0  0.42052383986E-01 -0.91341647346E-01 -0.50404722416E-01  0.11248376195E+00  0.51100000000E-03 0. -1.
</event>
<event>
 8    1  0.2824193E+004  0.1043930E+01  0.7957747E-01            NaN
         13   -1    0    0    0    0  0.00000000000E+00  0.00000000000E+00  0.74505805969E-08  0.10566000000E+00  0.10566000000E+00 0. -1.
     999900   -1    0    0    0    0 -0.00000000000E+00 -0.00000000000E+00 -0.74505805969E-08  0.93827000000E+00  0.93827000000E+00 0. -1.
     999902    2    1    2    0    0 -0.80468652409E-02  0.96272697636E-02  0.47780237527E-02  0.10305036872E+01  0.10304162186E+01 0.  0.
     999903    2    3    3    0    0 -0.92722855425E-01 -0.89681705386E-01  0.33358891725E-01  0.14041989238E+00  0.44323744428E-01 0.  0.
         14    1    1    2    0    0  0.80468652409E-02 -0.96272697636E-02 -0.47780237527E-02  0.13426312758E-01  0.00000000000E+00 0.  1.
     999901    1    3    3    0    0  0.84675990184E-01  0.99308975149E-01 -0.28580867973E-01  0.89008379486E+00  0.88000000000E+00 0. -1.
        -11    1    4    4    0    0 -0.32446082283E-01 -0.59189756127E-01  0.26513241080E-01  0.72521642007E-01  0.51100000000E-03 0.  1.
         11    1    4    4    0    0 -0.60276773143E-01 -0.30491949259E-01  0.68456506449E-02  0.67898250374E-01  0.51100000000E-03 0. -1.
</event>
<event>
 8    1  0.2824193E+004  0.1043930E+01  0.7957747E-01            NaN
         13   -1    0    0    0    0  0.00000000000E+00  0.00000000000E+00  0.74505805969E-08  0.10566000000E+00  0.10566000000E+00 0.  1.
     999900   -1    0    0    0    0 -0.00000000000E+00 -0.00000000000E+00 -0.74505805969E-08  0.93827000000E+00  0.93827000000E+00 0.  1.
     999902    2    1    2    0    0  0.14361626714E-01  0.45897205731E-02  0.18022720774E-02  0.10287454670E+01  0.10286333972E+01 0.  0.
     999903    2    3    3    0    0 -0.76146071857E-01  0.78100152984E-01 -0.72481230387E-01  0.13795173899E+00  0.43350840567E-01 0.  0.
         14    1    1    2    0    0 -0.14361626714E-01 -0.45897205731E-02 -0.18022720774E-02  0.15184532968E-01  0.00000000000E+00 0. -1.
     999901    1    3    3    0    0  0.90507698571E-01 -0.73510432410E-01  0.74283502464E-01  0.89079372804E+00  0.88000000000E+00 0. -1.
        -11    1    4    4    0    0 -0.71529125778E-01  0.73102532612E-01 -0.78439751329E-01  0.12889317988E+00  0.51100000000E-03 0. -1.
         11    1    4    4    0    0 -0.46169460792E-02  0.49976203717E-02  0.59585209429E-02  0.90585591186E-02  0.51100000000E-03 0.  1.
</event>
<event>
 8    1  0.2824193E+004  0.1043930E+01  0.7957747E-01            NaN
         13   -1    0    0    0    0  0.00000000000E+00  0.00000000000E+00  0.74505805969E-08  0.10566000000E+00  0.10566000000E+00 0.  1.
     999900   -1    0    0    0    0 -0.00000000000E+00 -0.00000000000E+00 -0.74505805969E-08  0.93827000000E+00  0.93827000000E+00 0. -1.
     999902    2    1    2    0    0  0.13846667309E-01  0.43944722431E-02  0.81055111840E-02  0.10272944689E+01  0.10271597661E+01 0.  0.
     999903    2    3    3    0    0  0.50545953923E-01 -0.90712658395E-01 -0.77996252730E-01  0.13723507897E+00  0.44343788843E-01 0.  0.
         14    1    1    2    0    0 -0.13846667309E-01 -0.43944722431E-02 -0.81055111840E-02  0.16635531053E-01  0.00000000000E+00 0. -1.
     999901    1    3    3    0    0 -0.36699286614E-01  0.95107130638E-01  0.86101763914E-01  0.89005938998E+00  0.88000000000E+00 0. -1.
        -11    1    4    4    0    0  0.85193281663E-02 -0.60624187462E-01 -0.42903163074E-01  0.74758367964E-01  0.51100000000E-03 0.  1.
         11    1    4    4    0    0  0.42026625757E-01 -0.30088470933E-01 -0.35093089656E-01  0.62476711006E-01  0.51100000000E-03 0. -1.
</event>
<event>
 8    1  0.2824193E+004  0.1043930E+01  0.7957747E-01            NaN
         13   -1    0    0    0    0  0.00000000000E+00  0.00000000000E+00  0.74505805969E-08  0.10566000000E+00  0.10566000000E+00 0. -1.
     999900   -1    0    0    0    0 -0.00000000000E+00 -0.00000000000E+00 -0.74505805969E-08  0.93827000000E+00  0.93827000000E+00 0.  1.
     999902    2    1    2    0    0  0.38894077759E-02 -0.18458725941E-02 -0.12786913011E-01  0.10304377844E+01  0.10303494492E+01 0.  0.
     999903    2    3    3    0    0 -0.19454395327E-01  0.96232610885E-01  0.87286903105E-01  0.13904612480E+00  0.45559109658E-01 0.  0.
         14    1    1    2    0    0 -0.38894077759E-02  0.18458725941E-02  0.12786913011E-01  0.13492215638E-01  0.00000000000E+00 0. -1.
     999901    1    3    3    0    0  0.23343803103E-01 -0.98078483479E-01 -0.10007381612E+00  0.89139165956E+00  0.88000000000E+00 0.  1.
        -11    1    4    4    0    0 -0.11601383383E-01  0.51785616981E-01  0.17402957246E-01  0.55852182270E-01  0.51100000000E-03 0. -1.
         11    1    4    4    0    0 -0.78530119442E-02  0.44446993904E-01  0.69883945859E-01  0.83193942529E-01  0.51100000000E-03 0.  1.
</event>
<event>
 8    1  0.2824193E+004  0.1043930E+01  0.7957747E-01            NaN
         13   -1    0    0    0    0  0.00000000000E+00  0.00000000000E+00  0.74505805969E-08  0.10566000000E+00  0.10566000000E+00 0. -1.
     999900   -1    0    0    0    0 -0.00000000000E+00 -0.00000000000E+00 -0.74505805969E-08  0.93827000000E+00  0.93827000000E+00 0. -1.
     999902    2    1    2    0    0 -0.17700307543E-02 -0.95950686262E-02 -0.96236414286E-02  0.10302255181E+01  0.10301343627E+01 0.  0.
     999903    2    3    3    0    0 -0.11524043422E+00  0.30981096206E-01 -0.59231561603E-01  0.14062847257E+00  0.45031138171E-01 0.  0.
         14    1    1    2    0    0  0.17700307543E-02  0.95950686262E-02  0.96236414286E-02  0.13704481937E-01  0.00000000000E+00 0. -1.
     999901    1    3    3    0    0  0.11347040346E+00 -0.40576164832E-01  0.49607920175E-01  0.88959704550E+00  0.88000000000E+00 0. -1.
        -11    1    4    4    0    0 -0.97970125848E-01  0.81258618003E-02 -0.40070593100E-01  0.10616067417E+00  0.51100000000E-03 0.  1.
         11    1    4    4    0    0 -0.17270308371E-01  0.22855234406E-01 -0.19160968503E-01  0.34467798391E-01  0.51100000000E-03 0. -1.
</event>
<event>
 8    1  0.2824193E+004  0.1043930E+01  0.7957747E-01            NaN
         13   -1    0    0    0    0  0.00000000000E+00  0.00000000000E+00  0.74505805969E-08  0.10566000000E+00  0.10566000000E+00 0.  1.
     999900   -1    0    0    0    0 -0.00000000000E+00 -0.00000000000E+00 -0.74505805969E-08  0.93827000000E+00  0.93827000000E+00 0.  1.
     999902    2    1    2    0    0 -0.23256658238E-02 -0.68951054002E-02  0.11828848684E-01  0.10300421326E+01  0.10299485046E+01 0.  0.
     999903    2    3    3    0    0  0.27808668252E-01  0.11756699840E+00 -0.50910468099E-01  0.13856295995E+00  0.44860862298E-01 0.  0.
         14    1    1    2    0    0  0.23256658238E-02  0.68951054002E-02 -0.11828848684E-01  0.13887867410E-01  0.00000000000E+00 0. -1.
     999901    1    3    3    0    0 -0.30134334075E-01 -0.12446210380E+00  0.62739316783E-01  0.89147917264E+00  0.88000000000E+00 0.  1.
        -11    1    4    4    0    0  0.53180568624E-02  0.46636139050E-01  0.24348186614E-02  0.47004262117E-01  0.51100000000E-03 0. -1.
         11    1    4    4    0    0  0.22490611389E-01  0.70930859353E-01 -0.53345286761E-01  0.91558697838E-01  0.51100000000E-03 0.  1.
</event>
<event>
 8    1  0.2824193E+004  0.1043930E+01  0.7957747E-01            NaN
         13   -1    0    0    0    0  0.00000000000E+00  0.00000000000E+00  0.74505805969E-08  0.10566000000E+00  0.10566000000E+00 0. -1.
     999900   -1    0    0    0    0 -0.00000000000E+00 -0.00000000000E+00 -0.74505805969E-08  0.93827000000E+00  0.93827000000E+00 0.  1.
     999902    2    1    2    0    0  0.12237683143E-01 -0.22306332265E-02 -0.12344909314E-01  0.10264047782E+01  0.10262551512E+01 0.  0.
     999903    2    3    3    0    0  0.84502257888E-02 -0.11197888491E+00 -0.66194204974E-01  0.13794612962E+00  0.45130753655E-01 0.  0.
         14    1    1    2    0    0 -0.12237683143E-01  0.22306332265E-02  0.12344909314E-01  0.17525221804E-01  0.00000000000E+00 0. -1.
     999901    1    3    3    0    0  0.37874573542E-02  0.10974825168E+00  0.53849295660E-01  0.88845864857E+00  0.88000000000E+00 0. -1.
        -11    1    4    4    0    0  0.20185916142E-01 -0.37229415088E-01 -0.38902318873E-01  0.57507843752E-01  0.51100000000E-03 0.  1.
         11    1    4    4    0    0 -0.11735690353E-01 -0.74749469818E-01 -0.27291886101E-01  0.80438285872E-01  0.51100000000E-03 0. -1.
</event>
<event>
 8    1  0.2824193E+004  0.1043930E+01  0.7957747E-01            NaN
         13   -1    0    0    0    0  0.00000000000E+00  0.00000000000E+00  0.74505805969E-08  0.10566000000E+00  0.10566000000E+00 0. -1.
     999900   -1    0    0    0    0 -0.00000000000E+00 -0.00000000000E+00 -0.74505805969E-08  0.93827000000E+00  0.93827000000E+00 0.  1.
     999902    2    1    2    0    0  0.98058984333E-02 -0.66496773083E-02 -0.52751326552E-02  0.10309607719E+01  0.10308791939E+01 0.  0.
     999903    2    3    3    0    0  0.10617355715E+00  0.40663985530E-01  0.70323629633E-01  0.14121896601E+00  0.45508235707E-01 0.  0.
         14    1    1    2    0    0 -0.98058984333E-02  0.66496773083E-02  0.52751326552E-02  0.12969228077E-01  0.00000000000E+00 0.  1.
     999901    1    3    3    0    0 -0.96367658719E-01 -0.47313662838E-01 -0.75598762289E-01  0.88974180592E+00  0.88000000000E+00 0. -1.
        -11    1    4    4    0    0  0.34936335524E-01  0.31495602835E-01  0.11618215074E-01  0.48453736495E-01  0.51100000000E-03 0.  1.
         11    1    4    4    0    0  0.71237221628E-01  0.91683826949E-02  0.58705414559E-01  0.92765229510E-01  0.51100000000E-03 0. -1.
</event>
<event>
 8    1  0.2824193E+004  0.1043930E+01  0.7957747E-01            NaN
         13   -1    0    0    0    0  0.00000000000E+00  0.00000000000E+00  0.74505805969E-08  0.10566000000E+00  0.10566000000E+00 0. -1.
     999900   -1    0    0    0    0 -0.00000000000E+00 -0.00000000000E+00 -0.74505805969E-08  0.93827000000E+00  0.93827000000E+00 0. -1.
     999902    2    1    2    0    0 -0.31314965922E-02  0.78541902869E-02 -0.11300233083E-01  0.10298165368E+01  0.10297198209E+01 0.  0.
     999903    2    3    3    0    0 -0.55582341951E-01 -0.11255692853E+00  0.40346780599E-01  0.13857170919E+00  0.42612169443E-01 0.  0.
         14    1    1    2    0    0  0.31314965922E-02 -0.78541902869E-02  0.11300233083E-01  0.14113463207E-01  0.00000000000E+00 0. -1.
     999901    1    3    3    0    0  0.52450845359E-01  0.12041111882E+00 -0.51647013681E-01  0.89124482761E+00  0.88000000000E+00 0. -1.
        -11    1    4    4    0    0  0.36183460844E-02 -0.30063524262E-01  0.15573624885E-01  0.34054468613E-01  0.51100000000E-03 0.  1.
         11    1    4    4    0    0 -0.59200688036E-01 -0.82493404270E-01  0.24773155713E-01  0.10451724057E+00  0.51100000000E-03 0. -1.
</event>
<event>
 8    1  0.2824193E+004  0.1043930E+01  0.7957747E-01            NaN
         13   -1    0    0    0    0  0.00000000000E+00  0.00000000000E+00  0.74505805969E-08  0.10566000000E+00  0.10566000000E+00 0.  1.
     999900   -1    0    0    0    0 -0.00000000000E+00 -0.00000000000E+00 -0.74505805969E-08  0.93827000000E+00  0.93827000000E+00 0.  1.
     999902    2    1    2    0    0  0.16280375296E-01 -0.13252080010E-01  0.18212420674E-02  0.10228590445E+01  0.10226419900E+01 0.  0.
     999903    2    3    3    0    0  0.11123352750E+00  0.60947815005E-01  0.70610026760E-02  0.13463093152E+00  0.44588072056E-01 0.  0.
         14    1    1    2    0    0 -0.16280375296E-01  0.13252080010E-01 -0.18212420674E-02  0.21070955532E-01  0.00000000000E+00 0. -1.
     999901    1    3    3    0    0 -0.94953152206E-01 -0.74199895016E-01 -0.52397606086E-02  0.88822811294E+00  0.88000000000E+00 0.  1.
        -11    1    4    4    0    0  0.11867026725E-01  0.26485939704E-01  0.48763291465E-02  0.29434181358E-01  0.51100000000E-03 0. -1.
         11    1    4    4    0    0  0.99366500776E-01  0.34461875301E-01  0.21846735296E-02  0.10519675016E+00  0.51100000000E-03 0.  1.
</event>
<event>
 8    1  0.2824193E+004  0.1043930E+01  0.7957747E-01            NaN
         13   -1    0    0    0    0  0.00000000000E+00  0.00000000000E+00  0.74505805969E-08  0.10566000000E+00  0.10566000000E+00 0. -1.
     999900   -1    0    0    0    0 -0.00000000000E+00 -0.00000000000E+00 -0.74505805969E-08  0.93827000000E+00  0.93827000000E+00 0.  1.
     999902    2    1    2    0    0 -0.80396272245E-02  0.58206003872E-02 -0.89138700358E-02  0.10305893826E+01  0.10305030341E+01 0.  0.
     999903    2    3    3    0    0  0.38648166103E-01 -0.13903278491E-04 -0.12817941738E+00  0.14129861894E+00  0.45184684769E-01 0.  0.
         14    1    1    2    0    0  0.80396272245E-02 -0.58206003872E-02  0.89138700358E-02  0.13340617444E-01  0.00000000000E+00 0. -1.
     999901    1    3    3    0    0 -0.46687793328E-01  0.58345036657E-02  0.11926554734E+00  0.88929076362E+00  0.88000000000E+00 0. -1.
        -11    1    4    4    0    0  0.39918744185E-01 -0.18986028462E-02 -0.54509353048E-01  0.67591726719E-01  0.51100000000E-03 0. -1.
         11    1    4    4    0    0 -0.12705780820E-02  0.18846995677E-02 -0.73670064328E-01  0.73706892216E-01  0.51100000000E-03 0.  1.
</event>
<event>
 7    1  0.2824193E+004  0.1043930E+01  0.7957747E-01            NaN
         13   -1    0    0    0    0  0.00000000000E+00  0.00000000000E+00  0.74505805969E-08  0.10566000000E+00  0.10566000000E+00 0. -1.
     999900   -1    0    0    0    0 -0.00000000000E+00 -0.00000000000E+00 -0.74505805969E-08  0.93827000000E+00  0.93827000000E+00 0. -1.
     999903    2    1    2    0    0 -0.14981311840E-01  0.10631337487E+00 -0.32925184713E-01  0.11958924926E+00  0.41116266458E-01 0.  0.
         14    1    1    2    0    0  0.35934006925E-01 -0.14111646625E-01  0.38672927490E-02  0.38798806391E-01  0.00000000000E+00 0. -1.
     999901    1    1    2    0    0 -0.20952695085E-01 -0.92201728250E-01  0.29057891964E-01  0.88554194435E+00  0.88000000000E+00 0.  1.
        -11    1    3    3    0    0 -0.91408299283E-02  0.24179152012E-01  0.87572183109E-02  0.27297182223E-01  0.51100000000E-03 0.  1.
         11    1    3    3    0    0 -0.58404819122E-02  0.82134222863E-01 -0.41682403024E-01  0.92292067033E-01  0.51100000000E-03 0. -1.
</event>
<event>
 8    1  0.2824193E+004  0.1043930E+01  0.7957747E-01            NaN
         13   -1    0    0    0    0  0.00000000000E+00  0.00000000000E+00  0.74505805969E-08  0.10566000000E+00  0.10566000000E+00 0.  1.
     999900   -1    0    0    0    0 -0.00000000000E+00 -0.00000000000E+00 -0.74505805969E-08  0.93827000000E+00  0.93827000000E+00 0.  1.
     999902    2    1    2    0    0 -0.14773298715E-01  0.26098258681E-02  0.14538954021E-01  0.10230387882E+01  0.10228254589E+01 0.  0.
     999903    2    3    3    0    0 -0.26741773233E-01 -0.55153562103E-01 -0.10838863527E+00  0.13253834151E+00  0.45401298055E-01 0.  0.
         14    1    1    2    0    0  0.14773298715E-01 -0.26098258681E-02 -0.14538954021E-01  0.20891211789E-01  0.00000000000E+00 0. -1.
     999901    1    3    3    0    0  0.11968474518E-01  0.57763387971E-01  0.12292758929E+00  0.89050044670E+00  0.88000000000E+00 0. -1.
        -11    1    4    4    0    0 -0.10467783186E-01 -0.57404549584E-01 -0.72513274745E-01  0.93076812005E-01  0.51100000000E-03 0.  1.
         11    1    4    4    0    0 -0.16273990047E-01  0.22509874817E-02 -0.35875360526E-01  0.39461529501E-01  0.51100000000E-03 0. -1.
</event>
<event>
 8    1  0.2824193E+004  0.1043930E+01  0.7957747E-01            NaN
         13   -1    0    0    0    0  0.00000000000E+00  0.00000000000E+00  0.74505805969E-08  0.10566000000E+00  0.10566000000E+00 0. -1.
     999900   -1    0    0    0    0 -0.00000000000E+00 -0.00000000000E+00 -0.74505805969E-08  0.93827000000E+00  0.93827000000E+00 0.  1.
     999902    2    1    2    0    0 -0.18092610880E-02  0.98080157487E-02  0.64556482346E-02  0.10320495121E+01  0.10319811284E+01 0.  0.
     999903    2    3    3    0    0  0.87906221397E-01 -0.61489268383E-01 -0.79123370156E-01  0.14050257620E+00  0.44407570611E-01 0.  0.
         14    1    1    2    0    0  0.18092610880E-02 -0.98080157487E-02 -0.64556482346E-02  0.11880487900E-01  0.00000000000E+00 0.  1.
     999901    1    3    3    0    0 -0.89715482485E-01  0.71297284132E-01  0.85579018391E-01  0.89154693590E+00  0.88000000000E+00 0. -1.
        -11    1    4    4    0    0  0.70831378684E-01 -0.46273434667E-01 -0.36536150115E-01  0.92160004060E-01  0.51100000000E-03 0. -1.
         11    1    4    4    0    0  0.17074842714E-01 -0.15215833716E-01 -0.42587220041E-01  0.48342572141E-01  0.51100000000E-03 0.  1.
</event>
<event>
 8    1  0.2824193E+004  0.1043930E+01  0.7957747E-01            NaN
         13   -1    0    0    0    0  0.00000000000E+00  0.00000000000E+00  0.74505805969E-08  0.10566000000E+00  0.10566000000E+00 0. -1.
     999900   -1    0    0    0    0 -0.00000000000E+00 -0.00000000000E+00 -0.74505805969E-08  0.93827000000E+00  0.93827000000E+00 0.  1.
     999902    2    1    2    0    0  0.12137470524E-02  0.94727491906E-02  0.99818069151E-02  0.10301154197E+01  0.10300227839E+01 0.  0.
     999903    2    3    3    0    0 -0.11684148821E+00  0.53112154876E-01 -0.34278228361E-01  0.14005902430E+00  0.44370023481E-01 0.  0.
         14    1    1    2    0    0 -0.12137470524E-02 -0.94727491906E-02 -0.99818069151E-02  0.13814580284E-01  0.00000000000E+00 0.  1.
     999901    1    3    3    0    0  0.11805523527E+00 -0.43639405685E-01  0.44260035277E-01  0.89005639542E+00  0.88000000000E+00 0. -1.
        -11    1    4    4    0    0 -0.48133756646E-01  0.33614358057E-02  0.80507646894E-03  0.48260408708E-01  0.51100000000E-03 0. -1.
         11    1    4    4    0    0 -0.68707731569E-01  0.49750719070E-01 -0.35083304830E-01  0.91798615590E-01  0.51100000000E-03 0.  1.
</event>
<event>
 8    1  0.2824193E+004  0.1043930E+01  0.7957747E-01            NaN
         13   -1    0    0    0    0  0.00000000000E+00  0.00000000000E+00  0.74505805969E-08  0.10566000000E+00  0.10566000000E+00 0.  1.
     999900   -1    0    0    0    0 -0.00000000000E+00 -0.00000000000E+00 -0.74505805969E-08  0.93827000000E+00  0.93827000000E+00 0. -1.
     999902    2    1    2    0    0 -0.75469077397E-03 -0.84025873676E-03  0.15435424657E-01  0.10284533102E+01  0.10283368530E+01 0.  0.
     999903    2    3    3    0    0 -0.45721905676E-01 -0.99243544703E-01 -0.70782050022E-01  0.13764541281E+00  0.44680949396E-01 0.  0.
         14    1    1    2    0    0  0.75469077397E-03  0.84025873676E-03 -0.15435424657E-01  0.15476689802E-01  0.00000000000E+00 0. -1.
     999901    1    3    3    0    0  0.44967214902E-01  0.98403285966E-01  0.86217474679E-01  0.89080789739E+00  0.88000000000E+00 0.  1.
        -11    1    4    4    0    0 -0.83132101092E-02 -0.10690580675E-01 -0.30575581727E-01  0.33444361205E-01  0.51100000000E-03 0. -1.
         11    1    4    4    0    0 -0.37408695567E-01 -0.88552964028E-01 -0.40206468296E-01  0.10420105161E+00  0.51100000000E-03 0.  1.
</event>
<event>
 8    1  0.2824193E+004  0.1043930E+01  0.7957747E-01            NaN
         13   -1    0    0    0    0  0.00000000000E+00  0.00000000000E+00  0.74505805969E-08  0.10566000000E+00  0.10566000000E+00 0. -1.
     999900   -1    0    0    0    0 -0.00000000000E+00 -0.00000000000E+00 -0.74505805969E-08  0.93827000000E+00  0.93827000000E+00 0.  1.
     999902    2    1    2    0    0  0.11323814788E-01 -0.75502536429E-02 -0.26727852626E-02  0.10300599282E+01  0.10299665416E+01 0.  0.
     999903    2    3    3    0    0 -0.77860879941E-01  0.10483202700E+00  0.75746896141E-02  0.13838246546E+00  0.45169240793E-01 0.  0.
         14    1    1    2    0    0 -0.11323814788E-01  0.75502536429E-02  0.26727852626E-02  0.13870071827E-01  0.00000000000E+00 0.  1.
     999901    1    3    3    0    0  0.89184694730E-01 -0.11238228064E+00 -0.10247474877E-01  0.89167746272E+00  0.88000000000E+00 0.  1.
        -11    1    4    4    0    0 -0.76581026155E-01  0.71971655719E-01  0.26602457556E-02  0.10512806867E+00  0.51100000000E-03 0.  1.
         11    1    4    4    0    0 -0.12798537859E-02  0.32860371276E-01  0.49144438586E-02  0.33254396786E-01  0.51100000000E-03 0. -1.
</event>
<event>
 8    1  0.2824193E+004  0.1043930E+01  0.7957747E-01            NaN
         13   -1    0    0    0    0  0.00000000000E+00  0.00000000000E+00  0.74505805969E-08  0.10566000000E+00  0.10566000000E+00 0.  1.
     999900   -1    0    0    0    0 -0.00000000000E+00 -0.00000000000E+00 -0.74505805969E-08  0.93827000000E+00  0.93827000000E+00 0. -1.
     999902    2    1    2    0    0 -0.28245099477E-03 -0.94400881589E-02 -0.10089473253E-01  0.10301099959E+01  0.10300172868E+01 0.  0.
     999903    2    3    3    0    0  0.49348878304E-01  0.25141196436E-01 -0.12245653066E+00  0.14090501970E+00  0.42322938554E-01 0.  0.
         14    1    1    2    0    0  0.28245099477E-03  0.94400881589E-02  0.10089473253E-01  0.13820004107E-01  0.00000000000E+00 0. -1.
     999901    1    3    3    0    0 -0.49631329299E-01 -0.34581284595E-01  0.11236705741E+00  0.88920497619E+00  0.88000000000E+00 0.  1.
        -11    1    4    4    0    0  0.20593397032E-02  0.15932736684E-01 -0.59470527098E-01  0.61604364233E-01  0.51100000000E-03 0. -1.
         11    1    4    4    0    0  0.47289538601E-01  0.92084597521E-02 -0.62986003562E-01  0.79300655469E-01  0.51100000000E-03 0.  1.
</event>
<event>
 8    1  0.2824193E+004  0.1043930E+01  0.7957747E-01            NaN
         13   -1    0    0    0    0  0.00000000000E+00  0.00000000000E+00  0.74505805969E-08  0.10566000000E+00  0.10566000000E+00 0.  1.
     999900   -1    0    0    0    0 -0.00000000000E+00 -0.00000000000E+00 -0.74505805969E-08  0.93827000000E+00  0.93827000000E+00 0. -1.
     999902    2    1    2    0    0  0.71030220512E-02  0.13266972925E-01 -0.20599319856E-02  0.10287408982E+01  0.10286287605E+01 0.  0.
     999903    2    3    3    0    0 -0.85001081171E-01 -0.76509106453E-01 -0.65144162880E-01  0.13715661705E+00  0.38592077846E-01 0.  0.
         14    1    1    2    0    0 -0.71030220512E-02 -0.13266972925E-01  0.20599319856E-02  0.15189101772E-01  0.00000000000E+00 0. -1.
     999901    1    3    3    0    0  0.92104103222E-01  0.89776079378E-01  0.63084230894E-01  0.89158428118E+00  0.88000000000E+00 0.  1.
        -11    1    4    4    0    0 -0.33255802441E-01 -0.24050553177E-01 -0.36954280570E-02  0.41210372646E-01  0.51100000000E-03 0. -1.
         11    1    4    4    0    0 -0.51745278730E-01 -0.52458553276E-01 -0.61448734823E-01  0.95946244403E-01  0.51100000000E-03 0.  1.
</event>
<event>
 8    1  0.2824193E+004  0.1043930E+01  0.7957747E-01            NaN
         13   -1    0    0    0    0  0.00000000000E+00  0.00000000000E+00  0.74505805969E-08  0.10566000000E+00  0.10566000000E+00 0. -1.
     999900   -1    0    0    0    0 -0.00000000000E+00 -0.00000000000E+00 -0.74505805969E-08  0.93827000000E+00  0.93827000000E+00 0.  1.
     999902    2    1    2    0    0  0.92653076084E-02  0.10058870223E-01 -0.34202948552E-02  0.10298330070E+01  0.10297365183E+01 0.  0.
     999903    2    3    3    0    0  0.15357706912E-01 -0.12956392788E+00  0.14936291537E-01  0.13861552099E+00  0.44367773031E-01 0.  0.
         14    1    1    2    0    0 -0.92653076084E-02 -0.10058870223E-01  0.34202948552E-02  0.14096993018E-01  0.00000000000E+00 0. -1.
     999901    1    3    3    0    0 -0.60923993038E-02  0.13962279811E+00 -0.18356586392E-01  0.89121748600E+00  0.88000000000E+00 0.  1.
        -11    1    4    4    0    0  0.21697989445E-01 -0.80792750039E-01  0.27122545210E-01  0.87944100339E-01  0.51100000000E-03 0.  1.
         11    1    4    4    0    0 -0.63402825332E-02 -0.48771177843E-01 -0.12186253674E-01  0.50671420647E-01  0.51100000000E-03 0. -1.
</event>
<event>
 8    1  0.2824193E+004  0.1043930E+01  0.7957747E-01            NaN
         13   -1    0    0    0    0  0.00000000000E+00  0.00000000000E+00  0.74505805969E-08  0.10566000000E+00  0.10566000000E+00 0.  1.
     999900   -1    0    0    0    0 -0.00000000000E+00 -0.00000000000E+00 -0.74505805969E-08  0.93827000000E+00  0.93827000000E+00 0.  1.
     999902    2    1    2    0    0  0.74933966058E-02  0.92611467692E-02 -0.73788365685E-02  0.10299168968E+01  0.10298215609E+01 0.  0.
     999903    2    3    3    0    0 -0.89225669200E-01  0.96646435966E-01 -0.11092896284E-01  0.14030767883E+00  0.47554587178E-01 0.  0.
         14    1    1    2    0    0 -0.74933966058E-02 -0.92611467692E-02  0.73788365685E-02  0.14013103199E-01  0.00000000000E+00 0. -1.
     999901    1    3    3    0    0  0.96719065805E-01 -0.87385289197E-01  0.37140597150E-02  0.88960921797E+00  0.88000000000E+00 0.  1.
        -11    1    4    4    0    0 -0.55906611348E-01  0.53551782869E-01  0.16629173640E-01  0.79184172521E-01  0.51100000000E-03 0. -1.
         11    1    4    4    0    0 -0.33319057852E-01  0.43094653097E-01 -0.27722069924E-01  0.61123506309E-01  0.51100000000E-03 0.  1.
</event>
<event>
 8    1  0.2824193E+004  0.1043930E+01  0.7957747E-01            NaN
         13   -1    0    0    0    0  0.00000000000E+00  0.00000000000E+00  0.74505805969E-08  0.10566000000E+00  0.10566000000E+00 0.  1.
     999900   -1    0    0    0    0 -0.00000000000E+00 -0.00000000000E+00 -0.74505805969E-08  0.93827000000E+00  0.93827000000E+00 0. -1.
     999902    2    1    2    0    0  0.44933095801E-02  0.11759526779E-01  0.81123718604E-02  0.10289537896E+01  0.10288447960E+01 0.  0.
     999903    2    3    3    0    0 -0.11269195768E+00 -0.56658082805E-01  0.34544663339E-01  0.13816087191E+00  0.44558692624E-01 0.  0.
         14    1    1    2    0    0 -0.44933095801E-02 -0.11759526779E-01 -0.81123718604E-02  0.14976210410E-01  0.00000000000E+00 0. -1.
     999901    1    3    3    0    0  0.11718526726E+00  0.68417609583E-01 -0.26432291478E-01  0.89079291768E+00  0.88000000000E+00 0.  1.
        -11    1    4    4    0    0 -0.55035584948E-01 -0.40004823113E-01 -0.16777402731E-02  0.68061570775E-01  0.51100000000E-03 0.  1.
         11    1    4    4    0    0 -0.57656372729E-01 -0.16653259691E-01  0.36222403612E-01  0.70099301131E-01  0.51100000000E-03 0. -1.
</event>
<event>
 8    1  0.2824193E+004  0.1043930E+01  0.7957747E-01            NaN
         13   -1    0    0    0    0  0.00000000000E+00  0.00000000000E+00  0.74505805969E-08  0.10566000000E+00  0.10566000000E+00 0. -1.
     999900   -1    0    0    0    0 -0.00000000000E+00 -0.00000000000E+00 -0.74505805969E-08  0.93827000000E+00  0.93827000000E+00 0.  1.
     999902    2    1    2    0    0  0.11333015664E-01  0.28023240898E-02  0.75958309394E-02  0.10300020816E+01  0.10299079090E+01 0.  0.
     999903    2    3    3    0    0 -0.84160321848E-01 -0.89926405687E-01 -0.44633412509E-01  0.13846100640E+00  0.44828457111E-01 0.  0.
         14    1    1    2    0    0 -0.11333015664E-01 -0.28023240898E-02 -0.75958309394E-02  0.13927918438E-01  0.00000000000E+00 0.  1.
     999901    1    3    3    0    0  0.95493337512E-01  0.92728729777E-01  0.52229243448E-01  0.89154107517E+00  0.88000000000E+00 0. -1.
        -11    1    4    4    0    0 -0.62548396023E-01 -0.62817128347E-01 -0.52332674971E-01  0.10294301069E+00  0.51100000000E-03 0.  1.
         11    1    4    4    0    0 -0.21611925825E-01 -0.27109277340E-01  0.76992624619E-02  0.35517995710E-01  0.51100000000E-03 0. -1.
</event>
<event>
 8    1  0.2824193E+004  0.1043930E+01  0.7957747E-01            NaN
         13   -1    0    0    0    0  0.00000000000E+00  0.00000000000E+00  0.74505805969E-08  0.10566000000E+00  0.10566000000E+00 0. -1.
     999900   -1    0    0    0    0 -0.00000000000E+00 -0.00000000000E+00 -0.74505805969E-08  0.93827000000E+00  0.93827000000E+00 0. -1.
     999902    2    1    2    0    0 -0.10409059088E-01  0.22529693849E-02  0.10040150533E-01  0.10292934360E+01  0.10291893647E+01 0.  0.
     999903    2    3    3    0    0  0.19373856459E-01  0.97795520198E-01 -0.85071240619E-01  0.13852883312E+00  0.44875511577E-01 0.  0.
         14    1    1    2    0    0  0.10409059088E-01 -0.22529693849E-02 -0.10040150533E-01  0.14636563971E-01  0.00000000000E+00 0.  1.
     999901    1    3    3    0    0 -0.29782915547E-01 -0.95542550813E-01  0.95111391153E-01  0.89076460291E+00  0.88000000000E+00 0.  1.
        -11    1    4    4    0    0 -0.13983653558E-01  0.21014276260E-01 -0.15068801757E-01  0.29401909478E-01  0.51100000000E-03 0. -1.
         11    1    4    4    0    0  0.33357510017E-01  0.76781243938E-01 -0.70002438862E-01  0.10912692364E+00  0.51100000000E-03 0.  1.
</event>
<event>
 8    1  0.2824193E+004  0.1043930E+01  0.7957747E-01            NaN
         13   -1    0    0    0    0  0.00000000000E+00  0.00000000000E+00  0.74505805969E-08  0.10566000000E+00  0.10566000000E+00 0. -1.
     999900   -1    0    0    0    0 -0.00000000000E+00 -0.00000000000E+00 -0.74505805969E-08  0.93827000000E+00  0.93827000000E+00 0. -1.
     999902    2    1    2    0    0  0.78240612808E-02  0.16569755285E-02  0.11137030227E-01  0.10302188751E+01  0.10301276308E+01 0.  0.
     999903    2    3    3    0    0 -0.12869450046E-01 -0.12243919426E+00 -0.47211342762E-01  0.13935827246E+00  0.45109180694E-01 0.  0.
         14    1    1    2    0    0 -0.78240612808E-02 -0.16569755285E-02 -0.11137030227E-01  0.13711124867E-01  0.00000000000E+00 0.  1.
     999901    1    3    3    0    0  0.20693511327E-01  0.12409616978E+00  0.58348372989E-01  0.89086060267E+00  0.88000000000E+00 0. -1.
        -11    1    4    4    0    0 -0.28878180650E-01 -0.93201286903E-01 -0.31749042225E-01  0.10260941478E+00  0.51100000000E-03 0. -1.
         11    1    4    4    0    0  0.16008730604E-01 -0.29237907353E-01 -0.15462300537E-01  0.36748857681E-01  0.51100000000E-03 0.  1.
</event>
<event>
 7    1  0.2824193E+004  0.1043930E+01  0.7957747E-01            NaN
         13   -1    0    0    0    0  0.00000000000E+00  0.00000000000E+00  0.74505805969E-08  0.10566000000E+00  0.10566000000E+00 0.  1.
     999900   -1    0    0    0    0 -0.00000000000E+00 -0.00000000000E+00 -0.74505805969E-08  0.93827000000E+00  0.93827000000E+00 0. -1.
     999903    2    1    2    0    0 -0.22154602462E-01 -0.37722362531E-02 -0.93554583152E-01  0.10608858249E+00  0.44690839430E-01 0.  0.
         14    1    1    2    0    0  0.40813937281E-01  0.28099175824E-01  0.22574285626E-01  0.54451258295E-01  0.00000000000E+00 0.  1.
     999901    1    1    2    0    0 -0.18659334820E-01 -0.24326939571E-01  0.70980297526E-01  0.88339015922E+00  0.88000000000E+00 0.  1.
        -11    1    3    3    0    0 -0.32879623710E-01 -0.13369504394E-01 -0.69847252543E-01  0.78349940088E-01  0.51100000000E-03 0.  1.
         11    1    3    3    0    0  0.10725021249E-01  0.95972681410E-02 -0.23707330609E-01  0.27738642400E-01  0.51100000000E-03 0. -1.
</event>
<event>
 8    1  0.2824193E+004  0.1043930E+01  0.7957747E-01            NaN
         13   -1    0    0    0    0  0.00000000000E+00  0.00000000000E+00  0.74505805969E-08  0.10566000000E+00  0.10566000000E+00 0. -1.
     999900   -1    0    0    0    0 -0.00000000000E+00 -0.00000000000E+00 -0.74505805969E-08  0.93827000000E+00  0.93827000000E+00 0.  1.
     999902    2    1    2    0    0 -0.40075490162E-02  0.28971223374E-02 -0.12808934178E-01  0.10301996482E+01  0.10301081460E+01 0.  0.
     999903    2    3    3    0    0 -0.92788889810E-01 -0.90510506824E-01 -0.30837543235E-01  0.14063113342E+00  0.44991462498E-01 0.  0.
         14    1    1    2    0    0  0.40075490162E-02 -0.28971223374E-02  0.12808934178E-01  0.13730351843E-01  0.00000000000E+00 0. -1.
     999901    1    3    3    0    0  0.88781340794E-01  0.93407629161E-01  0.18028609056E-01  0.88956851473E+00  0.88000000000E+00 0. -1.
        -11    1    4    4    0    0 -0.81150749189E-01 -0.57285460453E-01 -0.10290448754E-01  0.99866022900E-01  0.51100000000E-03 0. -1.
         11    1    4    4    0    0 -0.11638140621E-01 -0.33225046371E-01 -0.20547094481E-01  0.40765110524E-01  0.51100000000E-03 0.  1.
</event>
<event>
 8    1  0.2824193E+004  0.1043930E+01  0.7957747E-01            NaN
         13   -1    0    0    0    0  0.00000000000E+00  0.00000000000E+00  0.74505805969E-08  0.10566000000E+00  0.10566000000E+00 0. -1.
     999900   -1    0    0    0    0 -0.00000000000E+00 -0.00000000000E+00 -0.74505805969E-08  0.93827000000E+00  0.93827000000E+00 0. -1.
     999902    2    1    2    0    0 -0.60098478411E-02  0.88433204315E-02  0.82075288096E-02  0.10304509008E+01  0.10303627384E+01 0.  0.
     999903    2    3    3    0    0  0.55299776710E-01 -0.40376105884E-01 -0.11182351746E+00  0.13882941489E+00  0.45615919918E-01 0.  0.
         14    1    1    2    0    0  0.60098478411E-02 -0.88433204315E-02 -0.82075288096E-02  0.13479099246E-01  0.00000000000E+00 0. -1.
     999901    1    3    3    0    0 -0.61309624551E-01  0.49219426315E-01  0.12003104627E+00  0.89162148587E+00  0.88000000000E+00 0.  1.
        -11    1    4    4    0    0  0.14925853449E-01 -0.33678863662E-01 -0.30662004434E-01  0.47931895390E-01  0.51100000000E-03 0. -1.
         11    1    4    4    0    0  0.40373923260E-01 -0.66972422215E-02 -0.81161513028E-01  0.90897519497E-01  0.51100000000E-03 0.  1.
</event>
<event>
 8    1  0.2824193E+004  0.1043930E+01  0.7957747E-01            NaN
         13   -1    0    0    0    0  0.00000000000E+00  0.00000000000E+00  0.74505805969E-08  0.10566000000E+00  0.10566000000E+00 0. -1.
     999900   -1    0    0    0    0 -0.00000000000E+00 -0.00000000000E+00 -0.74505805969E-08  0.93827000000E+00  0.93827000000E+00 0.  1.
     999902    2    1    2    0    0 -0.55773402395E-02 -0.11306648985E-01  0.54757338007E-02  0.10301847937E+01  0.10300930921E+01 0.  0.
     999903    2    3    3    0    0 -0.38066625242E-01 -0.88033547901E-01 -0.92652043773E-01  0.14081893457E+00  0.45239336931E-01 0.  0.
         14    1    1    2    0    0  0.55773402395E-02  0.11306648985E-01 -0.54757338007E-02  0.13745206295E-01  0.00000000000E+00 0.  1.
     999901    1    3    3    0    0  0.32489285003E-01  0.76726898915E-01  0.98127777574E-01  0.88936585913E+00  0.88000000000E+00 0. -1.
        -11    1    4    4    0    0 -0.86294246802E-02 -0.43513547339E-01 -0.69916639777E-01  0.82803945624E-01  0.51100000000E-03 0. -1.
         11    1    4    4    0    0 -0.29437200562E-01 -0.44520000562E-01 -0.22735403996E-01  0.58014988950E-01  0.51100000000E-03 0.  1.
</event>
<event>
 8    1  0.2824193E+004  0.1043930E+01  0.7957747E-01            NaN
         13   -1    0    0    0    0  0.00000000000E+00  0.00000000000E+00  0.74505805969E-08  0.10566000000E+00  0.10566000000E+00 0.  1.
     999900   -1    0    0    0    0 -0.00000000000E+00 -0.00000000000E+00 -0.74505805969E-08  0.93827000000E+00  0.93827000000E+00 0. -1.
     999902    2    1    2    0    0  0.83326026791E-02  0.10048432607E-01  0.31452660799E-02  0.10305025667E+01  0.10304150834E+01 0.  0.
     999903    2    3    3    0    0  0.26695875307E-01  0.10839784318E+00  0.74224051774E-01  0.14198581950E+00  0.46776072029E-01 0.  0.
         14    1    1    2    0    0 -0.83326026791E-02 -0.10048432607E-01 -0.31452660799E-02  0.13427433261E-01  0.00000000000E+00 0. -1.
     999901    1    3    3    0    0 -0.18363272627E-01 -0.98349410571E-01 -0.71078785694E-01  0.88851674723E+00  0.88000000000E+00 0. -1.
        -11    1    4    4    0    0  0.26459376355E-01  0.26099075450E-01  0.12875661138E-01  0.39335786597E-01  0.51100000000E-03 0.  1.
         11    1    4    4    0    0  0.23649895205E-03  0.82298767728E-01  0.61348390636E-01  0.10265003291E+00  0.51100000000E-03 0. -1.
</event>
<event>
 8    1  0.2824193E+004  0.1043930E+01  0.7957747E-01            NaN
         13   -1    0    0    0    0  0.00000000000E+00  0.00000000000E+00  0.74505805969E-08  0.10566000000E+00  0.10566000000E+00 0. -1.
     999900   -1    0    0    0    0 -0.00000000000E+00 -0.00000000000E+00 -0.74505805969E-08  0.93827000000E+00  0.93827000000E+00 0. -1.
     999902    2    1    2    0    0 -0.43179052922E-02 -0.86191479151E-03 -0.21158450576E-01  0.10223182617E+01  0.10220898008E+01 0.  0.
     999903    2    3    3    0    0  0.51936772780E-01 -0.51826406670E-01  0.99029526483E-01  0.13091088113E+00  0.44129433348E-01 0.  0.
         14    1    1    2    0    0  0.43179052922E-02  0.86191479151E-03  0.21158450576E-01  0.21611738338E-01  0.00000000000E+00 0. -1.
     999901    1    3    3    0    0 -0.56254678072E-01  0.50964491879E-01 -0.12018797706E+00  0.89140738053E+00  0.88000000000E+00 0. -1.
        -11    1    4    4    0    0  0.18095696865E-01 -0.43472755102E-01  0.75044261100E-01  0.88595919354E-01  0.51100000000E-03 0.  1.
         11    1    4    4    0    0  0.33841075915E-01 -0.83536515685E-02  0.23985265383E-01  0.42314961776E-01  0.51100000000E-03 0. -1.
</event>
<event>
 8    1  0.2824193E+004  0.1043930E+01  0.7957747E-01            NaN
         13   -1    0    0    0    0  0.00000000000E+00  0.00000000000E+00  0.74505805969E-08  0.10566000000E+00  0.10566000000E+00 0.  1.
     999900   -1    0    0    0    0 -0.00000000000E+00 -0.00000000000E+00 -0.74505805969E-08  0.93827000000E+00  0.93827000000E+00 0. -1.
     999902    2    1    2    0    0 -0.10697314820E-01 -0.91257734237E-02 -0.28456763459E-02  0.10295839149E+01  0.10294839618E+01 0.  0.
     999903    2    3    3    0    0 -0.94986049169E-01  0.89562715828E-01  0.19494789206E-01  0.13978444023E+00  0.45997970843E-01 0.  0.
         14    1    1    2    0    0  0.10697314820E-01  0.91257734237E-02  0.28456763459E-02  0.14346085139E-01  0.00000000000E+00 0.  1.
     999901    1    3    3    0    0  0.84288734349E-01 -0.98688489251E-01 -0.22340465552E-01  0.88979947463E+00  0.88000000000E+00 0.  1.
        -11    1    4    4    0    0 -0.48828780151E-01  0.71365988637E-01  0.24602509367E-01  0.89904942541E-01  0.51100000000E-03 0. -1.
         11    1    4    4    0    0 -0.46157269018E-01  0.18196727190E-01 -0.51077201610E-02  0.49879497691E-01  0.51100000000E-03 0.  1.
</event>
<event>
 8    1  0.2824193E+004  0.1043930E+01  0.7957747E-01            NaN
         13   -1    0    0    0    0  0.00000000000E+00  0.00000000000E+00  0.74505805969E-08  0.10566000000E+00  0.10566000000E+00 0.  1.
     999900   -1    0    0    0    0 -0.00000000000E+00 -0.00000000000E+00 -0.74505805969E-08  0.93827000000E+00  0.93827000000E+00 0. -1.
     999902    2    1    2    0    0 -0.11078267767E-01 -0.73020473201E-02  0.63551867896E-03  0.10306464841E+01  0.10305608780E+01 0.  0.
     999903    2    3    3    0    0  0.83929540303E-01 -0.92860010159E-01  0.44947217363E-01  0.14030375497E+00  0.44696108196E-01 0.  0.
         14    1    1    2    0    0  0.11078267767E-01  0.73020473201E-02 -0.63551867896E-03  0.13283515942E-01  0.00000000000E+00 0. -1.
     999901    1    3    3    0    0 -0.95007808070E-01  0.85557962839E-01 -0.44311698684E-01  0.89034272909E+00  0.88000000000E+00 0. -1.
        -11    1    4    4    0    0  0.78066285288E-01 -0.63842907684E-01  0.22973280855E-01  0.10343256022E+00  0.51100000000E-03 0. -1.
         11    1    4    4    0    0  0.58632550157E-02 -0.29017102475E-01  0.21973936508E-01  0.36871194747E-01  0.51100000000E-03 0.  1.
</event>
<event>
 8    1  0.2824193E+004  0.1043930E+01  0.7957747E-01            NaN
         13   -1    0    0    0    0  0.00000000000E+00  0.00000000000E+00  0.74505805969E-08  0.10566000000E+00  0.10566000000E+00 0.  1.
     999900   -1    0    0    0    0 -0.00000000000E+00 -0.00000000000E+00 -0.74505805969E-08  0.93827000000E+00  0.93827000000E+00 0.  1.
     999902    2    1    2    0    0  0.85697014725E-02 -0.74256841521E-02  0.77844773633E-02  0.10301757768E+01  0.10300839541E+01 0.  0.
     999903    2    3    3    0    0 -0.34800997485E-01 -0.90472920357E-01 -0.90726610070E-01  0.13973639349E+00  0.43571586472E-01 0.  0.
         14    1    1    2    0    0 -0.85697014725E-02  0.74256841521E-02 -0.77844773633E-02  0.13754223216E-01  0.00000000000E+00 0.  1.
     999901    1    3    3    0    0  0.43370698957E-01  0.83047236205E-01  0.98511087433E-01  0.89043938329E+00  0.88000000000E+00 0. -1.
        -11    1    4    4    0    0 -0.34945640806E-01 -0.30861335240E-01 -0.41695148611E-01  0.62548911763E-01  0.51100000000E-03 0.  1.
         11    1    4    4    0    0  0.14464332119E-03 -0.59611585117E-01 -0.49031461459E-01  0.77187481729E-01  0.51100000000E-03 0. -1.
</event>
<event>
 8    1  0.2824193E+004  0.1043930E+01  0.7957747E-01            NaN
         13   -1    0    0    0    0  0.00000000000E+00  0.00000000000E+00  0.74505805969E-08  0.10566000000E+00  0.10566000000E+00 0.  1.
     999900   -1    0    0    0    0 -0.00000000000E+00 -0.00000000000E+00 -0.74505805969E-08  0.93827000000E+00  0.93827000000E+00 0.  1.
     999902    2    1    2    0    0 -0.10207750683E-01 -0.71009689120E-02 -0.49193054561E-02  0.10305575844E+01  0.10304708211E+01 0.  0.
     999903    2    3    3    0    0  0.13023931342E+00 -0.40096458179E-02 -0.85947423777E-02  0.13940751680E+00  0.48808094885E-01 0.  0.
         14    1    1    2    0    0  0.10207750683E-01  0.71009689120E-02  0.49193054561E-02  0.13372415625E-01  0.00000000000E+00 0.  1.
     999901    1    3    3    0    0 -0.14044706410E+00 -0.30913230941E-02  0.36754369215E-02  0.89115006757E+00  0.88000000000E+00 0. -1.
        -11    1    4    4    0    0  0.73563081393E-01  0.19820910378E-01  0.53002119315E-02  0.76372434816E-01  0.51100000000E-03 0.  1.
         11    1    4    4    0    0  0.56676232024E-01 -0.23830556196E-01 -0.13894954309E-01  0.63035081989E-01  0.51100000000E-03 0. -1.
</event>
<event>
 8    1  0.2824193E+004  0.1043930E+01  0.7957747E-01            NaN
         13   -1    0    0    0    0  0.00000000000E+00  0.00000000000E+00  0.74505805969E-08  0.10566000000E+00  0.10566000000E+00 0.  1.
     999900   -1    0    0    0    0 -0.00000000000E+00 -0.00000000000E+00 -0.74505805969E-08  0.93827000000E+00  0.93827000000E+00 0.  1.
     999902    2    1    2    0    0 -0.39557909255E-02  0.82582749457E-02  0.10933464502E-01  0.10296685824E+01  0.10295698138E+01 0.  0.
     999903    2    3    3    0    0  0.60412744469E-01  0.11309319872E+00 -0.36196366880E-01  0.13986248518E+00  0.42562501020E-01 0.  0.
         14    1    1    2    0    0  0.39557909255E-02 -0.82582749457E-02 -0.10933464502E-01  0.14261417634E-01  0.00000000000E+00 0. -1.
     999901    1    3    3    0    0 -0.64368535394E-01 -0.10483492377E+00  0.47129831382E-01  0.88980609719E+00  0.88000000000E+00 0. -1.
        -11    1    4    4    0    0  0.16131273471E-01  0.29918915870E-01  0.92734629018E-02  0.35236596683E-01  0.51100000000E-03 0. -1.
         11    1    4    4    0    0  0.44281470998E-01  0.83174282850E-01 -0.45469829782E-01  0.10462588849E+00  0.51100000000E-03 0.  1.
</event>
<event>
 8    1  0.2824193E+004  0.1043930E+01  0.7957747E-01            NaN
         13   -1    0    0    0    0  0.00000000000E+00  0.00000000000E+00  0.74505805969E-08  0.10566000000E+00  0.10566000000E+00 0. -1.
     999900   -1    0    0    0    0 -0.00000000000E+00 -0.00000000000E+00 -0.74505805969E-08  0.93827000000E+00  0.93827000000E+00 0. -1.
     999902    2    1    2    0    0 -0.75961786103E-02  0.10676877557E-01  0.38016733085E-02  0.10302863068E+01  0.10301959637E+01 0.  0.
     999903    2    3    3    0    0  0.11082548549E+00 -0.14961463374E-01 -0.70657489729E-01  0.13886879408E+00  0.42260235355E-01 0.  0.
         14    1    1    2    0    0  0.75961786103E-02 -0.10676877557E-01 -0.38016733085E-02  0.13643693187E-01  0.00000000000E+00 0.  1.
     999901    1    3    3    0    0 -0.11842166410E+00  0.25638340931E-01  0.74459163038E-01  0.89141751274E+00  0.88000000000E+00 0.  1.
        -11    1    4    4    0    0  0.10879616251E+00 -0.22959857299E-01 -0.67078830154E-01  0.12985988834E+00  0.51100000000E-03 0.  1.
         11    1    4    4    0    0  0.20293229789E-02  0.79983939247E-02 -0.35786595749E-02  0.90089057316E-02  0.51100000000E-03 0.  1.
</event>
<event>
 8    1  0.2824193E+004  0.1043930E+01  0.7957747E-01            NaN
         13   -1    0    0    0    0  0.00000000000E+00  0.00000000000E+00  0.74505805969E-08  0.10566000000E+00  0.10566000000E+00 0. -1.
     999900   -1    0    0    0    0 -0.00000000000E+00 -0.00000000000E+00 -0.74505805969E-08  0.93827000000E+00  0.93827000000E+00 0. -1.
     999902    2    1    2    0    0  0.46264538857E-02 -0.18562651146E-03 -0.12889463895E-01  0.10302341316E+01  0.10301430915E+01 0.  0.
     999903    2    3    3    0    0  0.34806197555E-01 -0.10691668483E+00  0.70092594530E-01  0.13939836793E+00  0.43316097374E-01 0.  0.
         14    1    1    2    0    0 -0.46264538857E-02  0.18562651146E-03  0.12889463895E-01  0.13695868438E-01  0.00000000000E+00 0. -1.
     999901    1    3    3    0    0 -0.30179743669E-01  0.10673105832E+00 -0.82982058425E-01  0.89083576363E+00  0.88000000000E+00 0. -1.
        -11    1    4    4    0    0 -0.26860616050E-02 -0.60928539135E-01  0.39205487492E-01  0.72504021810E-01  0.51100000000E-03 0. -1.
         11    1    4    4    0    0  0.37492259160E-01 -0.45988145695E-01  0.30887107037E-01  0.66894346125E-01  0.51100000000E-03 0.  1.
</event>
<event>
 8    1  0.2824193E+004  0.1043930E+01  0.7957747E-01            NaN
         13   -1    0    0    0    0  0.00000000000E+00  0.00000000000E+00  0.74505805969E-08  0.10566000000E+00  0.10566000000E+00 0.  1.
     999900   -1    0    0    0    0 -0.00000000000E+00 -0.00000000000E+00 -0.74505805969E-08  0.93827000000E+00  0.93827000000E+00 0.  1.
     999902    2    1    2    0    0 -0.39396842677E-02 -0.96146529353E-03  0.11960645488E-01  0.10313005674E+01  0.10312232337E+01 0.  0.
     999903    2    3    3    0    0 -0.20772225421E-01  0.45313236505E-01 -0.12302451554E+00  0.13964722883E+00  0.43376748882E-01 0.  0.
         14    1    1    2    0    0  0.39396842677E-02  0.96146529353E-03 -0.11960645488E-01  0.12629432613E-01  0.00000000000E+00 0. -1.
     999901    1    3    3    0    0  0.16832541154E-01 -0.46274701799E-01  0.13498516103E+00  0.89165333856E+00  0.88000000000E+00 0. -1.
        -11    1    4    4    0    0  0.84051168952E-02  0.20813865185E-01 -0.75311458607E-01  0.78587148393E-01  0.51100000000E-03 0.  1.
         11    1    4    4    0    0 -0.29177342317E-01  0.24499371320E-01 -0.47713056933E-01  0.61060080434E-01  0.51100000000E-03 0. -1.
</event>
<event>
 8    1  0.2824193E+004  0.1043930E+01  0.7957747E-01            NaN
         13   -1    0    0    0    0  0.00000000000E+00  0.00000000000E+00  0.74505805969E-08  0.10566000000E+00  0.10566000000E+00 0. -1.
     999900   -1    0    0    0    0 -0.00000000000E+00 -0.00000000000E+00 -0.74505805969E-08  0.93827000000E+00  0.93827000000E+00 0. -1.
     999902    2    1    2    0    0  0.48791161525E-02  0.33659489168E-02 -0.11407535895E-01  0.10310743685E+01  0.10309942221E+01 0.  0.
     999903    2    3    3    0    0 -0.13047502461E+00 -0.24292670279E-01 -0.56416581819E-02  0.14027754093E+00  0.45078756691E-01 0.  0.
         14    1    1    2    0    0 -0.48791161525E-02 -0.33659489168E-02  0.11407535895E-01  0.12855631518E-01  0.00000000000E+00 0. -1.
     999901    1    3    3    0    0  0.13535414076E+00  0.27658619196E-01 -0.57658777127E-02  0.89079682756E+00  0.88000000000E+00 0.  1.
        -11    1    4    4    0    0 -0.50161272568E-01  0.87591492227E-02 -0.14578591727E-01  0.52968598419E-01  0.51100000000E-03 0.  1.
         11    1    4    4    0    0 -0.80313752043E-01 -0.33051819502E-01  0.89369335446E-02  0.87308942507E-01  0.51100000000E-03 0. -1.
</event>
<event>
 8    1  0.2824193E+004  0.1043930E+01  0.7957747E-01            NaN
         13   -1    0    0    0    0  0.00000000000E+00  0.00000000000E+00  0.74505805969E-08  0.10566000000E+00  0.10566000000E+00 0. -1.
     999900   -1    0    0    0    0 -0.00000000000E+00 -0.00000000000E+00 -0.74505805969E-08  0.93827000000E+00  0.93827000000E+00 0. -1.
     999902    2    1    2    0    0  0.14171746127E-01  0.20679016994E-02 -0.36834437867E-02  0.10291420872E+01  0.10290358368E+01 0.  0.
     999903    2    3    3    0    0 -0.12299084740E-01 -0.84367342297E-01  0.99164421016E-01  0.13855270959E+00  0.45761938402E-01 0.  0.
         14    1    1    2    0    0 -0.14171746127E-01 -0.20679016994E-02  0.36834437867E-02  0.14787912762E-01  0.00000000000E+00 0. -1.
     999901    1    3    3    0    0  0.26470830868E-01  0.86435243997E-01 -0.10284786480E+00  0.89058937765E+00  0.88000000000E+00 0. -1.
        -11    1    4    4    0    0 -0.18455717913E-02 -0.46100522406E-01  0.84463031713E-01  0.96244112279E-01  0.51100000000E-03 0. -1.
         11    1    4    4    0    0 -0.10453512949E-01 -0.38266819892E-01  0.14701389304E-01  0.42308597307E-01  0.51100000000E-03 0.  1.
</event>
<event>
 8    1  0.2824193E+004  0.1043930E+01  0.7957747E-01            NaN
         13   -1    0    0    0    0  0.00000000000E+00  0.00000000000E+00  0.74505805969E-08  0.10566000000E+00  0.10566000000E+00 0.  1.
     999900   -1    0    0    0    0 -0.00000000000E+00 -0.00000000000E+00 -0.74505805969E-08  0.93827000000E+00  0.93827000000E+00 0.  1.
     999902    2    1    2    0    0  0.12916694291E-01  0.26740361514E-02  0.47046182343E-02  0.10299255402E+01  0.10298303227E+01 0.  0.
     999903    2    3    3    0    0 -0.11067250449E+00  0.28498830716E-03 -0.72513633435E-01  0.13793750444E+00  0.38987736909E-01 0.  0.
         14    1    1    2    0    0 -0.12916694291E-01 -0.26740361514E-02 -0.47046182343E-02  0.14004459771E-01  0.00000000000E+00 0. -1.
     999901    1    3    3    0    0  0.12358919878E+00  0.23890478442E-02  0.77218251669E-01  0.89198803579E+00  0.88000000000E+00 0.  1.
        -11    1    4    4    0    0 -0.31482137341E-01  0.12115029906E-01 -0.37800474372E-01  0.50665924494E-01  0.51100000000E-03 0.  1.
         11    1    4    4    0    0 -0.79190367144E-01 -0.11830041598E-01 -0.34713159063E-01  0.87271579943E-01  0.51100000000E-03 0. -1.
</event>
<event>
 8    1  0.2824193E+004  0.1043930E+01  0.7957747E-01            NaN
         13   -1    0    0    0    0  0.00000000000E+00  0.00000000000E+00  0.74505805969E-08  0.10566000000E+00  0.10566000000E+00 0. -1.
     999900   -1    0    0    0    0 -0.00000000000E+00 -0.00000000000E+00 -0.74505805969E-08  0.93827000000E+00  0.93827000000E+00 0. -1.
     999902    2    1    2    0    0 -0.87528921573E-02  0.17991434258E-02 -0.11165019644E-01  0.10296293811E+01  0.10295300650E+01 0.  0.
     999903    2    3    3    0    0 -0.81720486551E-01 -0.47924741467E-02  0.10333463666E+00  0.13919247115E+00  0.44668682097E-01 0.  0.
         14    1    1    2    0    0  0.87528921573E-02 -0.17991434258E-02  0.11165019644E-01  0.14300618932E-01  0.00000000000E+00 0.  1.
     999901    1    3    3    0    0  0.72967594394E-01  0.65916175725E-02 -0.11449965630E+00  0.89043690992E+00  0.88000000000E+00 0. -1.
        -11    1    4    4    0    0 -0.55827072691E-01 -0.23140128400E-01  0.77435160334E-01  0.98227250621E-01  0.51100000000E-03 0.  1.
         11    1    4    4    0    0 -0.25893413860E-01  0.18347654253E-01  0.25899476326E-01  0.40965220528E-01  0.51100000000E-03 0. -1.
</event>
<event>
 7    1  0.2824193E+004  0.1043930E+01  0.7957747E-01            NaN
         13   -1    0    0    0    0  0.00000000000E+00  0.00000000000E+00  0.74505805969E-08  0.10566000000E+00  0.10566000000E+00 0. -1.
     999900   -1    0    0    0    0 -0.00000000000E+00 -0.00000000000E+00 -0.74505805969E-08  0.93827000000E+00  0.93827000000E+00 0. -1.
     999903    2    1    2    0    0 -0.46625310546E-01  0.58810958496E-01 -0.73241528576E-02  0.87770881902E-01  0.44915877728E-01 0.  0.
         14    1    1    2    0    0  0.22056590994E-02  0.52261666309E-01 -0.41430808127E-01  0.66728244091E-01  0.00000000000E+00 0.  1.
     999901    1    1    2    0    0  0.44419651446E-01 -0.11107262480E+00  0.48754960985E-01  0.88943087401E+00  0.88000000000E+00 0.  1.
        -11    1    3    3    0    0 -0.16415287411E-01  0.12736328640E-01  0.17660130426E-01  0.27273009656E-01  0.51100000000E-03 0.  1.
         11    1    3    3    0    0 -0.30210023135E-01  0.46074629856E-01 -0.24984283284E-01  0.60497872247E-01  0.51100000000E-03 0. -1.
</event>
<event>
 8    1  0.2824193E+004  0.1043930E+01  0.7957747E-01            NaN
         13   -1    0    0    0    0  0.00000000000E+00  0.00000000000E+00  0.74505805969E-08  0.10566000000E+00  0.10566000000E+00 0.  1.
     999900   -1    0    0    0    0 -0.00000000000E+00 -0.00000000000E+00 -0.74505805969E-08  0.93827000000E+00  0.93827000000E+00 0.  1.
     999902    2    1    2    0    0 -0.10745562471E-01  0.54099248764E-02 -0.70453843010E-02  0.10299882698E+01  0.10298939092E+01 0.  0.
     999903    2    3    3    0    0  0.13070766087E+00 -0.90551509574E-02 -0.50003578169E-02  0.13857229794E+00  0.44841831040E-01 0.  0.
         14    1    1    2    0    0  0.10745562471E-01 -0.54099248764E-02  0.70453843010E-02  0.13941730163E-01  0.00000000000E+00 0.  1.
     999901    1    3    3    0    0 -0.14145322334E+00  0.14465075834E-01 -0.20450264841E-02  0.89141597189E+00  0.88000000000E+00 0. -1.
        -11    1    4    4    0    0  0.10911664219E+00 -0.24587379190E-01 -0.29796333851E-02  0.11189334276E+00  0.51100000000E-03 0.  1.
         11    1    4    4    0    0  0.21591018676E-01  0.15532228233E-01 -0.20207244318E-02  0.26678955182E-01  0.51100000000E-03 0. -1.
</event>
<event>
 8    1  0.2824193E+004  0.1043930E+01  0.7957747E-01            NaN
         13   -1    0    0    0    0  0.00000000000E+00  0.00000000000E+00  0.74505805969E-08  0.10566000000E+00  0.10566000000E+00 0.  1.
     999900   -1    0    0    0    0 -0.00000000000E+00 -0.00000000000E+00 -0.74505805969E-08  0.93827000000E+00  0.93827000000E+00 0. -1.
     999902    2    1    2    0    0 -0.91983307416E-02  0.92510334865E-02 -0.51830451025E-02  0.10298923768E+01  0.10297967046E+01 0.  0.
     999903    2    3    3    0    0  0.25195817658E-01 -0.51202057119E-01 -0.11930262152E+00  0.13980203793E+00  0.45332266938E-01 0.  0.
         14    1    1    2    0    0  0.91983307416E-02 -0.92510334865E-02  0.51830451025E-02  0.14037623215E-01  0.00000000000E+00 0.  1.
     999901    1    3    3    0    0 -0.34394148400E-01  0.60453090606E-01  0.11411957642E+00  0.89009033886E+00  0.88000000000E+00 0.  1.
        -11    1    4    4    0    0 -0.12048466935E-01 -0.67933102146E-02 -0.14541908531E-01  0.20075926974E-01  0.51100000000E-03 0.  1.
         11    1    4    4    0    0  0.37244284593E-01 -0.44408746905E-01 -0.10476071299E+00  0.11972611095E+00  0.51100000000E-03 0. -1.
</event>
<event>
 8    1  0.2824193E+004  0.1043930E+01  0.7957747E-01            NaN
         13   -1    0    0    0    0  0.00000000000E+00  0.00000000000E+00  0.74505805969E-08  0.10566000000E+00  0.10566000000E+00 0.  1.
     999900   -1    0    0    0    0 -0.00000000000E+00 -0.00000000000E+00 -0.74505805969E-08  0.93827000000E+00  0.93827000000E+00 0. -1.
     999902    2    1    2    0    0  0.82810321899E-02 -0.96396554514E-02  0.55147313399E-02  0.10300768158E+01  0.10299836580E+01 0.  0.
     999903    2    3    3    0    0 -0.81922682380E-01  0.72287525794E-01 -0.72554293420E-01  0.13825646067E+00  0.43748270260E-01 0.  0.
         14    1    1    2    0    0 -0.82810321899E-02  0.96396554514E-02 -0.55147313399E-02  0.13853184223E-01  0.00000000000E+00 0. -1.
     999901    1    3    3    0    0  0.90203714570E-01 -0.81927181245E-01  0.78069024760E-01  0.89182035510E+00  0.88000000000E+00 0.  1.
        -11    1    4    4    0    0 -0.29093410522E-01  0.54211913344E-01 -0.32910989893E-01  0.69776446319E-01  0.51100000000E-03 0.  1.
         11    1    4    4    0    0 -0.52829271859E-01  0.18075612450E-01 -0.39643303528E-01  0.68480014356E-01  0.51100000000E-03 0. -1.
</event>
<event>
 8    1  0.2824193E+004  0.1043930E+01  0.7957747E-01            NaN
         13   -1    0    0    0    0  0.00000000000E+00  0.00000000000E+00  0.74505805969E-08  0.10566000000E+00  0.10566000000E+00 0.  1.
     999900   -1    0    0    0    0 -0.00000000000E+00 -0.00000000000E+00 -0.74505805969E-08  0.93827000000E+00  0.93827000000E+00 0. -1.
     999902    2    1    2    0    0  0.12877277385E-01  0.58197154179E-02  0.29937390272E-03  0.10297955391E+01  0.10296985332E+01 0.  0.
     999903    2    3    3    0    0 -0.79337997812E-01  0.10146267021E+00  0.27770994439E-01  0.13939904218E+00  0.45515640017E-01 0.  0.
         14    1    1    2    0    0 -0.12877277385E-01 -0.58197154179E-02 -0.29937390272E-03  0.14134460907E-01  0.00000000000E+00 0. -1.
     999901    1    3    3    0    0  0.92215275197E-01 -0.95642954789E-01 -0.27471620536E-01  0.89039649691E+00  0.88000000000E+00 0.  1.
        -11    1    4    4    0    0 -0.59206748573E-01  0.50843857046E-01  0.32870703950E-01  0.84683417356E-01  0.51100000000E-03 0. -1.
         11    1    4    4    0    0 -0.20131249240E-01  0.50618813161E-01 -0.50997095115E-02  0.54715624824E-01  0.51100000000E-03 0.  1.
</event>
<event>
 8    1  0.2824193E+004  0.1043930E+01  0.7957747E-01            NaN
         13   -1    0    0    0    0  0.00000000000E+00  0.00000000000E+00  0.74505805969E-08  0.10566000000E+00  0.10566000000E+00 0. -1.
     999900   -1    0    0    0    0 -0.00000000000E+00 -0.00000000000E+00 -0.74505805969E-08  0.93827000000E+00  0.93827000000E+00 0.  1.
     999902    2    1    2    0    0  0.87578753846E-02 -0.64154094934E-02  0.97740183714E-02  0.10293221495E+01  0.10292184891E+01 0.  0.
     999903    2    3    3    0    0  0.18201358573E-01  0.12978944400E+00 -0.56502079678E-02  0.13866012146E+00  0.44923437140E-01 0.  0.
         14    1    1    2    0    0 -0.87578753846E-02  0.64154094934E-02 -0.97740183714E-02  0.14607850470E-01  0.00000000000E+00 0.  1.
     999901    1    3    3    0    0 -0.94434831882E-02 -0.13620485350E+00  0.15424226339E-01  0.89066202807E+00  0.88000000000E+00 0. -1.
        -11    1    4    4    0    0  0.22367764963E-01  0.61079791989E-01 -0.20571150550E-01  0.68223832015E-01  0.51100000000E-03 0.  1.
         11    1    4    4    0    0 -0.41664063901E-02  0.68709652013E-01  0.14920942582E-01  0.70436289443E-01  0.51100000000E-03 0. -1.
</event>
<event>
 8    1  0.2824193E+004  0.1043930E+01  0.7957747E-01            NaN
         13   -1    0    0    0    0  0.00000000000E+00  0.00000000000E+00  0.74505805969E-08  0.10566000000E+00  0.10566000000E+00 0.  1.
     999900   -1    0    0    0    0 -0.00000000000E+00 -0.00000000000E+00 -0.74505805969E-08  0.93827000000E+00  0.93827000000E+00 0.  1.
     999902    2    1    2    0    0  0.94029573366E-02 -0.33367667249E-02 -0.90529594781E-02  0.10304575951E+01  0.10303695209E+01 0.  0.
     999903    2    3    3    0    0  0.10762800073E+00 -0.30283913558E-01  0.71854041890E-01  0.14089576433E+00  0.46772974127E-01 0.  0.
         14    1    1    2    0    0 -0.94029573366E-02  0.33367667249E-02  0.90529594781E-02  0.13472404914E-01  0.00000000000E+00 0.  1.
     999901    1    3    3    0    0 -0.98225043391E-01  0.26947146833E-01 -0.80907001368E-01  0.88956183076E+00  0.88000000000E+00 0. -1.
        -11    1    4    4    0    0  0.40814888735E-01  0.62715511244E-02  0.42538517319E-01  0.59287216772E-01  0.51100000000E-03 0. -1.
         11    1    4    4    0    0  0.66813111993E-01 -0.36555464682E-01  0.29315524571E-01  0.81608547556E-01  0.51100000000E-03 0.  1.
</event>
<event>
 8    1  0.2824193E+004  0.1043930E+01  0.7957747E-01            NaN
         13   -1    0    0    0    0  0.00000000000E+00  0.00000000000E+00  0.74505805969E-08  0.10566000000E+00  0.10566000000E+00 0. -1.
     999900   -1    0    0    0    0 -0.00000000000E+00 -0.00000000000E+00 -0.74505805969E-08  0.93827000000E+00  0.93827000000E+00 0. -1.
     999902    2    1    2    0    0 -0.77538234659E-02 -0.24218677657E-03  0.12181965768E-01  0.10294876760E+01  0.10293863678E+01 0.  0.
     999903    2    3    3    0    0 -0.23276659484E-02  0.44310853474E-02  0.13372236882E+00  0.14110524019E+00  0.44765660278E-01 0.  0.
         14    1    1    2    0    0  0.77538234659E-02  0.24218677657E-03 -0.12181965768E-01  0.14442324008E-01  0.00000000000E+00 0.  1.
     999901    1    3    3    0    0 -0.54261575175E-02 -0.46732721240E-02 -0.12154040306E+00  0.88838243580E+00  0.88000000000E+00 0. -1.
        -11    1    4    4    0    0 -0.19962027735E-01  0.14518085226E-01  0.76076948820E-01  0.79982626943E-01  0.51100000000E-03 0. -1.
         11    1    4    4    0    0  0.17634361787E-01 -0.10086999878E-01  0.57645420005E-01  0.61122613252E-01  0.51100000000E-03 0.  1.
</event>
<event>
 8    1  0.2824193E+004  0.1043930E+01  0.7957747E-01            NaN
         13   -1    0    0    0    0  0.00000000000E+00  0.00000000000E+00  0.74505805969E-08  0.10566000000E+00  0.10566000000E+00 0. -1.
     999900   -1    0    0    0    0 -0.00000000000E+00 -0.00000000000E+00 -0.74505805969E-08  0.93827000000E+00  0.93827000000E+00 0.  1.
     999902    2    1    2    0    0  0.11363102729E-01  0.95878715922E-02 -0.68838937732E-02  0.10275460024E+01  0.10274153744E+01 0.  0.
     999903    2    3    3    0    0 -0.10897671126E+00  0.41414096683E-01  0.54486579694E-01  0.13666951572E+00  0.46029535716E-01 0.  0.
         14    1    1    2    0    0 -0.11363102729E-01 -0.95878715922E-02  0.68838937732E-02  0.16383997644E-01  0.00000000000E+00 0. -1.
     999901    1    3    3    0    0  0.12033981399E+00 -0.31826225090E-01 -0.61370473467E-01  0.89087648664E+00  0.88000000000E+00 0. -1.
        -11    1    4    4    0    0 -0.31339481615E-01  0.33866967228E-01  0.29463395694E-01  0.54749314005E-01  0.51100000000E-03 0. -1.
         11    1    4    4    0    0 -0.77637229645E-01  0.75471294541E-02  0.25023184000E-01  0.81920201712E-01  0.51100000000E-03 0.  1.
</event>
<event>
 8    1  0.2824193E+004  0.1043930E+01  0.7957747E-01            NaN
         13   -1    0    0    0    0  0.00000000000E+00  0.00000000000E+00  0.74505805969E-08  0.10566000000E+00  0.10566000000E+00 0.  1.
     999900   -1    0    0    0    0 -0.00000000000E+00 -0.00000000000E+00 -0.74505805969E-08  0.93827000000E+00  0.93827000000E+00 0. -1.
     999902    2    1    2    0    0 -0.54369264175E-02 -0.12508838535E-01  0.90889868605E-03  0.10302604240E+01  0.10301697355E+01 0.  0.
     999903    2    3    3    0    0 -0.29966612534E-01  0.82484752723E-01 -0.98259313950E-01  0.13927230835E+00  0.45168028490E-01 0.  0.
         14    1    1    2    0    0  0.54369264175E-02  0.12508838535E-01 -0.90889868605E-03  0.13669575969E-01  0.00000000000E+00 0.  1.
     999901    1    3    3    0    0  0.24529686116E-01 -0.94993591258E-01  0.99168212636E-01  0.89098811568E+00  0.88000000000E+00 0.  1.
        -11    1    4    4    0    0  0.10503455773E-01  0.59058212020E-02 -0.13027130029E-01  0.17752986932E-01  0.51100000000E-03 0. -1.
         11    1    4    4    0    0 -0.40470068306E-01  0.76578931521E-01 -0.85232183921E-01  0.12151932142E+00  0.51100000000E-03 0.  1.
</event>
<event>
 8    1  0.2824193E+004  0.1043930E+01  0.7957747E-01            NaN
         13   -1    0    0    0    0  0.00000000000E+00  0.00000000000E+00  0.74505805969E-08  0.10566000000E+00  0.10566000000E+00 0.  1.
     999900   -1    0    0    0    0 -0.00000000000E+00 -0.00000000000E+00 -0.74505805969E-08  0.93827000000E+00  0.93827000000E+00 0.  1.
     999902    2    1    2    0    0  0.35365783788E-02 -0.89530083219E-02 -0.79846429853E-02  0.10314232711E+01  0.10313474419E+01 0.  0.
     999903    2    3    3    0    0  0.34885571884E-01  0.24207699607E-01 -0.12785124033E+00  0.14212557452E+00  0.45284913981E-01 0.  0.
         14    1    1    2    0    0 -0.35365783788E-02  0.89530083219E-02  0.79846429853E-02  0.12506728919E-01  0.00000000000E+00 0.  1.
     999901    1    3    3    0    0 -0.31348993505E-01 -0.33160707929E-01  0.11986659734E+00  0.88929769656E+00  0.88000000000E+00 0. -1.
        -11    1    4    4    0    0  0.10158399475E-01 -0.17085101811E-02 -0.10570084661E-02  0.10367761322E-01  0.51100000000E-03 0.  1.
         11    1    4    4    0    0  0.24727172409E-01  0.25916209788E-01 -0.12679423186E+00  0.13175781320E+00  0.51100000000E-03 0. -1.
</event>
<event>
 8    1  0.2824193E+004  0.1043930E+01  0.7957747E-01            NaN
         13   -1    0    0    0    0  0.00000000000E+00  0.00000000000E+00  0.74505805969E-08  0.10566000000E+00  0.10566000000E+00 0.  1.
     999900   -1    0    0    0    0 -0.00000000000E+00 -0.00000000000E+00 -0.74505805969E-08  0.93827000000E+00  0.93827000000E+00 0.  1.
     999902    2    1    2    0    0  0.38778913630E-02  0.14737978040E-02 -0.13052090071E-01  0.10302344833E+01  0.10301434480E+01 0.  0.
     999903    2    3    3    0    0  0.51796537116E-01 -0.12161781987E+00  0.31177702614E-01  0.13927768443E+00  0.30861770421E-01 0.  0.
         14    1    1    2    0    0 -0.38778913630E-02 -0.14737978040E-02  0.13052090071E-01  0.13695516661E-01  0.00000000000E+00 0.  1.
     999901    1    3    3    0    0 -0.47918645753E-01  0.12309161768E+00 -0.44229792685E-01  0.89095679890E+00  0.88000000000E+00 0. -1.
        -11    1    4    4    0    0  0.17487628734E-01 -0.48089562561E-01  0.27405784797E-01  0.58049645540E-01  0.51100000000E-03 0. -1.
         11    1    4    4    0    0  0.34308908382E-01 -0.73528257311E-01  0.37719178174E-02  0.81228038894E-01  0.51100000000E-03 0.  1.
</event>
<event>
 8    1  0.2824193E+004  0.1043930E+01  0.7957747E-01            NaN
         13   -1    0    0    0    0  0.00000000000E+00  0.00000000000E+00  0.74505805969E-08  0.10566000000E+00  0.10566000000E+00 0.  1.
     999900   -1    0    0    0    0 -0.00000000000E+00 -0.00000000000E+00 -0.74505805969E-08  0.93827000000E+00  0.93827000000E+00 0. -1.
     999902    2    1    2    0    0 -0.39837484504E-02 -0.56035270965E-02 -0.12908991664E-01  0.10293042749E+01  0.10292003588E+01 0.  0.
     999903    2    3    3    0    0 -0.41984192547E-01 -0.18982315300E-01  0.12206200695E+00  0.13810272861E+00  0.45279458819E-01 0.  0.
         14    1    1    2    0    0  0.39837484504E-02  0.56035270965E-02  0.12908991664E-01  0.14625725056E-01  0.00000000000E+00 0.  1.
     999901    1    3    3    0    0  0.38000444097E-01  0.13378788203E-01 -0.13497099861E+00  0.89120154634E+00  0.88000000000E+00 0. -1.
        -11    1    4    4    0    0 -0.25620355426E-01  0.74314256296E-02  0.26460366261E-01  0.37577131379E-01  0.51100000000E-03 0.  1.
         11    1    4    4    0    0 -0.16363837122E-01 -0.26413740929E-01  0.95601640687E-01  0.10052559723E+00  0.51100000000E-03 0. -1.
</event>
<event>
 8    1  0.2824193E+004  0.1043930E+01  0.7957747E-01            NaN
         13   -1    0    0    0    0  0.00000000000E+00  0.00000000000E+00  0.74505805969E-08  0.10566000000E+00  0.10566000000E+00 0. -1.
     999900   -1    0    0    0    0 -0.00000000000E+00 -0.00000000000E+00 -0.74505805969E-08  0.93827000000E+00  0.93827000000E+00 0.  1.
     999902    2    1    2    0    0 -0.82867449468E-02  0.60920538252E-02  0.10012364504E-01  0.10295762303E+01  0.10294761694E+01 0.  0.
     999903    2    3    3    0    0 -0.45248245423E-01  0.39418802330E-01  0.12005332551E+00  0.14132748260E+00  0.44265231066E-01 0.  0.
         14    1    1    2    0    0  0.82867449468E-02 -0.60920538252E-02 -0.10012364504E-01  0.14353769699E-01  0.00000000000E+00 0.  1.
     999901    1    3    3    0    0  0.36961500476E-01 -0.33326748505E-01 -0.11004096101E+00  0.88824874770E+00  0.88000000000E+00 0.  1.
        -11    1    4    4    0    0 -0.28257653116E-01  0.49017437496E-02  0.83371839623E-01  0.88168286898E-01  0.51100000000E-03 0.  1.
         11    1    4    4    0    0 -0.16990592307E-01  0.34517058580E-01  0.36681485892E-01  0.53159195707E-01  0.51100000000E-03 0. -1.
</event>
<event>
 8    1  0.2824193E+004  0.1043930E+01  0.7957747E-01            NaN
         13   -1    0    0    0    0  0.00000000000E+00  0.00000000000E+00  0.74505805969E-08  0.10566000000E+00  0.10566000000E+00 0. -1.
     999900   -1    0    0    0    0 -0.00000000000E+00 -0.00000000000E+00 -0.74505805969E-08  0.93827000000E+00  0.93827000000E+00 0. -1.
     999902    2    1    2    0    0 -0.19505292172E-01 -0.49553543439E-03  0.50017145867E-02  0.10237875293E+01  0.10235893639E+01 0.  0.
     999903    2    3    3    0    0 -0.10979834203E+00 -0.63675015848E-01 -0.20992890809E-01  0.13653322463E+00  0.45721290527E-01 0.  0.
         14    1    1    2    0    0  0.19505292172E-01  0.49553543439E-03 -0.50017145867E-02  0.20142470725E-01  0.00000000000E+00 0.  1.
     999901    1    3    3    0    0  0.90293049861E-01  0.63179480414E-01  0.25994605396E-01  0.88725430464E+00  0.88000000000E+00 0.  1.
        -11    1    4    4    0    0 -0.74012780656E-01 -0.30392114162E-01  0.68172448808E-02  0.80301358970E-01  0.51100000000E-03 0.  1.
         11    1    4    4    0    0 -0.35785561376E-01 -0.33282901686E-01 -0.27810135690E-01  0.56231865662E-01  0.51100000000E-03 0. -1.
</event>
<event>
 8    1  0.2824193E+004  0.1043930E+01  0.7957747E-01            NaN
         13   -1    0    0    0    0  0.00000000000E+00  0.00000000000E+00  0.74505805969E-08  0.10566000000E+00  0.10566000000E+00 0.  1.
     999900   -1    0    0    0    0 -0.00000000000E+00 -0.00000000000E+00 -0.74505805969E-08  0.93827000000E+00  0.93827000000E+00 0. -1.
     999902    2    1    2    0    0  0.83950141469E-02 -0.29385019863E-02  0.89701988455E-02  0.10312976794E+01  0.10312203101E+01 0.  0.
     999903    2    3    3    0    0 -0.10923460419E+00 -0.36530940659E-01 -0.64941735036E-01  0.13976632660E+00  0.45282322423E-01 0.  0.
         14    1    1    2    0    0 -0.83950141469E-02  0.29385019863E-02 -0.89701988455E-02  0.12632320601E-01  0.00000000000E+00 0.  1.
     999901    1    3    3    0    0  0.11762961834E+00  0.33592438672E-01  0.73911933882E-01  0.89153135280E+00  0.88000000000E+00 0.  1.
        -11    1    4    4    0    0 -0.43383146412E-01 -0.23412679750E-01 -0.51487288182E-01  0.71284310552E-01  0.51100000000E-03 0. -1.
         11    1    4    4    0    0 -0.65851457782E-01 -0.13118260909E-01 -0.13454446855E-01  0.68482016051E-01  0.51100000000E-03 0.  1.
</event>
<event>
 8    1  0.2824193E+004  0.1043930E+01  0.7957747E-01            NaN
         13   -1    0    0    0    0  0.00000000000E+00  0.00000000000E+00  0.74505805969E-08  0.10566000000E+00  0.10566000000E+00 0. -1.
     999900   -1    0    0    0    0 -0.00000000000E+00 -0.00000000000E+00 -0.74505805969E-08  0.93827000000E+00  0.93827000000E+00 0.  1.
     999902    2    1    2    0    0  0.32657691781E-02 -0.23958094672E-02 -0.11976661216E-01  0.10312869954E+01  0.10312094944E+01 0.  0.
     999903    2    3    3    0    0 -0.76221756352E-01  0.98357710825E-01 -0.47584391238E-01  0.14126595689E+00  0.46987241519E-01 0.  0.
         14    1    1    2    0    0 -0.32657691781E-02  0.23958094672E-02  0.11976661216E-01  0.12643004596E-01  0.00000000000E+00 0. -1.
     999901    1    3    3    0    0  0.79487525530E-01 -0.10075352029E+00  0.35607730022E-01  0.89002103852E+00  0.88000000000E+00 0. -1.
        -11    1    4    4    0    0 -0.38134111313E-01  0.75053033967E-01 -0.47394483526E-01  0.96610902816E-01  0.51100000000E-03 0.  1.
         11    1    4    4    0    0 -0.38087645039E-01  0.23304676858E-01 -0.18990771168E-03  0.44655054070E-01  0.51100000000E-03 0. -1.
</event>
<event>
 8    1  0.2824193E+004  0.1043930E+01  0.7957747E-01            NaN
         13   -1    0    0    0    0  0.00000000000E+00  0.00000000000E+00  0.74505805969E-08  0.10566000000E+00  0.10566000000E+00 0. -1.
     999900   -1    0    0    0    0 -0.00000000000E+00 -0.00000000000E+00 -0.74505805969E-08  0.93827000000E+00  0.93827000000E+00 0. -1.
     999902    2    1    2    0    0  0.13629848577E-02 -0.95973446680E-02 -0.10211515148E-01  0.10298501636E+01  0.10297539112E+01 0.  0.
     999903    2    3    3    0    0  0.95339736256E-01 -0.55578464014E-01  0.73477576351E-01  0.13970986160E+00  0.44059734811E-01 0.  0.
         14    1    1    2    0    0 -0.13629848577E-02  0.95973446680E-02  0.10211515148E-01  0.14079836435E-01  0.00000000000E+00 0. -1.
     999901    1    3    3    0    0 -0.93976751398E-01  0.45981119346E-01 -0.83689091499E-01  0.89014030196E+00  0.88000000000E+00 0. -1.
        -11    1    4    4    0    0  0.43670135903E-01 -0.42195484859E-01  0.19460087029E-01  0.63769082010E-01  0.51100000000E-03 0. -1.
         11    1    4    4    0    0  0.51669600353E-01 -0.13382979155E-01  0.54017489322E-01  0.75940779594E-01  0.51100000000E-03 0.  1.
</event>
<event>
 8    1  0.2824193E+004  0.1043930E+01  0.7957747E-01            NaN
         13   -1    0    0    0    0  0.00000000000E+00  0.00000000000E+00  0.74505805969E-08  0.10566000000E+00  0.10566000000E+00 0.  1.
     999900   -1    0    0    0    0 -0.00000000000E+00 -0.00000000000E+00 -0.74505805969E-08  0.93827000000E+00  0.93827000000E+00 0. -1.
     999902    2    1    2    0    0  0.12598475168E-01 -0.10441613131E-02 -0.54512858821E-02  0.10301630698E+01  0.10300710762E+01 0.  0.
     999903    2    3    3    0    0 -0.28231334018E-01  0.76209588178E-01  0.10359049075E+00  0.13913819687E+00  0.44983758216E-01 0.  0.
         14    1    1    2    0    0 -0.12598475168E-01  0.10441613131E-02  0.54512858821E-02  0.13766930202E-01  0.00000000000E+00 0.  1.
     999901    1    3    3    0    0  0.40829809186E-01 -0.77253749491E-01 -0.10904177663E+00  0.89102487293E+00  0.88000000000E+00 0. -1.
        -11    1    4    4    0    0 -0.37704217324E-02  0.18461212263E-01  0.59656781302E-01  0.62563768385E-01  0.51100000000E-03 0.  1.
         11    1    4    4    0    0 -0.24460912286E-01  0.57748375915E-01  0.43933709448E-01  0.76574428483E-01  0.51100000000E-03 0. -1.
</event>
<event>
 8    1  0.2824193E+004  0.1043930E+01  0.7957747E-01            NaN
         13   -1    0    0    0    0  0.00000000000E+00  0.00000000000E+00  0.74505805969E-08  0.10566000000E+00  0.10566000000E+00 0. -1.
     999900   -1    0    0    0    0 -0.00000000000E+00 -0.00000000000E+00 -0.74505805969E-08  0.93827000000E+00  0.93827000000E+00 0.  1.
     999902    2    1    2    0    0  0.12922244838E-01 -0.70451542272E-03 -0.63360555227E-02  0.10295207546E+01  0.10294199132E+01 0.  0.
     999903    2    3    3    0    0  0.91057245881E-01  0.95268119213E-01  0.18679474082E-01  0.14050916766E+00  0.45016295688E-01 0.  0.
         14    1    1    2    0    0 -0.12922244838E-01  0.70451542272E-03  0.63360555227E-02  0.14409245407E-01  0.00000000000E+00 0.  1.
     999901    1    3    3    0    0 -0.78135001043E-01 -0.95972634636E-01 -0.25015529605E-01  0.88901158694E+00  0.88000000000E+00 0. -1.
        -11    1    4    4    0    0  0.28725000959E-01  0.41997984397E-01 -0.13144014906E-01  0.52554568045E-01  0.51100000000E-03 0.  1.
         11    1    4    4    0    0  0.62332244921E-01  0.53270134816E-01  0.31823488989E-01  0.87954599611E-01  0.51100000000E-03 0. -1.
</event>
<event>
 8    1  0.2824193E+004  0.1043930E+01  0.7957747E-01            NaN
         13   -1    0    0    0    0  0.00000000000E+00  0.00000000000E+00  0.74505805969E-08  0.10566000000E+00  0.10566000000E+00 0.  1.
     999900   -1    0    0    0    0 -0.00000000000E+00 -0.00000000000E+00 -0.74505805969E-08  0.93827000000E+00  0.93827000000E+00 0. -1.
     999902    2    1    2    0    0 -0.23178060874E-02  0.13581659456E-01 -0.15071576193E-02  0.10300697972E+01  0.10299765443E+01 0.  0.
     999903    2    3    3    0    0  0.11365588350E+00 -0.56296589670E-02  0.68790263307E-01  0.13947409831E+00  0.42090032756E-01 0.  0.
         14    1    1    2    0    0  0.23178060874E-02 -0.13581659456E-01  0.15071576193E-02  0.13860202838E-01  0.00000000000E+00 0.  1.
     999901    1    3    3    0    0 -0.11597368959E+00  0.19211318423E-01 -0.70297420926E-01  0.89059569886E+00  0.88000000000E+00 0. -1.
        -11    1    4    4    0    0  0.56318033783E-01  0.11708588254E-02  0.57771549666E-01  0.80690178531E-01  0.51100000000E-03 0.  1.
         11    1    4    4    0    0  0.57337849720E-01 -0.68005177924E-02  0.11018713641E-01  0.58783919774E-01  0.51100000000E-03 0. -1.
</event>
<event>
 8    1  0.2824193E+004  0.1043930E+01  0.7957747E-01            NaN
         13   -1    0    0    0    0  0.00000000000E+00  0.00000000000E+00  0.74505805969E-08  0.10566000000E+00  0.10566000000E+00 0. -1.
     999900   -1    0    0    0    0 -0.00000000000E+00 -0.00000000000E+00 -0.74505805969E-08  0.93827000000E+00  0.93827000000E+00 0. -1.
     999902    2    1    2    0    0  0.30260123694E-02  0.72259564134E-02 -0.12903745792E-01  0.10288343764E+01  0.10287236248E+01 0.  0.
     999903    2    3    3    0    0 -0.12721106451E+00 -0.30037813279E-01 -0.12895231888E-02  0.13839337615E+00  0.45454796593E-01 0.  0.
         14    1    1    2    0    0 -0.30260123694E-02 -0.72259564134E-02  0.12903745792E-01  0.15095623618E-01  0.00000000000E+00 0. -1.
     999901    1    3    3    0    0  0.13023707688E+00  0.37263769692E-01 -0.11614222603E-01  0.89044100023E+00  0.88000000000E+00 0. -1.
        -11    1    4    4    0    0 -0.55326421690E-01 -0.84741913969E-02  0.21496106452E-01  0.59959724570E-01  0.51100000000E-03 0. -1.
         11    1    4    4    0    0 -0.71884642816E-01 -0.21563621882E-01 -0.22785629641E-01  0.78433651582E-01  0.51100000000E-03 0.  1.
</event>
<event>
 8    1  0.2824193E+004  0.1043930E+01  0.7957747E-01            NaN
         13   -1    0    0    0    0  0.00000000000E+00  0.00000000000E+00  0.74505805969E-08  0.10566000000E+00  0.10566000000E+00 0. -1.
     999900   -1    0    0    0    0 -0.00000000000E+00 -0.00000000000E+00 -0.74505805969E-08  0.93827000000E+00  0.93827000000E+00 0. -1.
     999902    2    1    2    0    0  0.12432217853E-01  0.18994689126E-01 -0.13852453784E-01  0.10173358516E+01  0.10169881937E+01 0.  0.
     999903    2    3    3    0    0  0.82927290546E-02 -0.11755897880E+00  0.63256711766E-02  0.12656584964E+00  0.45716707313E-01 0.  0.
         14    1    1    2    0    0 -0.12432217853E-01 -0.18994689126E-01  0.13852453784E-01  0.26594148446E-01  0.00000000000E+00 0. -1.
     999901    1    3    3    0    0  0.41394887987E-02  0.13655366792E+00 -0.20178124961E-01  0.89077000192E+00  0.88000000000E+00 0. -1.
        -11    1    4    4    0    0  0.21164899492E-01 -0.42997116349E-01  0.15440007265E-01  0.50352357742E-01  0.51100000000E-03 0. -1.
         11    1    4    4    0    0 -0.12872170437E-01 -0.74561862446E-01 -0.91143360888E-02  0.76213491893E-01  0.51100000000E-03 0.  1.
</event>
<event>
 8    1  0.2824193E+004  0.1043930E+01  0.7957747E-01            NaN
         13   -1    0    0    0    0  0.00000000000E+00  0.00000000000E+00  0.74505805969E-08  0.10566000000E+00  0.10566000000E+00 0.  1.
     999900   -1    0    0    0    0 -0.00000000000E+00 -0.00000000000E+00 -0.74505805969E-08  0.93827000000E+00  0.93827000000E+00 0.  1.
     999902    2    1    2    0    0 -0.81303970231E-02 -0.46430976222E-02 -0.10158927174E-01  0.10301145915E+01  0.10300219445E+01 0.  0.
     999903    2    3    3    0    0  0.13142696549E+00 -0.48685473312E-02  0.39016019307E-02  0.13900628900E+00  0.44841675629E-01 0.  0.
         14    1    1    2    0    0  0.81303970231E-02  0.46430976222E-02  0.10158927174E-01  0.13815408521E-01  0.00000000000E+00 0.  1.
     999901    1    3    3    0    0 -0.13955736252E+00  0.22544970904E-03 -0.14060529104E-01  0.89110830247E+00  0.88000000000E+00 0.  1.
        -11    1    4    4    0    0  0.56640278832E-01 -0.22726260173E-01 -0.66577739792E-02  0.61393738792E-01  0.51100000000E-03 0.  1.
         11    1    4    4    0    0  0.74786686662E-01  0.17857712841E-01  0.10559375910E-01  0.77612550212E-01  0.51100000000E-03 0. -1.
</event>
<event>
 8    1  0.2824193E+004  0.1043930E+01  0.7957747E-01            NaN
         13   -1    0    0    0    0  0.00000000000E+00  0.00000000000E+00  0.74505805969E-08  0.10566000000E+00  0.10566000000E+00 0. -1.
     999900   -1    0    0    0    0 -0.00000000000E+00 -0.00000000000E+00 -0.74505805969E-08  0.93827000000E+00  0.93827000000E+00 0.  1.
     999902    2    1    2    0    0 -0.90723686345E-03 -0.98159433122E-03  0.13628065492E-01  0.10302365426E+01  0.10301455348E+01 0.  0.
     999903    2    3    3    0    0 -0.28201283243E-01 -0.12464169146E+00  0.38170901869E-01  0.14083273364E+00  0.45232482673E-01 0.  0.
         14    1    1    2    0    0  0.90723686345E-03  0.98159433122E-03 -0.13628065492E-01  0.13693457387E-01  0.00000000000E+00 0.  1.
     999901    1    3    3    0    0  0.27294046380E-01  0.12366009713E+00 -0.24542836377E-01  0.88940380897E+00  0.88000000000E+00 0.  1.
        -11    1    4    4    0    0  0.38710918347E-02 -0.74104531698E-01  0.10707851530E-01  0.74975903966E-01  0.51100000000E-03 0.  1.
         11    1    4    4    0    0 -0.32072375078E-01 -0.50537159765E-01  0.27463050339E-01  0.65856829678E-01  0.51100000000E-03 0. -1.
</event>
<event>
 8    1  0.2824193E+004  0.1043930E+01  0.7957747E-01            NaN
         13   -1    0    0    0    0  0.00000000000E+00  0.00000000000E+00  0.74505805969E-08  0.10566000000E+00  0.10566000000E+00 0.  1.
     999900   -1    0    0    0    0 -0.00000000000E+00 -0.00000000000E+00 -0.74505805969E-08  0.93827000000E+00  0.93827000000E+00 0.  1.
     999902    2    1    2    0    0 -0.79644530782E-02 -0.67021384479E-02  0.90268830321E-02  0.10301519091E+01  0.10300597652E+01 0.  0.
     999903    2    3    3    0    0  0.22487966611E-01 -0.71493364206E-01  0.11168872473E+00  0.14129606780E+00  0.43280454916E-01 0.  0.
         14    1    1    2    0    0  0.79644530782E-02  0.67021384479E-02 -0.90268830321E-02  0.13778090938E-01  0.00000000000E+00 0. -1.
     999901    1    3    3    0    0 -0.30452419690E-01  0.64791225758E-01 -0.10266184169E+00  0.88885584126E+00  0.88000000000E+00 0.  1.
        -11    1    4    4    0    0 -0.38011016578E-02 -0.41043721367E-01  0.80320612677E-01  0.90281212771E-01  0.51100000000E-03 0. -1.
         11    1    4    4    0    0  0.26289068269E-01 -0.30449642838E-01  0.31368112050E-01  0.51014855033E-01  0.51100000000E-03 0.  1.
</event>
<event>
 8    1  0.2824193E+004  0.1043930E+01  0.7957747E-01            NaN
         13   -1    0    0    0    0  0.00000000000E+00  0.00000000000E+00  0.74505805969E-08  0.10566000000E+00  0.10566000000E+00 0. -1.
     999900   -1    0    0    0    0 -0.00000000000E+00 -0.00000000000E+00 -0.74505805969E-08  0.93827000000E+00  0.93827000000E+00 0.  1.
     999902    2    1    2    0    0  0.10745450033E-02 -0.14055152862E-01  0.12864845971E-03  0.10298332444E+01  0.10297367589E+01 0.  0.
     999903    2    3    3    0    0  0.21959441122E-01  0.10468122931E+00 -0.77895825849E-01  0.13819299969E+00  0.39864378250E-01 0.  0.
         14    1    1    2    0    0 -0.10745450033E-02  0.14055152862E-01 -0.12864845971E-03  0.14096755633E-01  0.00000000000E+00 0. -1.
     999901    1    3    3    0    0 -0.20884896119E-01 -0.11873638218E+00  0.78024474308E-01  0.89164024468E+00  0.88000000000E+00 0. -1.
        -11    1    4    4    0    0  0.24004218795E-01  0.41871963446E-01 -0.18407867373E-01  0.51658247599E-01  0.51100000000E-03 0.  1.
         11    1    4    4    0    0 -0.20447776732E-02  0.62809265868E-01 -0.59487958476E-01  0.86534752090E-01  0.51100000000E-03 0. -1.
</event>
<event>
 8    1  0.2824193E+004  0.1043930E+01  0.7957747E-01            NaN
         13   -1    0    0    0    0  0.00000000000E+00  0.00000000000E+00  0.74505805969E-08  0.10566000000E+00  0.10566000000E+00 0. -1.
     999900   -1    0    0    0    0 -0.00000000000E+00 -0.00000000000E+00 -0.74505805969E-08  0.93827000000E+00  0.93827000000E+00 0.  1.
     999902    2    1    2    0    0 -0.37507915095E-02 -0.11293860297E-01 -0.78686294918E-02  0.10296634290E+01  0.10295645886E+01 0.  0.
     999903    2    3    3    0    0  0.63593102570E-01 -0.79857058283E-01  0.84073841828E-01  0.13966931094E+00  0.44920742280E-01 0.  0.
         14    1    1    2    0    0  0.37507915095E-02  0.11293860297E-01  0.78686294918E-02  0.14266570977E-01  0.00000000000E+00 0. -1.
     999901    1    3    3    0    0 -0.67343894079E-01  0.68563197986E-01 -0.91942471320E-01  0.88999411808E+00  0.88000000000E+00 0. -1.
        -11    1    4    4    0    0  0.54245843969E-01 -0.85010306680E-01  0.75925398204E-01  0.12623110173E+00  0.51100000000E-03 0. -1.
         11    1    4    4    0    0  0.93472586004E-02  0.51532483971E-02  0.81484436241E-02  0.13438209214E-01  0.51100000000E-03 0.  1.
</event>
<event>
 8    1  0.2824193E+004  0.1043930E+01  0.7957747E-01            NaN
         13   -1    0    0    0    0  0.00000000000E+00  0.00000000000E+00  0.74505805969E-08  0.10566000000E+00  0.10566000000E+00 0.  1.
     999900   -1    0    0    0    0 -0.00000000000E+00 -0.00000000000E+00 -0.74505805969E-08  0.93827000000E+00  0.93827000000E+00 0.  1.
     999902    2    1    2    0    0 -0.12311228821E-01 -0.60535286995E-02  0.73331579438E-03  0.10301913932E+01  0.10300997803E+01 0.  0.
     999903    2    3    3    0    0  0.80379159685E-01  0.71455497492E-01  0.76076964670E-01  0.13874547634E+00  0.43541993724E-01 0.  0.
         14    1    1    2    0    0  0.12311228821E-01  0.60535286995E-02 -0.73331579438E-03  0.13738606801E-01  0.00000000000E+00 0. -1.
     999901    1    3    3    0    0 -0.92690388505E-01 -0.77509026191E-01 -0.75343648875E-01  0.89144591686E+00  0.88000000000E+00 0. -1.
        -11    1    4    4    0    0  0.77100256540E-01  0.45414202906E-01  0.62852395697E-01  0.10935073914E+00  0.51100000000E-03 0. -1.
         11    1    4    4    0    0  0.32789031445E-02  0.26041294586E-01  0.13224568973E-01  0.29394737200E-01  0.51100000000E-03 0.  1.
</event>
<event>
 8    1  0.2824193E+004  0.1043930E+01  0.7957747E-01            NaN
         13   -1    0    0    0    0  0.00000000000E+00  0.00000000000E+00  0.74505805969E-08  0.10566000000E+00  0.10566000000E+00 0. -1.
     999900   -1    0    0    0    0 -0.00000000000E+00 -0.00000000000E+00 -0.74505805969E-08  0.93827000000E+00  0.93827000000E+00 0. -1.
     999902    2    1    2    0    0 -0.11761606787E-01  0.56784636042E-02  0.49016244616E-02  0.10299798650E+01  0.10298853898E+01 0.  0.
     999903    2    3    3    0    0  0.18178097121E-01  0.12970033343E+00  0.24405117684E-01  0.14056534058E+00  0.44837322584E-01 0.  0.
         14    1    1    2    0    0  0.11761606787E-01 -0.56784636042E-02 -0.49016244616E-02  0.13950134963E-01  0.00000000000E+00 0. -1.
     999901    1    3    3    0    0 -0.29939703908E-01 -0.12402186983E+00 -0.19503493222E-01  0.88941452446E+00  0.88000000000E+00 0.  1.
        -11    1    4    4    0    0  0.27795681291E-01  0.67199344806E-01 -0.16003981053E-03  0.72723026439E-01  0.51100000000E-03 0. -1.
         11    1    4    4    0    0 -0.96175841704E-02  0.62500988625E-01  0.24565157495E-01  0.67842314142E-01  0.51100000000E-03 0.  1.
</event>
<event>
 8    1  0.2824193E+004  0.1043930E+01  0.7957747E-01            NaN
         13   -1    0    0    0    0  0.00000000000E+00  0.00000000000E+00  0.74505805969E-08  0.10566000000E+00  0.10566000000E+00 0.  1.
     999900   -1    0    0    0    0 -0.00000000000E+00 -0.00000000000E+00 -0.74505805969E-08  0.93827000000E+00  0.93827000000E+00 0.  1.
     999902    2    1    2    0    0 -0.11523655005E-01 -0.86450785006E-02 -0.51539493766E-02  0.10286298300E+01  0.10285160339E+01 0.  0.
     999903    2    3    3    0    0  0.64342359385E-01 -0.87614050860E-01  0.73273770948E-01  0.13838118047E+00  0.44318669641E-01 0.  0.
         14    1    1    2    0    0  0.11523655005E-01  0.86450785006E-02  0.51539493766E-02  0.15300169970E-01  0.00000000000E+00 0.  1.
     999901    1    3    3    0    0 -0.75866014390E-01  0.78968972359E-01 -0.78427720325E-01  0.89024864956E+00  0.88000000000E+00 0.  1.
        -11    1    4    4    0    0  0.11448189323E-01 -0.51423860150E-01  0.40119724339E-01  0.66221807839E-01  0.51100000000E-03 0.  1.
         11    1    4    4    0    0  0.52894170063E-01 -0.36190190710E-01  0.33154046610E-01  0.72159372626E-01  0.51100000000E-03 0. -1.
</event>
<event>
 8    1  0.2824193E+004  0.1043930E+01  0.7957747E-01            NaN
         13   -1    0    0    0    0  0.00000000000E+00  0.00000000000E+00  0.74505805969E-08  0.10566000000E+00  0.10566000000E+00 0. -1.
     999900   -1    0    0    0    0 -0.00000000000E+00 -0.00000000000E+00 -0.74505805969E-08  0.93827000000E+00  0.93827000000E+00 0. -1.
     999902    2    1    2    0    0  0.51771843992E-02 -0.60689463124E-02 -0.10806574820E-01  0.10304980453E+01  0.10304105026E+01 0.  0.
     999903    2    3    3    0    0  0.11884513221E+00  0.21523584223E-01 -0.58496896580E-01  0.14147829474E+00  0.44797219176E-01 0.  0.
         14    1    1    2    0    0 -0.51771843992E-02  0.60689463124E-02  0.10806574820E-01  0.13431954697E-01  0.00000000000E+00 0. -1.
     999901    1    3    3    0    0 -0.11366794781E+00 -0.27592530536E-01  0.47690321760E-01  0.88901975056E+00  0.88000000000E+00 0.  1.
        -11    1    4    4    0    0  0.61641826814E-01  0.46156249670E-02 -0.61621719491E-02  0.62122880575E-01  0.51100000000E-03 0. -1.
         11    1    4    4    0    0  0.57203305394E-01  0.16907959256E-01 -0.52334724631E-01  0.79355414166E-01  0.51100000000E-03 0.  1.
</event>
<event>
 8    1  0.2824193E+004  0.1043930E+01  0.7957747E-01            NaN
         13   -1    0    0    0    0  0.00000000000E+00  0.00000000000E+00  0.74505805969E-08  0.10566000000E+00  0.10566000000E+00 0. -1.
     999900   -1    0    0    0    0 -0.00000000000E+00 -0.00000000000E+00 -0.74505805969E-08  0.93827000000E+00  0.93827000000E+00 0. -1.
     999902    2    1    2    0    0  0.48646040100E-02  0.45618447014E-02 -0.18945208010E-01  0.10238452868E+01  0.10236482675E+01 0.  0.
     999903    2    3    3    0    0  0.12737629829E-01 -0.11697571453E+00 -0.48392910225E-01  0.13496929428E+00  0.45047437606E-01 0.  0.
         14    1    1    2    0    0 -0.48646040100E-02 -0.45618447014E-02  0.18945208010E-01  0.20084713237E-01  0.00000000000E+00 0. -1.
     999901    1    3    3    0    0 -0.78730258186E-02  0.12153755924E+00  0.29447702215E-01  0.88887599248E+00  0.88000000000E+00 0.  1.
        -11    1    4    4    0    0  0.28317592116E-01 -0.76289541763E-01 -0.39682480899E-01  0.90536957188E-01  0.51100000000E-03 0. -1.
         11    1    4    4    0    0 -0.15579962288E-01 -0.40686172772E-01 -0.87104293264E-02  0.44432337096E-01  0.51100000000E-03 0.  1.
</event>
<event>
 8    1  0.2824193E+004  0.1043930E+01  0.7957747E-01            NaN
         13   -1    0    0    0    0  0.00000000000E+00  0.00000000000E+00  0.74505805969E-08  0.10566000000E+00  0.10566000000E+00 0. -1.
     999900   -1    0    0    0    0 -0.00000000000E+00 -0.00000000000E+00 -0.74505805969E-08  0.93827000000E+00  0.93827000000E+00 0.  1.
     999902    2    1    2    0    0 -0.10020150104E-01  0.83604641580E-02  0.33643876387E-02  0.10304533582E+01  0.10303652283E+01 0.  0.
     999903    2    3    3    0    0 -0.28786407825E-01 -0.98499830428E-01  0.84270571216E-01  0.14010673723E+00  0.44693341514E-01 0.  0.
         14    1    1    2    0    0  0.10020150104E-01 -0.83604641580E-02 -0.33643876387E-02  0.13476641764E-01  0.00000000000E+00 0.  1.
     999901    1    3    3    0    0  0.18766257721E-01  0.10686029459E+00 -0.80906183577E-01  0.89034662100E+00  0.88000000000E+00 0.  1.
        -11    1    4    4    0    0  0.78759796799E-02 -0.52348219653E-01  0.41894729198E-01  0.67511455415E-01  0.51100000000E-03 0.  1.
         11    1    4    4    0    0 -0.36662387505E-01 -0.46151610775E-01  0.42375842017E-01  0.72595281819E-01  0.51100000000E-03 0. -1.
</event>
<event>
 8    1  0.2824193E+004  0.1043930E+01  0.7957747E-01            NaN
         13   -1    0    0    0    0  0.00000000000E+00  0.00000000000E+00  0.74505805969E-08  0.10566000000E+00  0.10566000000E+00 0.  1.
     999900   -1    0    0    0    0 -0.00000000000E+00 -0.00000000000E+00 -0.74505805969E-08  0.93827000000E+00  0.93827000000E+00 0. -1.
     999902    2    1    2    0    0  0.55575527820E-02 -0.13684762272E-01  0.37100593413E-02  0.10287009603E+01  0.10285882276E+01 0.  0.
     999903    2    3    3    0    0  0.44510773910E-01  0.34979810220E-01 -0.11783075743E+00  0.13816305303E+00  0.44722988606E-01 0.  0.
         14    1    1    2    0    0 -0.55575527820E-02  0.13684762272E-01 -0.37100593413E-02  0.15229039749E-01  0.00000000000E+00 0. -1.
     999901    1    3    3    0    0 -0.38953221128E-01 -0.48664572492E-01  0.12154081677E+00  0.89053790722E+00  0.88000000000E+00 0.  1.
        -11    1    4    4    0    0  0.43395425095E-01  0.12858673447E-01 -0.99847709002E-01  0.10962816479E+00  0.51100000000E-03 0.  1.
         11    1    4    4    0    0  0.11153488149E-02  0.22121136773E-01 -0.17983048427E-01  0.28534888239E-01  0.51100000000E-03 0. -1.
</event>
<event>
 8    1  0.2824193E+004  0.1043930E+01  0.7957747E-01            NaN
         13   -1    0    0    0    0  0.00000000000E+00  0.00000000000E+00  0.74505805969E-08  0.10566000000E+00  0.10566000000E+00 0. -1.
     999900   -1    0    0    0    0 -0.00000000000E+00 -0.00000000000E+00 -0.74505805969E-08  0.93827000000E+00  0.93827000000E+00 0. -1.
     999902    2    1    2    0    0 -0.11974429267E-02 -0.11954335601E-01  0.65144673740E-02  0.10302633144E+01  0.10301726645E+01 0.  0.
     999903    2    3    3    0    0  0.11822941728E+00  0.72199917488E-02  0.60469620224E-01  0.14035231423E+00  0.44853915626E-01 0.  0.
         14    1    1    2    0    0  0.11974429267E-02  0.11954335601E-01 -0.65144673740E-02  0.13666685567E-01  0.00000000000E+00 0.  1.
     999901    1    3    3    0    0 -0.11942686021E+00 -0.19174327349E-01 -0.53955152850E-01  0.88991100021E+00  0.88000000000E+00 0.  1.
        -11    1    4    4    0    0  0.33821748907E-01 -0.10685089291E-02 -0.36343343127E-02  0.34037066815E-01  0.51100000000E-03 0. -1.
         11    1    4    4    0    0  0.84407668376E-01  0.82885006780E-02  0.64103954536E-01  0.10631524741E+00  0.51100000000E-03 0.  1.
</event>
<event>
 8    1  0.2824193E+004  0.1043930E+01  0.7957747E-01            NaN
         13   -1    0    0    0    0  0.00000000000E+00  0.00000000000E+00  0.74505805969E-08  0.10566000000E+00  0.10566000000E+00 0. -1.
     999900   -1    0    0    0    0 -0.00000000000E+00 -0.00000000000E+00 -0.74505805969E-08  0.93827000000E+00  0.93827000000E+00 0.  1.
     999902    2    1    2    0    0  0.99799845937E-02 -0.79956712640E-02  0.67291958510E-02  0.10294796392E+01  0.10293782174E+01 0.  0.
     999903    2    3    3    0    0 -0.12779355675E+00  0.22008402971E-01 -0.15924335431E-01  0.13796689352E+00  0.44336399265E-01 0.  0.
         14    1    1    2    0    0 -0.99799845937E-02  0.79956712640E-02 -0.67291958510E-02  0.14450360835E-01  0.00000000000E+00 0. -1.
     999901    1    3    3    0    0  0.13777354135E+00 -0.30004074235E-01  0.22653531282E-01  0.89151274564E+00  0.88000000000E+00 0. -1.
        -11    1    4    4    0    0 -0.57951412818E-01  0.48836159208E-02 -0.28818186627E-01  0.64907356698E-01  0.51100000000E-03 0.  1.
         11    1    4    4    0    0 -0.69842143936E-01  0.17124787051E-01  0.12893851196E-01  0.73059536823E-01  0.51100000000E-03 0. -1.
</event>
<event>
 8    1  0.2824193E+004  0.1043930E+01  0.7957747E-01            NaN
         13   -1    0    0    0    0  0.00000000000E+00  0.00000000000E+00  0.74505805969E-08  0.10566000000E+00  0.10566000000E+00 0. -1.
     999900   -1    0    0    0    0 -0.00000000000E+00 -0.00000000000E+00 -0.74505805969E-08  0.93827000000E+00  0.93827000000E+00 0.  1.
     999902    2    1    2    0    0  0.10312499727E-02 -0.65900711228E-06  0.92480576135E-02  0.10346246227E+01  0.10345827757E+01 0.  0.
     999903    2    3    3    0    0  0.10259420743E+00  0.54096189703E-01 -0.71456829228E-01  0.14347099839E+00  0.45009774464E-01 0.  0.
         14    1    1    2    0    0 -0.10312499727E-02  0.65900711228E-06 -0.92480576135E-02  0.93053772929E-02  0.00000000000E+00 0.  1.
     999901    1    3    3    0    0 -0.10156295746E+00 -0.54096848710E-01  0.80704886842E-01  0.89115362431E+00  0.88000000000E+00 0. -1.
        -11    1    4    4    0    0  0.31020731189E-01  0.28994187903E-01 -0.47977495351E-01  0.64070663153E-01  0.51100000000E-03 0. -1.
         11    1    4    4    0    0  0.71573476243E-01  0.25102001800E-01 -0.23479333877E-01  0.79400335240E-01  0.51100000000E-03 0.  1.
</event>
<event>
 8    1  0.2824193E+004  0.1043930E+01  0.7957747E-01            NaN
         13   -1    0    0    0    0  0.00000000000E+00  0.00000000000E+00  0.74505805969E-08  0.10566000000E+00  0.10566000000E+00 0.  1.
     999900   -1    0    0    0    0 -0.00000000000E+00 -0.00000000000E+00 -0.74505805969E-08  0.93827000000E+00  0.93827000000E+00 0.  1.
     999902    2    1    2    0    0 -0.11742197161E-01 -0.56194745624E-02  0.24150686571E-02  0.10306902778E+01  0.10306052389E+01 0.  0.
     999903    2    3    3    0    0 -0.63923263634E-01  0.38698407397E-01 -0.11119916313E+00  0.14074919430E+00  0.43143150612E-01 0.  0.
         14    1    1    2    0    0  0.11742197161E-01  0.56194745624E-02 -0.24150686571E-02  0.13239722246E-01  0.00000000000E+00 0.  1.
     999901    1    3    3    0    0  0.52181066472E-01 -0.44317881959E-01  0.11361423179E+00  0.88994108346E+00  0.88000000000E+00 0. -1.
        -11    1    4    4    0    0 -0.18246253678E-01  0.26313242552E-01 -0.19332701661E-01  0.37407579197E-01  0.51100000000E-03 0.  1.
         11    1    4    4    0    0 -0.45677009956E-01  0.12385164845E-01 -0.91866461474E-01  0.10334161510E+00  0.51100000000E-03 0. -1.
</event>
<event>
 8    1  0.2824193E+004  0.1043930E+01  0.7957747E-01            NaN
         13   -1    0    0    0    0  0.00000000000E+00  0.00000000000E+00  0.74505805969E-08  0.10566000000E+00  0.10566000000E+00 0.  1.
     999900   -1    0    0    0    0 -0.00000000000E+00 -0.00000000000E+00 -0.74505805969E-08  0.93827000000E+00  0.93827000000E+00 0.  1.
     999902    2    1    2    0    0  0.58187939792E-03 -0.60253264311E-02  0.12405922606E-01  0.10301260130E+01  0.10300335201E+01 0.  0.
     999903    2    3    3    0    0  0.75714115200E-01  0.10146096242E+00  0.39935682967E-01  0.13998218029E+00  0.44420692138E-01 0.  0.
         14    1    1    2    0    0 -0.58187939792E-03  0.60253264311E-02 -0.12405922606E-01  0.13803987031E-01  0.00000000000E+00 0. -1.
     999901    1    3    3    0    0 -0.75132235802E-01 -0.10748628885E+00 -0.27529760361E-01  0.89014383268E+00  0.88000000000E+00 0.  1.
        -11    1    4    4    0    0  0.23056861106E-01  0.11683440821E-01  0.22856996750E-01  0.34508333123E-01  0.51100000000E-03 0.  1.
         11    1    4    4    0    0  0.52657254095E-01  0.89777521597E-01  0.17078686217E-01  0.10547384717E+00  0.51100000000E-03 0. -1.
</event>
<event>
 8    1  0.2824193E+004  0.1043930E+01  0.7957747E-01            NaN
         13   -1    0    0    0    0  0.00000000000E+00  0.00000000000E+00  0.74505805969E-08  0.10566000000E+00  0.10566000000E+00 0.  1.
     999900   -1    0    0    0    0 -0.00000000000E+00 -0.00000000000E+00 -0.74505805969E-08  0.93827000000E+00  0.93827000000E+00 0. -1.
     999902    2    1    2    0    0  0.85509795701E-02 -0.40617681156E-02  0.79979516303E-02  0.10315370810E+01  0.10314626338E+01 0.  0.
     999903    2    3    3    0    0  0.55403496116E-01 -0.18211189552E-01 -0.11880464598E+00  0.14110220789E+00  0.48929483525E-01 0.  0.
         14    1    1    2    0    0 -0.85509795701E-02  0.40617681156E-02 -0.79979516303E-02  0.12392919031E-01  0.00000000000E+00 0. -1.
     999901    1    3    3    0    0 -0.46852516546E-01  0.14149421436E-01  0.12680259761E+00  0.89043487308E+00  0.88000000000E+00 0.  1.
        -11    1    4    4    0    0  0.48969178063E-01 -0.21946076674E-02 -0.49450186248E-01  0.69630300473E-01  0.51100000000E-03 0. -1.
         11    1    4    4    0    0  0.64343180537E-02 -0.16016581884E-01 -0.69354459733E-01  0.71471907417E-01  0.51100000000E-03 0.  1.
</event>
<event>
 8    1  0.2824193E+004  0.1043930E+01  0.7957747E-01            NaN
         13   -1    0    0    0    0  0.00000000000E+00  0.00000000000E+00  0.74505805969E-08  0.10566000000E+00  0.10566000000E+00 0. -1.
     999900   -1    0    0    0    0 -0.00000000000E+00 -0.00000000000E+00 -0.74505805969E-08  0.93827000000E+00  0.93827000000E+00 0. -1.
     999902    2    1    2    0    0 -0.95143050283E-02  0.64759912490E-02  0.71285969588E-02  0.10303920032E+01  0.10303030636E+01 0.  0.
     999903    2    3    3    0    0  0.10475029879E+00  0.47522673909E-01 -0.64128728499E-01  0.13920244072E+00  0.45097628002E-01 0.  0.
         14    1    1    2    0    0  0.95143050283E-02 -0.64759912490E-02 -0.71285969588E-02  0.13537996803E-01  0.00000000000E+00 0.  1.
     999901    1    3    3    0    0 -0.11426460382E+00 -0.41046682660E-01  0.71257325458E-01  0.89118956248E+00  0.88000000000E+00 0.  1.
        -11    1    4    4    0    0  0.56826621023E-01  0.14964322123E-02 -0.34026697694E-01  0.66253916437E-01  0.51100000000E-03 0. -1.
         11    1    4    4    0    0  0.47923677763E-01  0.46026241696E-01 -0.30102030805E-01  0.72948524280E-01  0.51100000000E-03 0.  1.
</event>
<event>
 8    1  0.2824193E+004  0.1043930E+01  0.7957747E-01            NaN
         13   -1    0    0    0    0  0.00000000000E+00  0.00000000000E+00  0.74505805969E-08  0.10566000000E+00  0.10566000000E+00 0.  1.
     999900   -1    0    0    0    0 -0.00000000000E+00 -0.00000000000E+00 -0.74505805969E-08  0.93827000000E+00  0.93827000000E+00 0.  1.
     999902    2    1    2    0    0 -0.44100836671E-02 -0.39016390026E-02  0.13449332241E-01  0.10292481690E+01  0.10291434483E+01 0.  0.
     999903    2    3    3    0    0  0.74367716253E-01 -0.40426262522E-01  0.10245676476E+00  0.14050618564E+00  0.45604381751E-01 0.  0.
         14    1    1    2    0    0  0.44100836671E-02  0.39016390026E-02 -0.13449332241E-01  0.14681831036E-01  0.00000000000E+00 0. -1.
     999901    1    3    3    0    0 -0.78777799921E-01  0.36524623519E-01 -0.89007432519E-01  0.88874198333E+00  0.88000000000E+00 0.  1.
        -11    1    4    4    0    0  0.14817057112E-01 -0.22120775618E-01  0.58445575298E-01  0.64226320838E-01  0.51100000000E-03 0. -1.
         11    1    4    4    0    0  0.59550659141E-01 -0.18305486903E-01  0.44011189462E-01  0.76279864799E-01  0.51100000000E-03 0.  1.
</event>
<event>
 8    1  0.2824193E+004  0.1043930E+01  0.7957747E-01            NaN
         13   -1    0    0    0    0  0.00000000000E+00  0.00000000000E+00  0.74505805969E-08  0.10566000000E+00  0.10566000000E+00 0.  1.
     999900   -1    0    0    0    0 -0.00000000000E+00 -0.00000000000E+00 -0.74505805969E-08  0.93827000000E+00  0.93827000000E+00 0. -1.
     999902    2    1    2    0    0  0.13723710305E-01 -0.13556622306E-03  0.55676445506E-02  0.10291192853E+01  0.10290127046E+01 0.  0.
     999903    2    3    3    0    0  0.42013553897E-01  0.11547536898E+00  0.50402662404E-01  0.13997566229E+00  0.44193416986E-01 0.  0.
         14    1    1    2    0    0 -0.13723710305E-01  0.13556622306E-03 -0.55676445506E-02  0.14810714655E-01  0.00000000000E+00 0.  1.
     999901    1    3    3    0    0 -0.28289843592E-01 -0.11561093520E+00 -0.44835017853E-01  0.88914362305E+00  0.88000000000E+00 0.  1.
        -11    1    4    4    0    0  0.36751818719E-01  0.37837253921E-01  0.21499018793E-01  0.56963346930E-01  0.51100000000E-03 0.  1.
         11    1    4    4    0    0  0.52617351787E-02  0.77638115059E-01  0.28903643611E-01  0.83012315363E-01  0.51100000000E-03 0. -1.
</event>
<event>
 8    1  0.2824193E+004  0.1043930E+01  0.7957747E-01            NaN
         13   -1    0    0    0    0  0.00000000000E+00  0.00000000000E+00  0.74505805969E-08  0.10566000000E+00  0.10566000000E+00 0.  1.
     999900   -1    0    0    0    0 -0.00000000000E+00 -0.00000000000E+00 -0.74505805969E-08  0.93827000000E+00  0.93827000000E+00 0. -1.
     999902    2    1    2    0    0  0.62372269935E-03 -0.11024491077E-01  0.94169146365E-02  0.10294177047E+01  0.10293154055E+01 0.  0.
     999903    2    3    3    0    0  0.79043163639E-01 -0.79006640920E-01 -0.70711444591E-01  0.13970329245E+00  0.45022555441E-01 0.  0.
         14    1    1    2    0    0 -0.62372269935E-03  0.11024491077E-01 -0.94169146365E-02  0.14512295297E-01  0.00000000000E+00 0. -1.
     999901    1    3    3    0    0 -0.78419440940E-01  0.67982149843E-01  0.80128359227E-01  0.88971441225E+00  0.88000000000E+00 0.  1.
        -11    1    4    4    0    0  0.52584171345E-01 -0.21533121177E-01 -0.39062432499E-01  0.68955820185E-01  0.51100000000E-03 0.  1.
         11    1    4    4    0    0  0.26458992294E-01 -0.57473519743E-01 -0.31649012092E-01  0.70747472267E-01  0.51100000000E-03 0. -1.
</event>
<event>
 8    1  0.2824193E+004  0.1043930E+01  0.7957747E-01            NaN
         13   -1    0    0    0    0  0.00000000000E+00  0.00000000000E+00  0.74505805969E-08  0.10566000000E+00  0.10566000000E+00 0. -1.
     999900   -1    0    0    0    0 -0.00000000000E+00 -0.00000000000E+00 -0.74505805969E-08  0.93827000000E+00  0.93827000000E+00 0. -1.
     999902    2    1    2    0    0  0.42364572839E-02 -0.35073774348E-02  0.12071518175E-01  0.10306646007E+01  0.10305792295E+01 0.  0.
     999903    2    3    3    0    0 -0.12781154417E+00  0.26168592358E-01  0.28432661044E-01  0.14016753455E+00  0.42637254584E-01 0.  0.
         14    1    1    2    0    0 -0.42364572839E-02  0.35073774348E-02 -0.12071518175E-01  0.13265399271E-01  0.00000000000E+00 0.  1.
     999901    1    3    3    0    0  0.13204800146E+00 -0.29675969793E-01 -0.16361142869E-01  0.89049706618E+00  0.88000000000E+00 0. -1.
        -11    1    4    4    0    0 -0.77464394138E-01 -0.81725792784E-03  0.27099089077E-02  0.77517772136E-01  0.51100000000E-03 0.  1.
         11    1    4    4    0    0 -0.50347150035E-01  0.26985850286E-01  0.25722752136E-01  0.62649762416E-01  0.51100000000E-03 0. -1.
</event>
<event>
 8    1  0.2824193E+004  0.1043930E+01  0.7957747E-01            NaN
         13   -1    0    0    0    0  0.00000000000E+00  0.00000000000E+00  0.74505805969E-08  0.10566000000E+00  0.10566000000E+00 0. -1.
     999900   -1    0    0    0    0 -0.00000000000E+00 -0.00000000000E+00 -0.74505805969E-08  0.93827000000E+00  0.93827000000E+00 0. -1.
     999902    2    1    2    0    0  0.10137857858E-01 -0.91268255306E-02 -0.48609069867E-03  0.10302804070E+01  0.10301899852E+01 0.  0.
     999903    2    3    3    0    0 -0.89723869081E-01  0.51719438519E-01 -0.79993314772E-01  0.13899143527E+00  0.46844590589E-01 0.  0.
         14    1    1    2    0    0 -0.10137857858E-01  0.91268255306E-02  0.48609069867E-03  0.13649593048E-01  0.00000000000E+00 0.  1.
     999901    1    3    3    0    0  0.99861726939E-01 -0.60846264049E-01  0.79507224073E-01  0.89128897168E+00  0.88000000000E+00 0.  1.
        -11    1    4    4    0    0 -0.42912726351E-01  0.46038061647E-01 -0.28265096106E-01  0.68994072078E-01  0.51100000000E-03 0. -1.
         11    1    4    4    0    0 -0.46811142730E-01  0.56813768722E-02 -0.51728218666E-01  0.69997363195E-01  0.51100000000E-03 0.  1.
</event>
<event>
 8    1  0.2824193E+004  0.1043930E+01  0.7957747E-01            NaN
         13   -1    0    0    0    0  0.00000000000E+00  0.00000000000E+00  0.74505805969E-08  0.10566000000E+00  0.10566000000E+00 0.  1.
     999900   -1    0    0    0    0 -0.00000000000E+00 -0.00000000000E+00 -0.74505805969E-08  0.93827000000E+00  0.93827000000E+00 0. -1.
     999902    2    1    2    0    0  0.40119280492E-02 -0.48281803772E-02 -0.10231412410E-01  0.10319263051E+01  0.10318564873E+01 0.  0.
     999903    2    3    3    0    0  0.24446717136E-01 -0.94756336492E-01 -0.94333941973E-01  0.14311930162E+00  0.44808889801E-01 0.  0.
         14    1    1    2    0    0 -0.40119280492E-02  0.48281803772E-02  0.10231412410E-01  0.12003694945E-01  0.00000000000E+00 0.  1.
     999901    1    3    3    0    0 -0.20434789087E-01  0.89928156115E-01  0.84102529563E-01  0.88880700343E+00  0.88000000000E+00 0.  1.
        -11    1    4    4    0    0  0.30869744083E-01 -0.63564121343E-01 -0.83697764371E-01  0.10953956136E+00  0.51100000000E-03 0. -1.
         11    1    4    4    0    0 -0.64230269469E-02 -0.31192215149E-01 -0.10636177602E-01  0.33579740262E-01  0.51100000000E-03 0.  1.
</event>
<event>
 8    1  0.2824193E+004  0.1043930E+01  0.7957747E-01            NaN
         13   -1    0    0    0    0  0.00000000000E+00  0.00000000000E+00  0.74505805969E-08  0.10566000000E+00  0.10566000000E+00 0.  1.
     999900   -1    0    0    0    0 -0.00000000000E+00 -0.00000000000E+00 -0.74505805969E-08  0.93827000000E+00  0.93827000000E+00 0.  1.
     999902    2    1    2    0    0 -0.39245270043E-02 -0.12743043643E-01 -0.58365104128E-02  0.10293748659E+01  0.10292719576E+01 0.  0.
     999903    2    3    3    0    0 -0.49478063137E-01  0.12051322981E+00 -0.85607160190E-02  0.13817355291E+00  0.45245193917E-01 0.  0.
         14    1    1    2    0    0  0.39245270043E-02  0.12743043643E-01  0.58365104128E-02  0.14555134053E-01  0.00000000000E+00 0. -1.
     999901    1    3    3    0    0  0.45553536133E-01 -0.13325627345E+00  0.27242056062E-02  0.89120131304E+00  0.88000000000E+00 0.  1.
        -11    1    4    4    0    0 -0.30949168086E-01  0.23002749627E-01 -0.19762148117E-03  0.38565239152E-01  0.51100000000E-03 0.  1.
         11    1    4    4    0    0 -0.18528895051E-01  0.97510480185E-01 -0.83630945378E-02  0.99608313754E-01  0.51100000000E-03 0. -1.
</event>
<event>
 8    1  0.2824193E+004  0.1043930E+01  0.7957747E-01            NaN
         13   -1    0    0    0    0  0.00000000000E+00  0.00000000000E+00  0.74505805969E-08  0.10566000000E+00  0.10566000000E+00 0.  1.
     999900   -1    0    0    0    0 -0.00000000000E+00 -0.00000000000E+00 -0.74505805969E-08  0.93827000000E+00  0.93827000000E+00 0.  1.
     999902    2    1    2    0    0  0.42940202366E-02  0.15240345485E-01 -0.95784173873E-03  0.10280673331E+01  0.10279449485E+01 0.  0.
     999903    2    3    3    0    0 -0.58132569642E-01 -0.76745882214E-01  0.86151325090E-01  0.13680611878E+00  0.44994857828E-01 0.  0.
         14    1    1    2    0    0 -0.42940202366E-02 -0.15240345485E-01  0.95784173873E-03  0.15862666897E-01  0.00000000000E+00 0.  1.
     999901    1    3    3    0    0  0.62426589879E-01  0.91986227699E-01 -0.87109166829E-01  0.89126121432E+00  0.88000000000E+00 0.  1.
        -11    1    4    4    0    0 -0.77485011196E-03 -0.35643315026E-01  0.26931051625E-01  0.44683206704E-01  0.51100000000E-03 0. -1.
         11    1    4    4    0    0 -0.57357719530E-01 -0.41102567188E-01  0.59220273465E-01  0.92122912076E-01  0.51100000000E-03 0.  1.
</event>
<event>
 8    1  0.2824193E+004  0.1043930E+01  0.7957747E-01            NaN
         13   -1    0    0    0    0  0.00000000000E+00  0.00000000000E+00  0.74505805969E-08  0.10566000000E+00  0.10566000000E+00 0.  1.
     999900   -1    0    0    0    0 -0.00000000000E+00 -0.00000000000E+00 -0.74505805969E-08  0.93827000000E+00  0.93827000000E+00 0.  1.
     999902    2    1    2    0    0 -0.11479740949E-01 -0.31644354897E-02 -0.83255227968E-02  0.10294002913E+01  0.10292977448E+01 0.  0.
     999903    2    3    3    0    0  0.27910011132E-02  0.10296573648E+00 -0.83202489919E-01  0.13975214308E+00  0.44702064706E-01 0.  0.
         14    1    1    2    0    0  0.11479740949E-01  0.31644354897E-02  0.83255227968E-02  0.14529708671E-01  0.00000000000E+00 0.  1.
     999901    1    3    3    0    0 -0.14270742062E-01 -0.10613017197E+00  0.74876967122E-01  0.88964814825E+00  0.88000000000E+00 0. -1.
        -11    1    4    4    0    0  0.19583778338E-01  0.76519532473E-01 -0.47159208926E-01  0.91994648385E-01  0.51100000000E-03 0. -1.
         11    1    4    4    0    0 -0.16792777225E-01  0.26446204011E-01 -0.36043280993E-01  0.47757494693E-01  0.51100000000E-03 0.  1.
</event>
<event>
 8    1  0.2824193E+004  0.1043930E+01  0.7957747E-01            NaN
         13   -1    0    0    0    0  0.00000000000E+00  0.00000000000E+00  0.74505805969E-08  0.10566000000E+00  0.10566000000E+00 0. -1.
     999900   -1    0    0    0    0 -0.00000000000E+00 -0.00000000000E+00 -0.74505805969E-08  0.93827000000E+00  0.93827000000E+00 0. -1.
     999902    2    1    2    0    0  0.78761913878E-02  0.11987654036E-01  0.15452995044E-03  0.10295855893E+01  0.10294856597E+01 0.  0.
     999903    2    3    3    0    0  0.71492540965E-01 -0.10932873771E+00 -0.13756139494E-01  0.13887900818E+00  0.45102009240E-01 0.  0.
         14    1    1    2    0    0 -0.78761913878E-02 -0.11987654036E-01 -0.15452995044E-03  0.14344410744E-01  0.00000000000E+00 0.  1.
     999901    1    3    3    0    0 -0.63616349578E-01  0.12131639175E+00  0.13910669444E-01  0.89070658107E+00  0.88000000000E+00 0.  1.
        -11    1    4    4    0    0  0.40085445013E-01 -0.93351667689E-01 -0.16251783276E-02  0.10160845973E+00  0.51100000000E-03 0.  1.
         11    1    4    4    0    0  0.31407095952E-01 -0.15977070022E-01 -0.12130961166E-01  0.37270548459E-01  0.51100000000E-03 0. -1.
</event>
<event>
 8    1  0.2824193E+004  0.1043930E+01  0.7957747E-01            NaN
         13   -1    0    0    0    0  0.00000000000E+00  0.00000000000E+00  0.74505805969E-08  0.10566000000E+00  0.10566000000E+00 0. -1.
     999900   -1    0    0    0    0 -0.00000000000E+00 -0.00000000000E+00 -0.74505805969E-08  0.93827000000E+00  0.93827000000E+00 0. -1.
     999902    2    1    2    0    0 -0.10815353145E-02  0.99514530165E-03 -0.14370574078E-01  0.10294844667E+01  0.10293831132E+01 0.  0.
     999903    2    3    3    0    0 -0.54790325369E-02  0.17947296488E-01  0.12872772544E+00  0.13775365714E+00  0.45311339729E-01 0.  0.
         14    1    1    2    0    0  0.10815353145E-02 -0.99514530165E-03  0.14370574078E-01  0.14445533294E-01  0.00000000000E+00 0. -1.
     999901    1    3    3    0    0  0.43974972224E-02 -0.16952151186E-01 -0.14309829952E+00  0.89173080957E+00  0.88000000000E+00 0. -1.
        -11    1    4    4    0    0  0.49473160643E-02 -0.83611975212E-02  0.52126830009E-02  0.11037152953E-01  0.51100000000E-03 0.  1.
         11    1    4    4    0    0 -0.10426348601E-01  0.26308494009E-01  0.12351504244E+00  0.12671650418E+00  0.51100000000E-03 0. -1.
</event>
<event>
 8    1  0.2824193E+004  0.1043930E+01  0.7957747E-01            NaN
         13   -1    0    0    0    0  0.00000000000E+00  0.00000000000E+00  0.74505805969E-08  0.10566000000E+00  0.10566000000E+00 0.  1.
     999900   -1    0    0    0    0 -0.00000000000E+00 -0.00000000000E+00 -0.74505805969E-08  0.93827000000E+00  0.93827000000E+00 0.  1.
     999902    2    1    2    0    0  0.66547637745E-02 -0.12691735005E-01 -0.12535905715E-02  0.10295446774E+01  0.10294441729E+01 0.  0.
     999903    2    3    3    0    0 -0.48642760910E-01  0.12025892221E+00 -0.12011122881E-01  0.13777709665E+00  0.44832295605E-01 0.  0.
         14    1    1    2    0    0 -0.66547637745E-02  0.12691735005E-01  0.12535905715E-02  0.14385322647E-01  0.00000000000E+00 0. -1.
     999901    1    3    3    0    0  0.55297524684E-01 -0.13295065721E+00  0.10757532309E-01  0.89176758070E+00  0.88000000000E+00 0.  1.
        -11    1    4    4    0    0 -0.23932173550E-01  0.91476750081E-01  0.79823496114E-02  0.94893222953E-01  0.51100000000E-03 0.  1.
         11    1    4    4    0    0 -0.24710587360E-01  0.28782172127E-01 -0.19993472492E-01  0.42883873698E-01  0.51100000000E-03 0. -1.
</event>
<event>
 8    1  0.2824193E+004  0.1043930E+01  0.7957747E-01            NaN
         13   -1    0    0    0    0  0.00000000000E+00  0.00000000000E+00  0.74505805969E-08  0.10566000000E+00  0.10566000000E+00 0.  1.
     999900   -1    0    0    0    0 -0.00000000000E+00 -0.00000000000E+00 -0.74505805969E-08  0.93827000000E+00  0.93827000000E+00 0. -1.
     999902    2    1    2    0    0 -0.38946865394E-02  0.96833812450E-02  0.76306927537E-02  0.10310008110E+01  0.10309197391E+01 0.  0.
     999903    2    3    3    0    0  0.22459599102E-01 -0.37206727832E-01  0.12615131982E+00  0.14142767197E+00  0.46891968587E-01 0.  0.
         14    1    1    2    0    0  0.38946865394E-02 -0.96833812450E-02 -0.76306927537E-02  0.12929188972E-01  0.00000000000E+00 0. -1.
     999901    1    3    3    0    0 -0.26354285641E-01  0.46890109077E-01 -0.11852062706E+00  0.88957313906E+00  0.88000000000E+00 0. -1.
        -11    1    4    4    0    0 -0.14386971046E-01 -0.13883716575E-01  0.33294918202E-01  0.38840123853E-01  0.51100000000E-03 0. -1.
         11    1    4    4    0    0  0.36846570148E-01 -0.23323011257E-01  0.92856401616E-01  0.10258754811E+00  0.51100000000E-03 0.  1.
</event>
<event>
 8    1  0.2824193E+004  0.1043930E+01  0.7957747E-01            NaN
         13   -1    0    0    0    0  0.00000000000E+00  0.00000000000E+00  0.74505805969E-08  0.10566000000E+00  0.10566000000E+00 0. -1.
     999900   -1    0    0    0    0 -0.00000000000E+00 -0.00000000000E+00 -0.74505805969E-08  0.93827000000E+00  0.93827000000E+00 0.  1.
     999902    2    1    2    0    0 -0.93059426551E-04 -0.91670445328E-02  0.96097186154E-02  0.10306488081E+01  0.10305632322E+01 0.  0.
     999903    2    3    3    0    0  0.11081289157E+00  0.19642355681E-01  0.71640648813E-01  0.14105454792E+00  0.45811394337E-01 0.  0.
         14    1    1    2    0    0  0.93059426551E-04  0.91670445328E-02 -0.96097186154E-02  0.13281191866E-01  0.00000000000E+00 0.  1.
     999901    1    3    3    0    0 -0.11090595100E+00 -0.28809400214E-01 -0.62030930197E-01  0.88959426022E+00  0.88000000000E+00 0.  1.
        -11    1    4    4    0    0  0.71836166235E-01  0.24655123230E-02  0.21008830655E-01  0.74887553151E-01  0.51100000000E-03 0.  1.
         11    1    4    4    0    0  0.38976725336E-01  0.17176843358E-01  0.50631818157E-01  0.66166994767E-01  0.51100000000E-03 0. -1.
</event>
<event>
 8    1  0.2824193E+004  0.1043930E+01  0.7957747E-01            NaN
         13   -1    0    0    0    0  0.00000000000E+00  0.00000000000E+00  0.74505805969E-08  0.10566000000E+00  0.10566000000E+00 0. -1.
     999900   -1    0    0    0    0 -0.00000000000E+00 -0.00000000000E+00 -0.74505805969E-08  0.93827000000E+00  0.93827000000E+00 0. -1.
     999902    2    1    2    0    0 -0.48062901850E-02  0.18791021074E-01  0.37180754885E-02  0.10241808992E+01  0.10239904722E+01 0.  0.
     999903    2    3    3    0    0  0.44887341494E-01  0.11220171604E+00  0.46278300918E-01  0.13682167780E+00  0.44434129556E-01 0.  0.
         14    1    1    2    0    0  0.48062901850E-02 -0.18791021074E-01 -0.37180754885E-02  0.19749100832E-01  0.00000000000E+00 0.  1.
     999901    1    3    3    0    0 -0.49693631679E-01 -0.93410694971E-01 -0.42560225429E-01  0.88735922137E+00  0.88000000000E+00 0. -1.
        -11    1    4    4    0    0  0.21670066527E-01  0.88090253796E-01  0.49230787516E-01  0.10321538721E+00  0.51100000000E-03 0.  1.
         11    1    4    4    0    0  0.23217274967E-01  0.24111462249E-01 -0.29524865977E-02  0.33606290584E-01  0.51100000000E-03 0. -1.
</event>
<event>
 8    1  0.2824193E+004  0.1043930E+01  0.7957747E-01            NaN
         13   -1    0    0    0    0  0.00000000000E+00  0.00000000000E+00  0.74505805969E-08  0.10566000000E+00  0.10566000000E+00 0.  1.
     999900   -1    0    0    0    0 -0.00000000000E+00 -0.00000000000E+00 -0.74505805969E-08  0.93827000000E+00  0.93827000000E+00 0.  1.
     999902    2    1    2    0    0  0.62755008112E-02  0.64435722324E-02 -0.99823184607E-02  0.10304931769E+01  0.10304055703E+01 0.  0.
     999903    2    3    3    0    0  0.31344394623E-01  0.11497396061E+00 -0.61473741679E-01  0.14197831415E+00  0.46661955382E-01 0.  0.
         14    1    1    2    0    0 -0.62755008112E-02 -0.64435722324E-02  0.99823184607E-02  0.13436823114E-01  0.00000000000E+00 0.  1.
     999901    1    3    3    0    0 -0.25068893812E-01 -0.10853038838E+00  0.51491423219E-01  0.88851486274E+00  0.88000000000E+00 0. -1.
        -11    1    4    4    0    0  0.28223415533E-01  0.56742994953E-01 -0.53850672832E-01  0.83165405946E-01  0.51100000000E-03 0.  1.
         11    1    4    4    0    0  0.31209790904E-02  0.58230965657E-01 -0.76230688473E-02  0.58812908204E-01  0.51100000000E-03 0. -1.
</event>
<event>
 7    1  0.2824193E+004  0.1043930E+01  0.7957747E-01            NaN
         13   -1    0    0    0    0  0.00000000000E+00  0.00000000000E+00  0.74505805969E-08  0.10566000000E+00  0.10566000000E+00 0.  1.
     999900   -1    0    0    0    0 -0.00000000000E+00 -0.00000000000E+00 -0.74505805969E-08  0.93827000000E+00  0.93827000000E+00 0.  1.
     999902    2    1    2    0    0  0.10950781612E-02 -0.12530885133E-01 -0.57854953686E-02  0.10300846313E+01  0.10299915793E+01 0.  0.
         14    1    1    2    0    0 -0.10950781612E-02  0.12530885133E-01  0.57854953686E-02  0.13845368722E-01  0.00000000000E+00 0.  1.
     999901    1    3    3    0    0  0.82798155598E-01 -0.30735661343E-01 -0.94357659439E-01  0.88944003921E+00  0.88000000000E+00 0.  1.
        -11    1    3    3    0    0 -0.46197235709E-01 -0.25278434179E-01  0.49239654775E-01  0.72097077230E-01  0.51100000000E-03 0. -1.
         11    1    3    3    0    0 -0.35505841727E-01  0.43483210389E-01  0.39332509295E-01  0.68547514842E-01  0.51100000000E-03 0.  1.
</event>
<event>
 8    1  0.2824193E+004  0.1043930E+01  0.7957747E-01            NaN
         13   -1    0    0    0    0  0.00000000000E+00  0.00000000000E+00  0.74505805969E-08  0.10566000000E+00  0.10566000000E+00 0.  1.
     999900   -1    0    0    0    0 -0.00000000000E+00 -0.00000000000E+00 -0.74505805969E-08  0.93827000000E+00  0.93827000000E+00 0.  1.
     999902    2    1    2    0    0  0.91728949781E-02  0.96913348256E-02  0.22330903731E-03  0.10305840703E+01  0.10304976526E+01 0.  0.
     999903    2    3    3    0    0  0.11870013180E-01 -0.13110834379E+00  0.14553028666E-01  0.13927202347E+00  0.43065193063E-01 0.  0.
         14    1    1    2    0    0 -0.91728949781E-02 -0.96913348256E-02 -0.22330903731E-03  0.13345929713E-01  0.00000000000E+00 0. -1.
     999901    1    3    3    0    0 -0.26971182019E-02  0.14079967861E+00 -0.14329719628E-01  0.89131204682E+00  0.88000000000E+00 0. -1.
        -11    1    4    4    0    0 -0.10679277283E-01 -0.85690872799E-01 -0.56349401900E-03  0.86357114883E-01  0.51100000000E-03 0.  1.
         11    1    4    4    0    0  0.22549290463E-01 -0.45417470987E-01  0.15116522685E-01  0.52914908583E-01  0.51100000000E-03 0. -1.
</event>
<event>
 8    1  0.2824193E+004  0.1043930E+01  0.7957747E-01            NaN
         13   -1    0    0    0    0  0.00000000000E+00  0.00000000000E+00  0.74505805969E-08  0.10566000000E+00  0.10566000000E+00 0. -1.
     999900   -1    0    0    0    0 -0.00000000000E+00 -0.00000000000E+00 -0.74505805969E-08  0.93827000000E+00  0.93827000000E+00 0. -1.
     999902    2    1    2    0    0 -0.10215381764E-01 -0.25461123331E-04  0.10102101127E-01  0.10295631242E+01  0.10294628792E+01 0.  0.
     999903    2    3    3    0    0 -0.12676491467E-01  0.10199887144E+00 -0.82022137925E-01  0.13888815716E+00  0.44697045529E-01 0.  0.
         14    1    1    2    0    0  0.10215381764E-01  0.25461123331E-04 -0.10102101127E-01  0.14366875793E-01  0.00000000000E+00 0.  1.
     999901    1    3    3    0    0  0.24611097024E-02 -0.10202433257E+00  0.92124239052E-01  0.89067496704E+00  0.88000000000E+00 0.  1.
        -11    1    4    4    0    0 -0.24415256526E-01  0.94545267546E-01 -0.75944118880E-01  0.12370401238E+00  0.51100000000E-03 0. -1.
         11    1    4    4    0    0  0.11738765059E-01  0.74536038982E-02 -0.60780190451E-02  0.15184144780E-01  0.51100000000E-03 0.  1.
</event>
<event>
 8    1  0.2824193E+004  0.1043930E+01  0.7957747E-01            NaN
         13   -1    0    0    0    0  0.00000000000E+00  0.00000000000E+00  0.74505805969E-08  0.10566000000E+00  0.10566000000E+00 0.  1.
     999900   -1    0    0    0    0 -0.00000000000E+00 -0.00000000000E+00 -0.74505805969E-08  0.93827000000E+00  0.93827000000E+00 0. -1.
     999902    2    1    2    0    0  0.12522562906E-01 -0.12227618077E-02 -0.63243075395E-02  0.10298478626E+01  0.10297515785E+01 0.  0.
     999903    2    3    3    0    0  0.69157494789E-01 -0.69064523511E-01  0.89512226875E-01  0.14024420844E+00  0.45862094903E-01 0.  0.
         14    1    1    2    0    0 -0.12522562906E-01  0.12227618077E-02  0.63243075395E-02  0.14082137410E-01  0.00000000000E+00 0. -1.
     999901    1    3    3    0    0 -0.56634931882E-01  0.67841761703E-01 -0.95836534415E-01  0.88960365415E+00  0.88000000000E+00 0.  1.
        -11    1    4    4    0    0  0.40790714756E-01 -0.10041646322E-01  0.41402215009E-01  0.58984079207E-01  0.51100000000E-03 0. -1.
         11    1    4    4    0    0  0.28366780032E-01 -0.59022877189E-01  0.48110011866E-01  0.81260129238E-01  0.51100000000E-03 0.  1.
</event>
<event>
 8    1  0.2824193E+004  0.1043930E+01  0.7957747E-01            NaN
         13   -1    0    0    0    0  0.00000000000E+00  0.00000000000E+00  0.74505805969E-08  0.10566000000E+00  0.10566000000E+00 0.  1.
     999900   -1    0    0    0    0 -0.00000000000E+00 -0.00000000000E+00 -0.74505805969E-08  0.93827000000E+00  0.93827000000E+00 0.  1.
     999902    2    1    2    0    0 -0.91587986622E-02 -0.83210368381E-02  0.78079270563E-02  0.10292982888E+01  0.10291942870E+01 0.  0.
     999903    2    3    3    0    0  0.12878371063E+00 -0.72400981224E-02  0.18092978983E-01  0.13849242524E+00  0.47065197508E-01 0.  0.
         14    1    1    2    0    0  0.91587986622E-02  0.83210368381E-02 -0.78079270563E-02  0.14631711175E-01  0.00000000000E+00 0. -1.
     999901    1    3    3    0    0 -0.13794250929E+00 -0.10809387157E-02 -0.10285051926E-01  0.89080586358E+00  0.88000000000E+00 0.  1.
        -11    1    4    4    0    0  0.53099314471E-01 -0.21237954433E-01 -0.68078006055E-02  0.57595096804E-01  0.51100000000E-03 0. -1.
         11    1    4    4    0    0  0.75684396160E-01  0.13997856311E-01  0.24900779588E-01  0.80897328439E-01  0.51100000000E-03 0.  1.
</event>
<event>
 8    1  0.2824193E+004  0.1043930E+01  0.7957747E-01            NaN
         13   -1    0    0    0    0  0.00000000000E+00  0.00000000000E+00  0.74505805969E-08  0.10566000000E+00  0.10566000000E+00 0.  1.
     999900   -1    0    0    0    0 -0.00000000000E+00 -0.00000000000E+00 -0.74505805969E-08  0.93827000000E+00  0.93827000000E+00 0.  1.
     999902    2    1    2    0    0  0.51806761897E-03 -0.65729613814E-02 -0.12007095967E-01  0.10302317312E+01  0.10301406590E+01 0.  0.
     999903    2    3    3    0    0 -0.80923277528E-02  0.82346699833E-01  0.10235512993E+00  0.13834633283E+00  0.42622417139E-01 0.  0.
         14    1    1    2    0    0 -0.51806761897E-03  0.65729613814E-02  0.12007095967E-01  0.13698268830E-01  0.00000000000E+00 0.  1.
     999901    1    3    3    0    0  0.86103953718E-02 -0.88919661214E-01 -0.11436222590E+00  0.89188539834E+00  0.88000000000E+00 0.  1.
        -11    1    4    4    0    0 -0.14103063576E-01  0.33006154741E-01  0.71046861222E-01  0.79600378539E-01  0.51100000000E-03 0.  1.
         11    1    4    4    0    0  0.60107358236E-02  0.49340545092E-01  0.31308268709E-01  0.58745954292E-01  0.51100000000E-03 0. -1.
</event>
<event>
 8    1  0.2824193E+004  0.1043930E+01  0.7957747E-01            NaN
         13   -1    0    0    0    0  0.00000000000E+00  0.00000000000E+00  0.74505805969E-08  0.10566000000E+00  0.10566000000E+00 0. -1.
     999900   -1    0    0    0    0 -0.00000000000E+00 -0.00000000000E+00 -0.74505805969E-08  0.93827000000E+00  0.93827000000E+00 0. -1.
     999902    2    1    2    0    0  0.97376838024E-02  0.34416340051E-02 -0.55439518836E-02  0.10322081088E+01  0.10321415490E+01 0.  0.
     999903    2    3    3    0    0  0.35446429273E-02  0.13478578791E+00 -0.26053145984E-02  0.14243382502E+00  0.45834852765E-01 0.  0.
         14    1    1    2    0    0 -0.97376838024E-02 -0.34416340051E-02  0.55439518836E-02  0.11721891185E-01  0.00000000000E+00 0. -1.
     999901    1    3    3    0    0  0.61930408752E-02 -0.13134415391E+00 -0.29386372852E-02  0.88977428380E+00  0.88000000000E+00 0. -1.
        -11    1    4    4    0    0 -0.25153703778E-02  0.39935286042E-01 -0.21650789324E-01  0.45499142396E-01  0.51100000000E-03 0. -1.
         11    1    4    4    0    0  0.60600133051E-02  0.94850501870E-01  0.19045474725E-01  0.96934682620E-01  0.51100000000E-03 0.  1.
</event>
<event>
 8    1  0.2824193E+004  0.1043930E+01  0.7957747E-01            NaN
         13   -1    0    0    0    0  0.00000000000E+00  0.00000000000E+00  0.74505805969E-08  0.10566000000E+00  0.10566000000E+00 0. -1.
     999900   -1    0    0    0    0 -0.00000000000E+00 -0.00000000000E+00 -0.74505805969E-08  0.93827000000E+00  0.93827000000E+00 0. -1.
     999902    2    1    2    0    0  0.10980505322E-01 -0.52046217473E-02  0.48529341289E-02  0.10308452549E+01  0.10307622078E+01 0.  0.
     999903    2    3    3    0    0  0.12333573242E+00 -0.38353400556E-01  0.39090642811E-01  0.14242263064E+00  0.45535053943E-01 0.  0.
         14    1    1    2    0    0 -0.10980505322E-01  0.52046217473E-02 -0.48529341289E-02  0.13084745099E-01  0.00000000000E+00 0.  1.
     999901    1    3    3    0    0 -0.11235522710E+00  0.33148778809E-01 -0.34237708682E-01  0.88842262426E+00  0.88000000000E+00 0.  1.
        -11    1    4    4    0    0  0.87576183719E-01 -0.27885029177E-01  0.48594962389E-01  0.10396583236E+00  0.51100000000E-03 0. -1.
         11    1    4    4    0    0  0.35759548705E-01 -0.10468371379E-01 -0.95043195784E-02  0.38456798288E-01  0.51100000000E-03 0.  1.
</event>
<event>
 8    1  0.2824193E+004  0.1043930E+01  0.7957747E-01            NaN
         13   -1    0    0    0    0  0.00000000000E+00  0.00000000000E+00  0.74505805969E-08  0.10566000000E+00  0.10566000000E+00 0.  1.
     999900   -1    0    0    0    0 -0.00000000000E+00 -0.00000000000E+00 -0.74505805969E-08  0.93827000000E+00  0.93827000000E+00 0.  1.
     999902    2    1    2    0    0 -0.11699171540E-01  0.60034807955E-02  0.53079079447E-02  0.10297495105E+01  0.10296518674E+01 0.  0.
     999903    2    3    3    0    0 -0.98282847161E-02  0.13172235650E+00 -0.16888159332E-01  0.14053558721E+00  0.44918447919E-01 0.  0.
         14    1    1    2    0    0  0.11699171540E-01 -0.60034807955E-02 -0.53079079447E-02  0.14180489524E-01  0.00000000000E+00 0. -1.
     999901    1    3    3    0    0 -0.18708868238E-02 -0.12571887571E+00  0.22196067277E-01  0.88921392327E+00  0.88000000000E+00 0.  1.
        -11    1    4    4    0    0  0.91196480870E-02  0.82961642172E-01  0.54719266779E-02  0.83642125485E-01  0.51100000000E-03 0.  1.
         11    1    4    4    0    0 -0.18947932803E-01  0.48760714333E-01 -0.22360086010E-01  0.56893461726E-01  0.51100000000E-03 0. -1.
</event>
<event>
 8    1  0.2824193E+004  0.1043930E+01  0.7957747E-01            NaN
         13   -1    0    0    0    0  0.00000000000E+00  0.00000000000E+00  0.74505805969E-08  0.10566000000E+00  0.10566000000E+00 0.  1.
     999900   -1    0    0    0    0 -0.00000000000E+00 -0.00000000000E+00 -0.74505805969E-08  0.93827000000E+00  0.93827000000E+00 0.  1.
     999902    2    1    2    0    0 -0.12222678395E-01 -0.10205868995E-03  0.98636960741E-02  0.10282234159E+01  0.10281034463E+01 0.  0.
     999903    2    3    3    0    0  0.12472089231E+00  0.25401970116E-01  0.24522100848E-01  0.13714605347E+00  0.44801177312E-01 0.  0.
         14    1    1    2    0    0  0.12222678395E-01  0.10205868995E-03 -0.98636960741E-02  0.15706584077E-01  0.00000000000E+00 0. -1.
     999901    1    3    3    0    0 -0.13694357070E+00 -0.25504028806E-01 -0.14658404774E-01  0.89107736245E+00  0.88000000000E+00 0.  1.
        -11    1    4    4    0    0  0.48194152523E-01 -0.11986277828E-01  0.65196657725E-02  0.50091060643E-01  0.51100000000E-03 0. -1.
         11    1    4    4    0    0  0.76526739786E-01  0.37388247944E-01  0.18002435076E-01  0.87054992828E-01  0.51100000000E-03 0.  1.
</event>
<event>
 8    1  0.2824193E+004  0.1043930E+01  0.7957747E-01            NaN
         13   -1    0    0    0    0  0.00000000000E+00  0.00000000000E+00  0.74505805969E-08  0.10566000000E+00  0.10566000000E+00 0.  1.
     999900   -1    0    0    0    0 -0.00000000000E+00 -0.00000000000E+00 -0.74505805969E-08  0.93827000000E+00  0.93827000000E+00 0. -1.
     999902    2    1    2    0    0 -0.34911180820E-02 -0.69858540706E-02 -0.26301878595E-02  0.10356893719E+01  0.10356565875E+01 0.  0.
     999903    2    3    3    0    0  0.86936884887E-01 -0.48252710632E-02 -0.10744162838E+00  0.14486541071E+00  0.43139060234E-01 0.  0.
         14    1    1    2    0    0  0.34911180820E-02  0.69858540706E-02  0.26301878595E-02  0.82406280546E-02  0.00000000000E+00 0. -1.
     999901    1    3    3    0    0 -0.90428002969E-01 -0.21605830074E-02  0.10481144052E+00  0.89082396123E+00  0.88000000000E+00 0.  1.
        -11    1    4    4    0    0  0.21524408397E-01  0.86440068649E-02 -0.55834510604E-01  0.60462986256E-01  0.51100000000E-03 0.  1.
         11    1    4    4    0    0  0.65412476490E-01 -0.13469277928E-01 -0.51607117775E-01  0.84402424458E-01  0.51100000000E-03 0. -1.
</event>
<event>
 7    1  0.2824193E+004  0.1043930E+01  0.7957747E-01            NaN
         13   -1    0    0    0    0  0.00000000000E+00  0.00000000000E+00  0.74505805969E-08  0.10566000000E+00  0.10566000000E+00 0. -1.
     999900   -1    0    0    0    0 -0.00000000000E+00 -0.00000000000E+00 -0.74505805969E-08  0.93827000000E+00  0.93827000000E+00 0.  1.
     999903    2    1    2    0    0  0.31803205982E-01  0.34680524932E-01 -0.29389450344E-01  0.71881744081E-01  0.45706264562E-01 0.  0.
         14    1    1    2    0    0 -0.85133010529E-02  0.25649647826E-01  0.83749803176E-01  0.88002330994E-01  0.00000000000E+00 0. -1.
     999901    1    1    2    0    0 -0.23289904930E-01 -0.60330172758E-01 -0.54360352832E-01  0.88404592493E+00  0.88000000000E+00 0. -1.
        -11    1    3    3    0    0  0.18162001798E-01  0.44381596547E-01 -0.26796578486E-01  0.54935436295E-01  0.51100000000E-03 0.  1.
         11    1    3    3    0    0  0.13641204184E-01 -0.97010716153E-02 -0.25928718580E-02  0.16946307785E-01  0.51100000000E-03 0. -1.
</event>
<event>
 8    1  0.2824193E+004  0.1043930E+01  0.7957747E-01            NaN
         13   -1    0    0    0    0  0.00000000000E+00  0.00000000000E+00  0.74505805969E-08  0.10566000000E+00  0.10566000000E+00 0.  1.
     999900   -1    0    0    0    0 -0.00000000000E+00 -0.00000000000E+00 -0.74505805969E-08  0.93827000000E+00  0.93827000000E+00 0. -1.
     999902    2    1    2    0    0 -0.11901625387E-01 -0.57321805623E-02  0.66489492095E-02  0.10291409802E+01  0.10290347137E+01 0.  0.
     999903    2    3    3    0    0  0.26863713178E-01 -0.59322856374E-01 -0.11392086567E+00  0.13846045821E+00  0.44186813404E-01 0.  0.
         14    1    1    2    0    0  0.11901625387E-01  0.57321805623E-02 -0.66489492095E-02  0.14789019793E-01  0.00000000000E+00 0. -1.
     999901    1    3    3    0    0 -0.38765338565E-01  0.53590675811E-01  0.12056981488E+00  0.89068052200E+00  0.88000000000E+00 0.  1.
        -11    1    4    4    0    0 -0.11607172330E-02 -0.46084877086E-01 -0.54050820296E-01  0.71041645928E-01  0.51100000000E-03 0.  1.
         11    1    4    4    0    0  0.28024430411E-01 -0.13237979288E-01 -0.59870045371E-01  0.67418812280E-01  0.51100000000E-03 0. -1.
</event>
<event>
 8    1  0.2824193E+004  0.1043930E+01  0.7957747E-01            NaN
         13   -1    0    0    0    0  0.00000000000E+00  0.00000000000E+00  0.74505805969E-08  0.10566000000E+00  0.10566000000E+00 0. -1.
     999900   -1    0    0    0    0 -0.00000000000E+00 -0.00000000000E+00 -0.74505805969E-08  0.93827000000E+00  0.93827000000E+00 0. -1.
     999902    2    1    2    0    0  0.30466486867E-02  0.12411853610E-01  0.95485219188E-02  0.10279766164E+01  0.10278528170E+01 0.  0.
     999903    2    3    3    0    0  0.97572023664E-01  0.88944793770E-01  0.77661618882E-02  0.13960984851E+00  0.44711524120E-01 0.  0.
         14    1    1    2    0    0 -0.30466486867E-02 -0.12411853610E-01 -0.95485219188E-02  0.15953383625E-01  0.00000000000E+00 0.  1.
     999901    1    3    3    0    0 -0.94525374977E-01 -0.76532940160E-01  0.17823600306E-02  0.88836676787E+00  0.88000000000E+00 0.  1.
        -11    1    4    4    0    0  0.46269003360E-01  0.22020491350E-01  0.18756658267E-01  0.54569186008E-01  0.51100000000E-03 0.  1.
         11    1    4    4    0    0  0.51303020304E-01  0.66924302421E-01 -0.10990496379E-01  0.85040662500E-01  0.51100000000E-03 0. -1.
</event>
<event>
 8    1  0.2824193E+004  0.1043930E+01  0.7957747E-01            NaN
         13   -1    0    0    0    0  0.00000000000E+00  0.00000000000E+00  0.74505805969E-08  0.10566000000E+00  0.10566000000E+00 0. -1.
     999900   -1    0    0    0    0 -0.00000000000E+00 -0.00000000000E+00 -0.74505805969E-08  0.93827000000E+00  0.93827000000E+00 0.  1.
     999902    2    1    2    0    0  0.12432271581E-01  0.61285970330E-02 -0.30770050289E-02  0.10297317945E+01  0.10296339056E+01 0.  0.
     999903    2    3    3    0    0  0.80915151368E-01  0.10397915774E+00 -0.24326074847E-01  0.14140969079E+00  0.45232905783E-01 0.  0.
         14    1    1    2    0    0 -0.12432271581E-01 -0.61285970330E-02  0.30770050289E-02  0.14198205457E-01  0.00000000000E+00 0.  1.
     999901    1    3    3    0    0 -0.68482879787E-01 -0.97850560707E-01  0.21249069818E-01  0.88832210376E+00  0.88000000000E+00 0. -1.
        -11    1    4    4    0    0  0.29424433068E-01  0.37053939719E-01  0.13020132636E-01  0.49077252214E-01  0.51100000000E-03 0. -1.
         11    1    4    4    0    0  0.51490718300E-01  0.66925218022E-01 -0.37346207483E-01  0.92332438572E-01  0.51100000000E-03 0.  1.
</event>
<event>
 8    1  0.2824193E+004  0.1043930E+01  0.7957747E-01            NaN
         13   -1    0    0    0    0  0.00000000000E+00  0.00000000000E+00  0.74505805969E-08  0.10566000000E+00  0.10566000000E+00 0.  1.
     999900   -1    0    0    0    0 -0.00000000000E+00 -0.00000000000E+00 -0.74505805969E-08  0.93827000000E+00  0.93827000000E+00 0. -1.
     999902    2    1    2    0    0 -0.24454152494E-02 -0.80221324472E-02  0.11448981596E-01  0.10297379655E+01  0.10296401622E+01 0.  0.
     999903    2    3    3    0    0 -0.27530251389E-01  0.64944474124E-01  0.11300278865E+00  0.14054363889E+00  0.44801615257E-01 0.  0.
         14    1    1    2    0    0  0.24454152494E-02  0.80221324472E-02 -0.11448981596E-01  0.14192034538E-01  0.00000000000E+00 0. -1.
     999901    1    3    3    0    0  0.25084836139E-01 -0.72966606571E-01 -0.10155380705E+00  0.88919432657E+00  0.88000000000E+00 0.  1.
        -11    1    4    4    0    0 -0.18096129332E-01  0.12213587791E-02  0.16564021039E-01  0.24568059102E-01  0.51100000000E-03 0. -1.
         11    1    4    4    0    0 -0.94341220563E-02  0.63723115345E-01  0.96438767611E-01  0.11597557979E+00  0.51100000000E-03 0.  1.
</event>
<event>
 8    1  0.2824193E+004  0.1043930E+01  0.7957747E-01            NaN
         13   -1    0    0    0    0  0.00000000000E+00  0.00000000000E+00  0.74505805969E-08  0.10566000000E+00  0.10566000000E+00 0. -1.
     999900   -1    0    0    0    0 -0.00000000000E+00 -0.00000000000E+00 -0.74505805969E-08  0.93827000000E+00  0.93827000000E+00 0.  1.
     999902    2    1    2    0    0 -0.24071736496E-02 -0.13098891034E-01 -0.15189537104E-02  0.10305254242E+01  0.10304382404E+01 0.  0.
     999903    2    3    3    0    0 -0.48453769387E-01  0.27337439252E-01 -0.12150763642E+00  0.14027115169E+00  0.42623783694E-01 0.  0.
         14    1    1    2    0    0  0.24071736496E-02  0.13098891034E-01  0.15189537104E-02  0.13404575774E-01  0.00000000000E+00 0. -1.
     999901    1    3    3    0    0  0.46046595738E-01 -0.40436330286E-01  0.11998868271E+00  0.89025427253E+00  0.88000000000E+00 0. -1.
        -11    1    4    4    0    0 -0.17945265891E-01  0.89194449741E-02 -0.91530329574E-01  0.93699794127E-01  0.51100000000E-03 0. -1.
         11    1    4    4    0    0 -0.30508503496E-01  0.18417994278E-01 -0.29977306845E-01  0.46571357566E-01  0.51100000000E-03 0.  1.
</event>
<event>
 8    1  0.2824193E+004  0.1043930E+01  0.7957747E-01            NaN
         13   -1    0    0    0    0  0.00000000000E+00  0.00000000000E+00  0.74505805969E-08  0.10566000000E+00  0.10566000000E+00 0.  1.
     999900   -1    0    0    0    0 -0.00000000000E+00 -0.00000000000E+00 -0.74505805969E-08  0.93827000000E+00  0.93827000000E+00 0.  1.
     999902    2    1    2    0    0  0.13560414560E-01  0.56615415281E-03  0.62245844727E-02  0.10289984621E+01  0.10288901225E+01 0.  0.
     999903    2    3    3    0    0 -0.70843862518E-01 -0.66277402670E-01 -0.87094683780E-01  0.13753863183E+00  0.43816028364E-01 0.  0.
         14    1    1    2    0    0 -0.13560414560E-01 -0.56615415281E-03 -0.62245844727E-02  0.14931537946E-01  0.00000000000E+00 0.  1.
     999901    1    3    3    0    0  0.84404277078E-01  0.66843556823E-01  0.93319268253E-01  0.89145983023E+00  0.88000000000E+00 0. -1.
        -11    1    4    4    0    0 -0.53749324234E-01 -0.52243250272E-01 -0.38769385884E-01  0.84390008043E-01  0.51100000000E-03 0. -1.
         11    1    4    4    0    0 -0.17094538283E-01 -0.14034152398E-01 -0.48325297896E-01  0.53148623786E-01  0.51100000000E-03 0.  1.
</event>
<event>
 8    1  0.2824193E+004  0.1043930E+01  0.7957747E-01            NaN
         13   -1    0    0    0    0  0.00000000000E+00  0.00000000000E+00  0.74505805969E-08  0.10566000000E+00  0.10566000000E+00 0.  1.
     999900   -1    0    0    0    0 -0.00000000000E+00 -0.00000000000E+00 -0.74505805969E-08  0.93827000000E+00  0.93827000000E+00 0.  1.
     999902    2    1    2    0    0 -0.98371067445E-02  0.74510636011E-02 -0.15005543147E-01  0.10245018415E+01  0.10243176118E+01 0.  0.
     999903    2    3    3    0    0 -0.28245847185E-01  0.32633546848E-01  0.11849066709E+00  0.13388729112E+00  0.44977686376E-01 0.  0.
         14    1    1    2    0    0  0.98371067445E-02 -0.74510636011E-02  0.15005543147E-01  0.19428158508E-01  0.00000000000E+00 0.  1.
     999901    1    3    3    0    0  0.18408740440E-01 -0.25182483247E-01 -0.13349621024E+00  0.89061455037E+00  0.88000000000E+00 0.  1.
        -11    1    4    4    0    0 -0.10083979578E-01  0.31881257720E-01  0.34878539348E-01  0.48320542899E-01  0.51100000000E-03 0. -1.
         11    1    4    4    0    0 -0.18161867607E-01  0.75228912808E-03  0.83612127746E-01  0.85566748221E-01  0.51100000000E-03 0.  1.
</event>
<event>
 8    1  0.2824193E+004  0.1043930E+01  0.7957747E-01            NaN
         13   -1    0    0    0    0  0.00000000000E+00  0.00000000000E+00  0.74505805969E-08  0.10566000000E+00  0.10566000000E+00 0. -1.
     999900   -1    0    0    0    0 -0.00000000000E+00 -0.00000000000E+00 -0.74505805969E-08  0.93827000000E+00  0.93827000000E+00 0.  1.
     999902    2    1    2    0    0  0.25238446680E-02 -0.13219875956E-01 -0.80011501419E-03  0.10304476005E+01  0.10303593947E+01 0.  0.
     999903    2    3    3    0    0 -0.47746859350E-01 -0.11688666127E+00  0.45770542114E-01  0.14171661074E+00  0.45237164730E-01 0.  0.
         14    1    1    2    0    0 -0.25238446680E-02  0.13219875956E-01  0.80011501419E-03  0.13482399499E-01  0.00000000000E+00 0. -1.
     999901    1    3    3    0    0  0.50270704018E-01  0.10366678531E+00 -0.46570657128E-01  0.88873098976E+00  0.88000000000E+00 0. -1.
        -11    1    4    4    0    0 -0.14656676523E-01 -0.85105100609E-01  0.18427000790E-01  0.88303520856E-01  0.51100000000E-03 0.  1.
         11    1    4    4    0    0 -0.33090182827E-01 -0.31781560662E-01  0.27343541324E-01  0.53413089883E-01  0.51100000000E-03 0. -1.
</event>
<event>
 8    1  0.2824193E+004  0.1043930E+01  0.7957747E-01            NaN
         13   -1    0    0    0    0  0.00000000000E+00  0.00000000000E+00  0.74505805969E-08  0.10566000000E+00  0.10566000000E+00 0. -1.
     999900   -1    0    0    0    0 -0.00000000000E+00 -0.00000000000E+00 -0.74505805969E-08  0.93827000000E+00  0.93827000000E+00 0.  1.
     999902    2    1    2    0    0 -0.14023476430E-02  0.91833737392E-02  0.97409760805E-02  0.10304694076E+01  0.10303814888E+01 0.  0.
     999903    2    3    3    0    0  0.13131384832E+00 -0.19789268941E-01 -0.29459719343E-03  0.13998992138E+00  0.44296155302E-01 0.  0.
         14    1    1    2    0    0  0.14023476430E-02 -0.91833737392E-02 -0.97409760805E-02  0.13460592377E-01  0.00000000000E+00 0.  1.
     999901    1    3    3    0    0 -0.13271619596E+00  0.28972642680E-01  0.10035573274E-01  0.89047948625E+00  0.88000000000E+00 0.  1.
        -11    1    4    4    0    0  0.43186607797E-01  0.51119477340E-02  0.17174714094E-01  0.46759459234E-01  0.51100000000E-03 0. -1.
         11    1    4    4    0    0  0.88127240520E-01 -0.24901216675E-01 -0.17469311287E-01  0.93230462143E-01  0.51100000000E-03 0.  1.
</event>
<event>
 8    1  0.2824193E+004  0.1043930E+01  0.7957747E-01            NaN
         13   -1    0    0    0    0  0.00000000000E+00  0.00000000000E+00  0.74505805969E-08  0.10566000000E+00  0.10566000000E+00 0. -1.
     999900   -1    0    0    0    0 -0.00000000000E+00 -0.00000000000E+00 -0.74505805969E-08  0.93827000000E+00  0.93827000000E+00 0.  1.
     999902    2    1    2    0    0  0.53574552642E-02  0.12496590266E-01 -0.22362655509E-02  0.10301507410E+01  0.10300585814E+01 0.  0.
     999903    2    3    3    0    0 -0.12685992664E+00  0.98474181360E-02  0.35564757209E-01  0.13946708699E+00  0.44674419604E-01 0.  0.
         14    1    1    2    0    0 -0.53574552642E-02 -0.12496590266E-01  0.22362655509E-02  0.13779259008E-01  0.00000000000E+00 0. -1.
     999901    1    3    3    0    0  0.13221738190E+00  0.26491721304E-02 -0.37801022760E-01  0.89068365400E+00  0.88000000000E+00 0. -1.
        -11    1    4    4    0    0 -0.80663383065E-01  0.72801442709E-02  0.44393938607E-01  0.92361597940E-01  0.51100000000E-03 0.  1.
         11    1    4    4    0    0 -0.46196543573E-01  0.25672738651E-02 -0.88291813983E-02  0.47105489047E-01  0.51100000000E-03 0. -1.
</event>
<event>
 8    1  0.2824193E+004  0.1043930E+01  0.7957747E-01            NaN
         13   -1    0    0    0    0  0.00000000000E+00  0.00000000000E+00  0.74505805969E-08  0.10566000000E+00  0.10566000000E+00 0.  1.
     999900   -1    0    0    0    0 -0.00000000000E+00 -0.00000000000E+00 -0.74505805969E-08  0.93827000000E+00  0.93827000000E+00 0. -1.
     999902    2    1    2    0    0  0.10330156158E-01  0.11880167327E-02 -0.96155498516E-02  0.10297672916E+01  0.10296698949E+01 0.  0.
     999903    2    3    3    0    0 -0.12897147083E-01 -0.64727051585E-01  0.11325711431E+00  0.13848619373E+00  0.44669053067E-01 0.  0.
         14    1    1    2    0    0 -0.10330156158E-01 -0.11880167327E-02  0.96155498516E-02  0.14162708390E-01  0.00000000000E+00 0.  1.
     999901    1    3    3    0    0  0.23227303241E-01  0.65915068317E-01 -0.12287266416E+00  0.89128109788E+00  0.88000000000E+00 0. -1.
        -11    1    4    4    0    0  0.13574532481E-01 -0.20405253529E-01  0.57447434547E-01  0.62458875756E-01  0.51100000000E-03 0.  1.
         11    1    4    4    0    0 -0.26471679564E-01 -0.44321798056E-01  0.55809679760E-01  0.76027317970E-01  0.51100000000E-03 0. -1.
</event>
<event>
 8    1  0.2824193E+004  0.1043930E+01  0.7957747E-01            NaN
         13   -1    0    0    0    0  0.00000000000E+00  0.00000000000E+00  0.74505805969E-08  0.10566000000E+00  0.10566000000E+00 0. -1.
     999900   -1    0    0    0    0 -0.00000000000E+00 -0.00000000000E+00 -0.74505805969E-08  0.93827000000E+00  0.93827000000E+00 0.  1.
     999902    2    1    2    0    0 -0.91523060540E-02 -0.20491457137E-02  0.13462347150E-01  0.10275227304E+01  0.10273917281E+01 0.  0.
     999903    2    3    3    0    0 -0.39632304930E-01  0.13532382236E-01 -0.12180422235E+00  0.13652954348E+00  0.45279164053E-01 0.  0.
         14    1    1    2    0    0  0.91523060540E-02  0.20491457137E-02 -0.13462347150E-01  0.16407269580E-01  0.00000000000E+00 0.  1.
     999901    1    3    3    0    0  0.30479998876E-01 -0.15581527950E-01  0.13526656950E+00  0.89099318694E+00  0.88000000000E+00 0. -1.
        -11    1    4    4    0    0  0.36966150299E-02 -0.10937898450E-01 -0.17643168174E-01  0.21091351057E-01  0.51100000000E-03 0.  1.
         11    1    4    4    0    0 -0.43328919960E-01  0.24470280686E-01 -0.10416105418E+00  0.11543819243E+00  0.51100000000E-03 0. -1.
</event>
<event>
 7    1  0.2824193E+004  0.1043930E+01  0.7957747E-01            NaN
         13   -1    0    0    0    0  0.00000000000E+00  0.00000000000E+00  0.74505805969E-08  0.10566000000E+00  0.10566000000E+00 0.  1.
     999900   -1    0    0    0    0 -0.00000000000E+00 -0.00000000000E+00 -0.74505805969E-08  0.93827000000E+00  0.93827000000E+00 0.  1.
     999903    2    1    2    0    0  0.31483574099E-01 -0.69035624001E-01 -0.63924611118E-01  0.10798078835E+00  0.42618797805E-01 0.  0.
         14    1    1    2    0    0  0.43426353295E-01 -0.10682763121E-01  0.17302136510E-01  0.47951366156E-01  0.00000000000E+00 0.  1.
     999901    1    1    2    0    0 -0.74909927394E-01  0.79718387122E-01  0.46622474608E-01  0.88799784550E+00  0.88000000000E+00 0. -1.
        -11    1    3    3    0    0  0.50645444866E-02 -0.47352212570E-01 -0.54798266555E-01  0.72601603182E-01  0.51100000000E-03 0. -1.
         11    1    3    3    0    0  0.26419029612E-01 -0.21683411430E-01 -0.91263445633E-02  0.35379185166E-01  0.51100000000E-03 0.  1.
</event>
<event>
 8    1  0.2824193E+004  0.1043930E+01  0.7957747E-01            NaN
         13   -1    0    0    0    0  0.00000000000E+00  0.00000000000E+00  0.74505805969E-08  0.10566000000E+00  0.10566000000E+00 0.  1.
     999900   -1    0    0    0    0 -0.00000000000E+00 -0.00000000000E+00 -0.74505805969E-08  0.93827000000E+00  0.93827000000E+00 0.  1.
     999902    2    1    2    0    0  0.31748144868E-02  0.94090714154E-02 -0.91410002938E-02  0.10304330389E+01  0.10303446412E+01 0.  0.
     999903    2    3    3    0    0  0.15453372175E-01  0.12289198723E-01  0.12992489021E+00  0.13942328588E+00  0.46567632894E-01 0.  0.
         14    1    1    2    0    0 -0.31748144868E-02 -0.94090714154E-02  0.91410002938E-02  0.13496961076E-01  0.00000000000E+00 0.  1.
     999901    1    3    3    0    0 -0.12278557689E-01 -0.28801273075E-02 -0.13906589050E+00  0.89100975304E+00  0.88000000000E+00 0.  1.
        -11    1    4    4    0    0 -0.12427546517E-01 -0.81708386883E-02  0.53601314060E-01  0.55628846000E-01  0.51100000000E-03 0.  1.
         11    1    4    4    0    0  0.27880918692E-01  0.20460037411E-01  0.76323576150E-01  0.83794439883E-01  0.51100000000E-03 0. -1.
</event>
<event>
 8    1  0.2824193E+004  0.1043930E+01  0.7957747E-01            NaN
         13   -1    0    0    0    0  0.00000000000E+00  0.00000000000E+00  0.74505805969E-08  0.10566000000E+00  0.10566000000E+00 0. -1.
     999900   -1    0    0    0    0 -0.00000000000E+00 -0.00000000000E+00 -0.74505805969E-08  0.93827000000E+00  0.93827000000E+00 0.  1.
     999902    2    1    2    0    0 -0.76878923495E-03 -0.16410497642E-02 -0.12269576448E-01  0.10315273153E+01  0.10314527501E+01 0.  0.
     999903    2    3    3    0    0  0.10916506979E+00 -0.53612055145E-01  0.55155159681E-01  0.14061063357E+00  0.44022650030E-01 0.  0.
         14    1    1    2    0    0  0.76878923495E-03  0.16410497642E-02  0.12269576448E-01  0.12402684686E-01  0.00000000000E+00 0. -1.
     999901    1    3    3    0    0 -0.10993385902E+00  0.51971005381E-01 -0.67424736128E-01  0.89091668174E+00  0.88000000000E+00 0. -1.
        -11    1    4    4    0    0  0.10637481981E+00 -0.44477909501E-01  0.38780604629E-01  0.12164737210E+00  0.51100000000E-03 0.  1.
         11    1    4    4    0    0  0.27902499839E-02 -0.91341456444E-02  0.16374555052E-01  0.18963261475E-01  0.51100000000E-03 0. -1.
</event>
<event>
 8    1  0.2824193E+004  0.1043930E+01  0.7957747E-01            NaN
         13   -1    0    0    0    0  0.00000000000E+00  0.00000000000E+00  0.74505805969E-08  0.10566000000E+00  0.10566000000E+00 0. -1.
     999900   -1    0    0    0    0 -0.00000000000E+00 -0.00000000000E+00 -0.74505805969E-08  0.93827000000E+00  0.93827000000E+00 0. -1.
     999902    2    1    2    0    0 -0.80910700848E-02  0.70134575288E-02 -0.80995591649E-02  0.10305040229E+01  0.10304165587E+01 0.  0.
     999903    2    3    3    0    0  0.11945645111E+00 -0.18899631082E-01 -0.53539942440E-01  0.13977135442E+00  0.45193653444E-01 0.  0.
         14    1    1    2    0    0  0.80910700848E-02 -0.70134575288E-02  0.80995591649E-02  0.13425977070E-01  0.00000000000E+00 0.  1.
     999901    1    3    3    0    0 -0.12754752120E+00  0.25913088611E-01  0.45440383275E-01  0.89073266851E+00  0.88000000000E+00 0.  1.
        -11    1    4    4    0    0  0.87015889474E-01 -0.11679078978E-01 -0.59422705540E-01  0.10601643722E+00  0.51100000000E-03 0.  1.
         11    1    4    4    0    0  0.32440561638E-01 -0.72205521040E-02  0.58827630995E-02  0.33754917194E-01  0.51100000000E-03 0. -1.
</event>
<event>
 8    1  0.2824193E+004  0.1043930E+01  0.7957747E-01            NaN
         13   -1    0    0    0    0  0.00000000000E+00  0.00000000000E+00  0.74505805969E-08  0.10566000000E+00  0.10566000000E+00 0.  1.
     999900   -1    0    0    0    0 -0.00000000000E+00 -0.00000000000E+00 -0.74505805969E-08  0.93827000000E+00  0.93827000000E+00 0. -1.
     999902    2    1    2    0    0  0.17794141314E-02  0.23747068711E-02  0.13647971581E-01  0.10299631580E+01  0.10298684548E+01 0.  0.
     999903    2    3    3    0    0 -0.11421877494E+00  0.38576720360E-01 -0.45459117890E-01  0.13964871148E+00  0.53862225301E-01 0.  0.
         14    1    1    2    0    0 -0.17794141314E-02 -0.23747068711E-02 -0.13647971581E-01  0.13966842007E-01  0.00000000000E+00 0. -1.
     999901    1    3    3    0    0  0.11599818908E+00 -0.36202013489E-01  0.59107089471E-01  0.89031444652E+00  0.88000000000E+00 0.  1.
        -11    1    4    4    0    0 -0.96353668089E-01  0.19894027089E-01 -0.14720489388E-01  0.99482438635E-01  0.51100000000E-03 0. -1.
         11    1    4    4    0    0 -0.17865106855E-01  0.18682693271E-01 -0.30738628502E-01  0.40166272842E-01  0.51100000000E-03 0.  1.
</event>
<event>
 8    1  0.2824193E+004  0.1043930E+01  0.7957747E-01            NaN
         13   -1    0    0    0    0  0.00000000000E+00  0.00000000000E+00  0.74505805969E-08  0.10566000000E+00  0.10566000000E+00 0. -1.
     999900   -1    0    0    0    0 -0.00000000000E+00 -0.00000000000E+00 -0.74505805969E-08  0.93827000000E+00  0.93827000000E+00 0. -1.
     999902    2    1    2    0    0 -0.70520258760E-02 -0.11802170046E-01  0.26906941378E-02  0.10299206416E+01  0.10298253570E+01 0.  0.
     999903    2    3    3    0    0  0.23437429060E-01 -0.10144851900E+00 -0.83577486733E-01  0.14064662663E+00  0.44217216148E-01 0.  0.
         14    1    1    2    0    0  0.70520258760E-02  0.11802170046E-01 -0.26906941378E-02  0.14009358361E-01  0.00000000000E+00 0. -1.
     999901    1    3    3    0    0 -0.30489454936E-01  0.89646348958E-01  0.86268180871E-01  0.88927401501E+00  0.88000000000E+00 0. -1.
        -11    1    4    4    0    0  0.25701106240E-02 -0.32146353283E-01 -0.30867389622E-02  0.32400348400E-01  0.51100000000E-03 0.  1.
         11    1    4    4    0    0  0.20867318436E-01 -0.69302165722E-01 -0.80490747771E-01  0.10824627823E+00  0.51100000000E-03 0. -1.
</event>
<event>
 8    1  0.2824193E+004  0.1043930E+01  0.7957747E-01            NaN
         13   -1    0    0    0    0  0.00000000000E+00  0.00000000000E+00  0.74505805969E-08  0.10566000000E+00  0.10566000000E+00 0. -1.
     999900   -1    0    0    0    0 -0.00000000000E+00 -0.00000000000E+00 -0.74505805969E-08  0.93827000000E+00  0.93827000000E+00 0. -1.
     999902    2    1    2    0    0 -0.82158795102E-03  0.13813975781E-01  0.27868450970E-03  0.10300888079E+01  0.10299958124E+01 0.  0.
     999903    2    3    3    0    0 -0.29606621837E-01 -0.10574789306E+00 -0.71773358817E-01  0.13862085245E+00  0.44778976698E-01 0.  0.
         14    1    1    2    0    0  0.82158795102E-03 -0.13813975781E-01 -0.27868450970E-03  0.13841192098E-01  0.00000000000E+00 0.  1.
     999901    1    3    3    0    0  0.28785033886E-01  0.11956186884E+00  0.72052043327E-01  0.89146795546E+00  0.88000000000E+00 0.  1.
        -11    1    4    4    0    0 -0.36578869053E-01 -0.56413155721E-01 -0.30112205103E-01  0.73671322893E-01  0.51100000000E-03 0. -1.
         11    1    4    4    0    0  0.69722472162E-02 -0.49334737338E-01 -0.41661153715E-01  0.64949529554E-01  0.51100000000E-03 0.  1.
</event>
<event>
 8    1  0.2824193E+004  0.1043930E+01  0.7957747E-01            NaN
         13   -1    0    0    0    0  0.00000000000E+00  0.00000000000E+00  0.74505805969E-08  0.10566000000E+00  0.10566000000E+00 0.  1.
     999900   -1    0    0    0    0 -0.00000000000E+00 -0.00000000000E+00 -0.74505805969E-08  0.93827000000E+00  0.93827000000E+00 0. -1.
     999902    2    1    2    0    0 -0.18072849299E-02 -0.45197457867E-02 -0.12556290212E-01  0.10304631962E+01  0.10303751957E+01 0.  0.
     999903    2    3    3    0    0  0.25040852433E-01  0.39922415758E-02 -0.13205858544E+00  0.14193965966E+00  0.45435830716E-01 0.  0.
         14    1    1    2    0    0  0.18072849299E-02  0.45197457867E-02  0.12556290212E-01  0.13466803804E-01  0.00000000000E+00 0.  1.
     999901    1    3    3    0    0 -0.26848137363E-01 -0.85119873625E-02  0.11950229523E+00  0.88852353653E+00  0.88000000000E+00 0.  1.
        -11    1    4    4    0    0  0.37761882431E-01  0.33978831555E-02 -0.82975566310E-01  0.91228893998E-01  0.51100000000E-03 0. -1.
         11    1    4    4    0    0 -0.12721029998E-01  0.59435842036E-03 -0.49083019132E-01  0.50710765665E-01  0.51100000000E-03 0.  1.
</event>
<event>
 8    1  0.2824193E+004  0.1043930E+01  0.7957747E-01            NaN
         13   -1    0    0    0    0  0.00000000000E+00  0.00000000000E+00  0.74505805969E-08  0.10566000000E+00  0.10566000000E+00 0. -1.
     999900   -1    0    0    0    0 -0.00000000000E+00 -0.00000000000E+00 -0.74505805969E-08  0.93827000000E+00  0.93827000000E+00 0.  1.
     999902    2    1    2    0    0 -0.34554441882E-02  0.45858774121E-02  0.12343804187E-01  0.10303160414E+01  0.10302260943E+01 0.  0.
     999903    2    3    3    0    0  0.25200392527E-01 -0.86251886293E-01 -0.95517815624E-01  0.13862843620E+00  0.44941545908E-01 0.  0.
         14    1    1    2    0    0  0.34554441882E-02 -0.45858774121E-02 -0.12343804187E-01  0.13613958572E-01  0.00000000000E+00 0.  1.
     999901    1    3    3    0    0 -0.28655836715E-01  0.90837763705E-01  0.10786161981E+00  0.89168760523E+00  0.88000000000E+00 0. -1.
        -11    1    4    4    0    0  0.38259649395E-01 -0.61035101720E-01 -0.70030965607E-01  0.10046731647E+00  0.51100000000E-03 0.  1.
         11    1    4    4    0    0 -0.13059256868E-01 -0.25216784573E-01 -0.25486850017E-01  0.38161119728E-01  0.51100000000E-03 0. -1.
</event>
<event>
 8    1  0.2824193E+004  0.1043930E+01  0.7957747E-01            NaN
         13   -1    0    0    0    0  0.00000000000E+00  0.00000000000E+00  0.74505805969E-08  0.10566000000E+00  0.10566000000E+00 0. -1.
     999900   -1    0    0    0    0 -0.00000000000E+00 -0.00000000000E+00 -0.74505805969E-08  0.93827000000E+00  0.93827000000E+00 0. -1.
     999902    2    1    2    0    0 -0.27158467797E-02  0.13323958225E-01 -0.45246118135E-02  0.10295990615E+01  0.10294993208E+01 0.  0.
     999903    2    3    3    0    0  0.10562404523E+00 -0.65336310747E-01  0.37545160106E-01  0.13847907191E+00  0.48389481062E-01 0.  0.
         14    1    1    2    0    0  0.27158467797E-02 -0.13323958225E-01  0.45246118135E-02  0.14330938510E-01  0.00000000000E+00 0. -1.
     999901    1    3    3    0    0 -0.10833989201E+00  0.78660268972E-01 -0.42069771920E-01  0.89111998958E+00  0.88000000000E+00 0. -1.
        -11    1    4    4    0    0  0.46777629700E-01 -0.44680713104E-01 -0.18398290889E-02  0.64715986092E-01  0.51100000000E-03 0. -1.
         11    1    4    4    0    0  0.58846415531E-01 -0.20655597643E-01  0.39384989195E-01  0.73763085820E-01  0.51100000000E-03 0.  1.
</event>
<event>
 8    1  0.2824193E+004  0.1043930E+01  0.7957747E-01            NaN
         13   -1    0    0    0    0  0.00000000000E+00  0.00000000000E+00  0.74505805969E-08  0.10566000000E+00  0.10566000000E+00 0.  1.
     999900   -1    0    0    0    0 -0.00000000000E+00 -0.00000000000E+00 -0.74505805969E-08  0.93827000000E+00  0.93827000000E+00 0. -1.
     999902    2    1    2    0    0 -0.28666150240E-02  0.15395191909E-02 -0.13353389057E-01  0.10301858885E+01  0.10300942017E+01 0.  0.
     999903    2    3    3    0    0 -0.34817691845E-01 -0.11887996032E+00  0.42939203178E-01  0.13962955774E+00  0.48040832579E-01 0.  0.
         14    1    1    2    0    0  0.28666150240E-02 -0.15395191909E-02  0.13353389057E-01  0.13744111479E-01  0.00000000000E+00 0.  1.
     999901    1    3    3    0    0  0.31951076821E-01  0.12041947951E+00 -0.56292592235E-01  0.89055633078E+00  0.88000000000E+00 0.  1.
        -11    1    4    4    0    0 -0.27920625283E-01 -0.21521531254E-01  0.11828321067E-01  0.37187469986E-01  0.51100000000E-03 0. -1.
         11    1    4    4    0    0 -0.68970665615E-02 -0.97358429061E-01  0.31110882111E-01  0.10244208775E+00  0.51100000000E-03 0.  1.
</event>
<event>
 8    1  0.2824193E+004  0.1043930E+01  0.7957747E-01            NaN
         13   -1    0    0    0    0  0.00000000000E+00  0.00000000000E+00  0.74505805969E-08  0.10566000000E+00  0.10566000000E+00 0.  1.
     999900   -1    0    0    0    0 -0.00000000000E+00 -0.00000000000E+00 -0.74505805969E-08  0.93827000000E+00  0.93827000000E+00 0. -1.
     999902    2    1    2    0    0 -0.25622981126E-04  0.15052348877E-01  0.47443409567E-02  0.10281476480E+01  0.10280265091E+01 0.  0.
     999903    2    3    3    0    0 -0.37254178494E-01 -0.10327448296E+00 -0.68043767668E-01  0.13647208300E+00  0.44058852375E-01 0.  0.
         14    1    1    2    0    0  0.25622981126E-04 -0.15052348877E-01 -0.47443409567E-02  0.15782351991E-01  0.00000000000E+00 0.  1.
     999901    1    3    3    0    0  0.37228555513E-01  0.11832683184E+00  0.72788108625E-01  0.89167556501E+00  0.88000000000E+00 0. -1.
        -11    1    4    4    0    0 -0.25776305102E-01 -0.51694213467E-01 -0.11168533166E-01  0.58836271676E-01  0.51100000000E-03 0.  1.
         11    1    4    4    0    0 -0.11477873392E-01 -0.51580269498E-01 -0.56875234502E-01  0.77635811323E-01  0.51100000000E-03 0. -1.
</event>
<event>
 8    1  0.2824193E+004  0.1043930E+01  0.7957747E-01            NaN
         13   -1    0    0    0    0  0.00000000000E+00  0.00000000000E+00  0.74505805969E-08  0.10566000000E+00  0.10566000000E+00 0. -1.
     999900   -1    0    0    0    0 -0.00000000000E+00 -0.00000000000E+00 -0.74505805969E-08  0.93827000000E+00  0.93827000000E+00 0. -1.
     999902    2    1    2    0    0  0.11080418807E-01  0.42464309180E-04  0.10635828627E-01  0.10285710178E+01  0.10284563385E+01 0.  0.
     999903    2    3    3    0    0  0.23454316890E-01  0.42621805805E-01  0.12365996343E+00  0.14023517548E+00  0.44803957131E-01 0.  0.
         14    1    1    2    0    0 -0.11080418807E-01 -0.42464309180E-04 -0.10635828627E-01  0.15358982217E-01  0.00000000000E+00 0.  1.
     999901    1    3    3    0    0 -0.12373898083E-01 -0.42579341496E-01 -0.11302413480E+00  0.88833584231E+00  0.88000000000E+00 0. -1.
        -11    1    4    4    0    0 -0.11694616977E-01  0.13326971765E-01  0.54445324855E-01  0.57261913714E-01  0.51100000000E-03 0. -1.
         11    1    4    4    0    0  0.35148933867E-01  0.29294834040E-01  0.69214638576E-01  0.82973261763E-01  0.51100000000E-03 0.  1.
</event>
<event>
 8    1  0.2824193E+004  0.1043930E+01  0.7957747E-01            NaN
         13   -1    0    0    0    0  0.00000000000E+00  0.00000000000E+00  0.74505805969E-08  0.10566000000E+00  0.10566000000E+00 0. -1.
     999900   -1    0    0    0    0 -0.00000000000E+00 -0.00000000000E+00 -0.74505805969E-08  0.93827000000E+00  0.93827000000E+00 0. -1.
     999902    2    1    2    0    0 -0.55449322244E-02  0.11568786072E-01 -0.65372955885E-02  0.10295314126E+01  0.10294307215E+01 0.  0.
     999903    2    3    3    0    0  0.85705728705E-01  0.66307099376E-01  0.75093378312E-01  0.13937045360E+00  0.45199607411E-01 0.  0.
         14    1    1    2    0    0  0.55449322244E-02 -0.11568786072E-01  0.65372955885E-02  0.14398587367E-01  0.00000000000E+00 0. -1.
     999901    1    3    3    0    0 -0.91250660930E-01 -0.54738313304E-01 -0.81630673901E-01  0.89016095903E+00  0.88000000000E+00 0. -1.
        -11    1    4    4    0    0  0.15894917512E-01  0.11110796499E-01  0.38563281317E-01  0.43168113098E-01  0.51100000000E-03 0. -1.
         11    1    4    4    0    0  0.69810811193E-01  0.55196302876E-01  0.36530096996E-01  0.96202340503E-01  0.51100000000E-03 0.  1.
</event>
<event>
 8    1  0.2824193E+004  0.1043930E+01  0.7957747E-01            NaN
         13   -1    0    0    0    0  0.00000000000E+00  0.00000000000E+00  0.74505805969E-08  0.10566000000E+00  0.10566000000E+00 0.  1.
     999900   -1    0    0    0    0 -0.00000000000E+00 -0.00000000000E+00 -0.74505805969E-08  0.93827000000E+00  0.93827000000E+00 0.  1.
     999902    2    1    2    0    0 -0.85319071764E-02 -0.93186331242E-02  0.48156031576E-02  0.10304088907E+01  0.10303201743E+01 0.  0.
     999903    2    3    3    0    0  0.93160918473E-01  0.78164000888E-01 -0.48240532133E-01  0.13866363808E+00  0.45955280663E-01 0.  0.
         14    1    1    2    0    0  0.85319071764E-02  0.93186331242E-02 -0.48156031576E-02  0.13521109316E-01  0.00000000000E+00 0.  1.
     999901    1    3    3    0    0 -0.10169282565E+00 -0.87482634012E-01  0.53056135291E-01  0.89174525260E+00  0.88000000000E+00 0. -1.
        -11    1    4    4    0    0  0.35802514175E-01  0.54229657888E-01 -0.10164947965E-01  0.65774334691E-01  0.51100000000E-03 0.  1.
         11    1    4    4    0    0  0.57358404297E-01  0.23934342999E-01 -0.38075584168E-01  0.72889303393E-01  0.51100000000E-03 0. -1.
</event>
<event>
 8    1  0.2824193E+004  0.1043930E+01  0.7957747E-01            NaN
         13   -1    0    0    0    0  0.00000000000E+00  0.00000000000E+00  0.74505805969E-08  0.10566000000E+00  0.10566000000E+00 0.  1.
     999900   -1    0    0    0    0 -0.00000000000E+00 -0.00000000000E+00 -0.74505805969E-08  0.93827000000E+00  0.93827000000E+00 0.  1.
     999902    2    1    2    0    0  0.10265390075E-01  0.72003892527E-02 -0.63812417192E-02  0.10298607397E+01  0.10297646329E+01 0.  0.
     999903    2    3    3    0    0 -0.33453555161E-01 -0.35272586610E-01  0.12135057046E+00  0.13855231068E+00  0.45907364603E-01 0.  0.
         14    1    1    2    0    0 -0.10265390075E-01 -0.72003892527E-02  0.63812417192E-02  0.14069260274E-01  0.00000000000E+00 0.  1.
     999901    1    3    3    0    0  0.43718945236E-01  0.42472975863E-01 -0.12773181218E+00  0.89130842905E+00  0.88000000000E+00 0.  1.
        -11    1    4    4    0    0 -0.37909855028E-01 -0.37649967666E-01  0.75911070060E-01  0.92830107466E-01  0.51100000000E-03 0. -1.
         11    1    4    4    0    0  0.44562998671E-02  0.23773810561E-02  0.45439500396E-01  0.45722203211E-01  0.51100000000E-03 0.  1.
</event>
<event>
 8    1  0.2824193E+004  0.1043930E+01  0.7957747E-01            NaN
         13   -1    0    0    0    0  0.00000000000E+00  0.00000000000E+00  0.74505805969E-08  0.10566000000E+00  0.10566000000E+00 0.  1.
     999900   -1    0    0    0    0 -0.00000000000E+00 -0.00000000000E+00 -0.74505805969E-08  0.93827000000E+00  0.93827000000E+00 0. -1.
     999902    2    1    2    0    0  0.98107985667E-02 -0.49401487236E-02 -0.99998023266E-02  0.10290756106E+01  0.10289683957E+01 0.  0.
     999903    2    3    3    0    0  0.11712466483E+00 -0.29361149746E-01 -0.54929960210E-01  0.14108272196E+00  0.48028842177E-01 0.  0.
         14    1    1    2    0    0 -0.98107985667E-02  0.49401487236E-02  0.99998023266E-02  0.14854389402E-01  0.00000000000E+00 0.  1.
     999901    1    3    3    0    0 -0.10731386626E+00  0.24421001023E-01  0.44930157884E-01  0.88799288864E+00  0.88000000000E+00 0.  1.
        -11    1    4    4    0    0  0.45916844817E-01 -0.24783196749E-01 -0.19656374189E-02  0.52217701314E-01  0.51100000000E-03 0.  1.
         11    1    4    4    0    0  0.71207820014E-01 -0.45779529974E-02 -0.52964322791E-01  0.88865020647E-01  0.51100000000E-03 0. -1.
</event>
<event>
 8    1  0.2824193E+004  0.1043930E+01  0.7957747E-01            NaN
         13   -1    0    0    0    0  0.00000000000E+00  0.00000000000E+00  0.74505805969E-08  0.10566000000E+00  0.10566000000E+00 0.  1.
     999900   -1    0    0    0    0 -0.00000000000E+00 -0.00000000000E+00 -0.74505805969E-08  0.93827000000E+00  0.93827000000E+00 0.  1.
     999902    2    1    2    0    0  0.10111013324E-01 -0.72172015308E-02 -0.39683830717E-02  0.10308889627E+01  0.10308064730E+01 0.  0.
     999903    2    3    3    0    0 -0.35638611539E-01 -0.77121321188E-01  0.10268737412E+00  0.14052102495E+00  0.44538217680E-01 0.  0.
         14    1    1    2    0    0 -0.10111013324E-01  0.72172015308E-02  0.39683830717E-02  0.13041037251E-01  0.00000000000E+00 0. -1.
     999901    1    3    3    0    0  0.45749624864E-01  0.69904119658E-01 -0.10665575719E+00  0.89036793780E+00  0.88000000000E+00 0.  1.
        -11    1    4    4    0    0 -0.33377351201E-01 -0.49716865780E-01  0.94409445908E-01  0.11179990570E+00  0.51100000000E-03 0. -1.
         11    1    4    4    0    0 -0.22612603381E-02 -0.27404455408E-01  0.82779282146E-02  0.28721119251E-01  0.51100000000E-03 0.  1.
</event>
<event>
 8    1  0.2824193E+004  0.1043930E+01  0.7957747E-01            NaN
         13   -1    0    0    0    0  0.00000000000E+00  0.00000000000E+00  0.74505805969E-08  0.10566000000E+00  0.10566000000E+00 0.  1.
     999900   -1    0    0    0    0 -0.00000000000E+00 -0.00000000000E+00 -0.74505805969E-08  0.93827000000E+00  0.93827000000E+00 0.  1.
     999902    2    1    2    0    0 -0.55199825583E-02 -0.12435484751E-01 -0.36462415338E-02  0.10298443134E+01  0.10297479805E+01 0.  0.
     999903    2    3    3    0    0 -0.58695905320E-01 -0.10446366846E+00 -0.60465950206E-01  0.14162961831E+00  0.45221126909E-01 0.  0.
         14    1    1    2    0    0  0.55199825583E-02  0.12435484751E-01  0.36462415338E-02  0.14085686556E-01  0.00000000000E+00 0.  1.
     999901    1    3    3    0    0  0.53175922762E-01  0.92028183709E-01  0.56819708672E-01  0.88821469513E+00  0.88000000000E+00 0. -1.
        -11    1    4    4    0    0 -0.65898664170E-02 -0.54891683243E-01 -0.18191221027E-01  0.58203993609E-01  0.51100000000E-03 0.  1.
         11    1    4    4    0    0 -0.52106038903E-01 -0.49571985217E-01 -0.42274729179E-01  0.83425624701E-01  0.51100000000E-03 0. -1.
</event>
<event>
 8    1  0.2824193E+004  0.1043930E+01  0.7957747E-01            NaN
         13   -1    0    0    0    0  0.00000000000E+00  0.00000000000E+00  0.74505805969E-08  0.10566000000E+00  0.10566000000E+00 0.  1.
     999900   -1    0    0    0    0 -0.00000000000E+00 -0.00000000000E+00 -0.74505805969E-08  0.93827000000E+00  0.93827000000E+00 0. -1.
     999902    2    1    2    0    0  0.11557543862E-01 -0.67024250845E-02 -0.72870887459E-04  0.10305694374E+01  0.10304828289E+01 0.  0.
     999903    2    3    3    0    0 -0.60998729354E-01 -0.78379830765E-01  0.88743225114E-01  0.14023783506E+00  0.43898149441E-01 0.  0.
         14    1    1    2    0    0 -0.11557543862E-01  0.67024250845E-02  0.72870887459E-04  0.13360562574E-01  0.00000000000E+00 0.  1.
     999901    1    3    3    0    0  0.72556273216E-01  0.71677405680E-01 -0.88816096002E-01  0.89033160237E+00  0.88000000000E+00 0. -1.
        -11    1    4    4    0    0 -0.59165129821E-01 -0.46593485690E-01  0.72305591743E-01  0.10440222801E+00  0.51100000000E-03 0. -1.
         11    1    4    4    0    0 -0.18335995329E-02 -0.31786345075E-01  0.16437633371E-01  0.35835607045E-01  0.51100000000E-03 0.  1.
</event>
<event>
 8    1  0.2824193E+004  0.1043930E+01  0.7957747E-01            NaN
         13   -1    0    0    0    0  0.00000000000E+00  0.00000000000E+00  0.74505805969E-08  0.10566000000E+00  0.10566000000E+00 0. -1.
     999900   -1    0    0    0    0 -0.00000000000E+00 -0.00000000000E+00 -0.74505805969E-08  0.93827000000E+00  0.93827000000E+00 0. -1.
     999902    2    1    2    0    0  0.22032354978E-02 -0.12365669605E-01 -0.51193506728E-02  0.10303663802E+01  0.10302771014E+01 0.  0.
     999903    2    3    3    0    0  0.36705022336E-01  0.26232077121E-01 -0.12530626933E+00  0.14068944175E+00  0.45348399680E-01 0.  0.
         14    1    1    2    0    0 -0.22032354978E-02  0.12365669605E-01  0.51193506728E-02  0.13563619824E-01  0.00000000000E+00 0. -1.
     999901    1    3    3    0    0 -0.34501786838E-01 -0.38597746725E-01  0.12018691865E+00  0.88967693842E+00  0.88000000000E+00 0.  1.
        -11    1    4    4    0    0 -0.74062967000E-02  0.13880396058E-01 -0.17411802050E-01  0.23472336849E-01  0.51100000000E-03 0.  1.
         11    1    4    4    0    0  0.44111319036E-01  0.12351681063E-01 -0.10789446728E+00  0.11721710490E+00  0.51100000000E-03 0. -1.
</event>
<event>
 8    1  0.2824193E+004  0.1043930E+01  0.7957747E-01            NaN
         13   -1    0    0    0    0  0.00000000000E+00  0.00000000000E+00  0.74505805969E-08  0.10566000000E+00  0.10566000000E+00 0. -1.
     999900   -1    0    0    0    0 -0.00000000000E+00 -0.00000000000E+00 -0.74505805969E-08  0.93827000000E+00  0.93827000000E+00 0.  1.
     999902    2    1    2    0    0  0.10158450286E-02  0.96342899450E-02  0.12080767547E-01  0.10284446383E+01  0.10283280496E+01 0.  0.
     999903    2    3    3    0    0 -0.10489212273E+00  0.10096942141E-01  0.80656012930E-01  0.13944560791E+00  0.42841329232E-01 0.  0.
         14    1    1    2    0    0 -0.10158450286E-02 -0.96342899450E-02 -0.12080767547E-01  0.15485361746E-01  0.00000000000E+00 0.  1.
     999901    1    3    3    0    0  0.10590796776E+00 -0.46265219557E-03 -0.68575245383E-01  0.88899903035E+00  0.88000000000E+00 0.  1.
        -11    1    4    4    0    0 -0.25857847042E-01 -0.98915636853E-02  0.48277603856E-02  0.28107644461E-01  0.51100000000E-03 0. -1.
         11    1    4    4    0    0 -0.79034275691E-01  0.19988505826E-01  0.75828252544E-01  0.11133796344E+00  0.51100000000E-03 0.  1.
</event>
<event>
 8    1  0.2824193E+004  0.1043930E+01  0.7957747E-01            NaN
         13   -1    0    0    0    0  0.00000000000E+00  0.00000000000E+00  0.74505805969E-08  0.10566000000E+00  0.10566000000E+00 0. -1.
     999900   -1    0    0    0    0 -0.00000000000E+00 -0.00000000000E+00 -0.74505805969E-08  0.93827000000E+00  0.93827000000E+00 0.  1.
     999902    2    1    2    0    0  0.13588303546E-02  0.12040262018E-01  0.64790457063E-02  0.10301898267E+01  0.10300981927E+01 0.  0.
     999903    2    3    3    0    0  0.10407549201E+00 -0.81019949656E-01  0.26845223716E-02  0.13933332085E+00  0.44840019623E-01 0.  0.
         14    1    1    2    0    0 -0.13588303546E-02 -0.12040262018E-01 -0.64790457063E-02  0.13740173313E-01  0.00000000000E+00 0. -1.
     999901    1    3    3    0    0 -0.10271666166E+00  0.93060211674E-01  0.37945233346E-02  0.89085650583E+00  0.88000000000E+00 0. -1.
        -11    1    4    4    0    0  0.94452886178E-01 -0.53647143076E-01 -0.67046214559E-02  0.10883279256E+00  0.51100000000E-03 0.  1.
         11    1    4    4    0    0  0.96226058354E-02 -0.27372806580E-01  0.93891438276E-02  0.30500528289E-01  0.51100000000E-03 0. -1.
</event>
<event>
 8    1  0.2824193E+004  0.1043930E+01  0.7957747E-01            NaN
         13   -1    0    0    0    0  0.00000000000E+00  0.00000000000E+00  0.74505805969E-08  0.10566000000E+00  0.10566000000E+00 0.  1.
     999900   -1    0    0    0    0 -0.00000000000E+00 -0.00000000000E+00 -0.74505805969E-08  0.93827000000E+00  0.93827000000E+00 0.  1.
     999902    2    1    2    0    0  0.10526968289E-01  0.91294688895E-02 -0.31756857224E-02  0.10296384205E+01  0.10295392308E+01 0.  0.
     999903    2    3    3    0    0  0.80698041502E-01 -0.10130684374E+00 -0.26317049129E-01  0.13966331900E+00  0.45144269958E-01 0.  0.
         14    1    1    2    0    0 -0.10526968289E-01 -0.91294688895E-02  0.31756857224E-02  0.14291579456E-01  0.00000000000E+00 0. -1.
     999901    1    3    3    0    0 -0.70171073214E-01  0.11043631263E+00  0.23141363406E-01  0.88997510154E+00  0.88000000000E+00 0. -1.
        -11    1    4    4    0    0  0.63291875710E-01 -0.52031885601E-01 -0.18459599973E-02  0.81956374611E-01  0.51100000000E-03 0.  1.
         11    1    4    4    0    0  0.17406165793E-01 -0.49274958135E-01 -0.24471089131E-01  0.57706944392E-01  0.51100000000E-03 0. -1.
</event>
<event>
 8    1  0.2824193E+004  0.1043930E+01  0.7957747E-01            NaN
         13   -1    0    0    0    0  0.00000000000E+00  0.00000000000E+00  0.74505805969E-08  0.10566000000E+00  0.10566000000E+00 0.  1.
     999900   -1    0    0    0    0 -0.00000000000E+00 -0.00000000000E+00 -0.74505805969E-08  0.93827000000E+00  0.93827000000E+00 0. -1.
     999902    2    1    2    0    0  0.21643637250E-02  0.44598387134E-02 -0.12836176970E-01  0.10301698375E+01  0.10300779350E+01 0.  0.
     999903    2    3    3    0    0 -0.55533616647E-01 -0.28366043342E-01 -0.11855852895E+00  0.14135950278E+00  0.45141657544E-01 0.  0.
         14    1    1    2    0    0 -0.21643637250E-02 -0.44598387134E-02  0.12836176970E-01  0.13760162459E-01  0.00000000000E+00 0.  1.
     999901    1    3    3    0    0  0.57697980372E-01  0.32825882055E-01  0.10572235198E+00  0.88881033476E+00  0.88000000000E+00 0.  1.
        -11    1    4    4    0    0 -0.10245500082E-01 -0.86947617280E-02 -0.72823873185E-01  0.74055025354E-01  0.51100000000E-03 0.  1.
         11    1    4    4    0    0 -0.45288116565E-01 -0.19671281614E-01 -0.45734655767E-01  0.67304477425E-01  0.51100000000E-03 0. -1.
</event>
<event>
 8    1  0.2824193E+004  0.1043930E+01  0.7957747E-01            NaN
         13   -1    0    0    0    0  0.00000000000E+00  0.00000000000E+00  0.74505805969E-08  0.10566000000E+00  0.10566000000E+00 0.  1.
     999900   -1    0    0    0    0 -0.00000000000E+00 -0.00000000000E+00 -0.74505805969E-08  0.93827000000E+00  0.93827000000E+00 0. -1.
     999902    2    1    2    0    0 -0.63276207234E-02  0.12770908685E-01 -0.22596114954E-02  0.10294994513E+01  0.10293983094E+01 0.  0.
     999903    2    3    3    0    0  0.45744618248E-01  0.80033690209E-01  0.95718969594E-01  0.13998520056E+00  0.43997426852E-01 0.  0.
         14    1    1    2    0    0  0.63276207234E-02 -0.12770908685E-01  0.22596114954E-02  0.14430548734E-01  0.00000000000E+00 0.  1.
     999901    1    3    3    0    0 -0.52072238972E-01 -0.67262781524E-01 -0.97978581090E-01  0.88951425070E+00  0.88000000000E+00 0.  1.
        -11    1    4    4    0    0  0.60081921845E-02  0.37814185591E-01  0.16211882426E-01  0.41582415250E-01  0.51100000000E-03 0.  1.
         11    1    4    4    0    0  0.39736426064E-01  0.42219504617E-01  0.79507087168E-01  0.98402785313E-01  0.51100000000E-03 0. -1.
</event>
<event>
 8    1  0.2824193E+004  0.1043930E+01  0.7957747E-01            NaN
         13   -1    0    0    0    0  0.00000000000E+00  0.00000000000E+00  0.74505805969E-08  0.10566000000E+00  0.10566000000E+00 0.  1.
     999900   -1    0    0    0    0 -0.00000000000E+00 -0.00000000000E+00 -0.74505805969E-08  0.93827000000E+00  0.93827000000E+00 0.  1.
     999902    2    1    2    0    0 -0.13230616345E-02  0.11671476634E-01 -0.62457977275E-02  0.10306264723E+01  0.10305406065E+01 0.  0.
     999903    2    3    3    0    0  0.63537426097E-01  0.28956545379E-01  0.11308619125E+00  0.14003914924E+00  0.44124716826E-01 0.  0.
         14    1    1    2    0    0  0.13230616345E-02 -0.11671476634E-01  0.62457977275E-02  0.13303527659E-01  0.00000000000E+00 0.  1.
     999901    1    3    3    0    0 -0.64860487732E-01 -0.17285068745E-01 -0.11933198897E+00  0.89058732310E+00  0.88000000000E+00 0.  1.
        -11    1    4    4    0    0  0.48341124611E-01  0.90912379094E-02  0.42008649988E-01  0.64687732456E-01  0.51100000000E-03 0. -1.
         11    1    4    4    0    0  0.15196301486E-01  0.19865307470E-01  0.71077541258E-01  0.75351416788E-01  0.51100000000E-03 0.  1.
</event>
<event>
 8    1  0.2824193E+004  0.1043930E+01  0.7957747E-01            NaN
         13   -1    0    0    0    0  0.00000000000E+00  0.00000000000E+00  0.74505805969E-08  0.10566000000E+00  0.10566000000E+00 0. -1.
     999900   -1    0    0    0    0 -0.00000000000E+00 -0.00000000000E+00 -0.74505805969E-08  0.93827000000E+00  0.93827000000E+00 0.  1.
     999902    2    1    2    0    0 -0.24179820171E-02  0.67436812708E-02 -0.11282900892E-01  0.10305648316E+01  0.10304781630E+01 0.  0.
     999903    2    3    3    0    0  0.59490157663E-01 -0.76827277298E-01  0.88389639400E-01  0.13885224439E+00  0.45007866247E-01 0.  0.
         14    1    1    2    0    0  0.24179820171E-02 -0.67436812708E-02  0.11282900892E-01  0.13365168411E-01  0.00000000000E+00 0. -1.
     999901    1    3    3    0    0 -0.61908139680E-01  0.83570958569E-01 -0.99672540292E-01  0.89171258720E+00  0.88000000000E+00 0.  1.
        -11    1    4    4    0    0 -0.79797077090E-03 -0.29444925400E-01  0.33132436747E-01  0.44335762934E-01  0.51100000000E-03 0.  1.
         11    1    4    4    0    0  0.60288128434E-01 -0.47382351898E-01  0.55257202653E-01  0.94516481459E-01  0.51100000000E-03 0. -1.
</event>
<event>
 8    1  0.2824193E+004  0.1043930E+01  0.7957747E-01            NaN
         13   -1    0    0    0    0  0.00000000000E+00  0.00000000000E+00  0.74505805969E-08  0.10566000000E+00  0.10566000000E+00 0.  1.
     999900   -1    0    0    0    0 -0.00000000000E+00 -0.00000000000E+00 -0.74505805969E-08  0.93827000000E+00  0.93827000000E+00 0.  1.
     999902    2    1    2    0    0  0.62642969931E-02  0.56956168206E-03  0.70477226874E-02  0.10344835079E+01  0.10344403762E+01 0.  0.
     999903    2    3    3    0    0  0.11239282517E+00  0.75522637674E-01 -0.12605402372E-01  0.14472653357E+00  0.49508154887E-01 0.  0.
         14    1    1    2    0    0 -0.62642969931E-02 -0.56956168206E-03 -0.70477226874E-02  0.94464920688E-02  0.00000000000E+00 0. -1.
     999901    1    3    3    0    0 -0.10612852818E+00 -0.74953075992E-01  0.19653125059E-01  0.88975697436E+00  0.88000000000E+00 0.  1.
        -11    1    4    4    0    0  0.24680237658E-01  0.42828071638E-01 -0.13010267376E-01  0.51116396873E-01  0.51100000000E-03 0.  1.
         11    1    4    4    0    0  0.87712587512E-01  0.32694566036E-01  0.40486500405E-03  0.93610136700E-01  0.51100000000E-03 0. -1.
</event>
<event>
 8    1  0.2824193E+004  0.1043930E+01  0.7957747E-01            NaN
         13   -1    0    0    0    0  0.00000000000E+00  0.00000000000E+00  0.74505805969E-08  0.10566000000E+00  0.10566000000E+00 0.  1.
     999900   -1    0    0    0    0 -0.00000000000E+00 -0.00000000000E+00 -0.74505805969E-08  0.93827000000E+00  0.93827000000E+00 0. -1.
     999902    2    1    2    0    0  0.63912943075E-03 -0.10200970452E-01 -0.89322770810E-02  0.10303559859E+01  0.10302665693E+01 0.  0.
     999903    2    3    3    0    0  0.36252881708E-01 -0.51173387415E-01 -0.11834700882E+00  0.14191990953E+00  0.46928234689E-01 0.  0.
         14    1    1    2    0    0 -0.63912943075E-03  0.10200970452E-01  0.89322770810E-02  0.13574014087E-01  0.00000000000E+00 0.  1.
     999901    1    3    3    0    0 -0.35613752277E-01  0.40972416964E-01  0.10941473174E+00  0.88843607639E+00  0.88000000000E+00 0.  1.
        -11    1    4    4    0    0  0.74977326478E-03 -0.18454858305E-01 -0.74303892516E-01  0.76566791229E-01  0.51100000000E-03 0.  1.
         11    1    4    4    0    0  0.35503108443E-01 -0.32718529110E-01 -0.44043116307E-01  0.65353118298E-01  0.51100000000E-03 0. -1.
</event>
<event>
 8    1  0.2824193E+004  0.1043930E+01  0.7957747E-01            NaN
         13   -1    0    0    0    0  0.00000000000E+00  0.00000000000E+00  0.74505805969E-08  0.10566000000E+00  0.10566000000E+00 0. -1.
     999900   -1    0    0    0    0 -0.00000000000E+00 -0.00000000000E+00 -0.74505805969E-08  0.93827000000E+00  0.93827000000E+00 0. -1.
     999902    2    1    2    0    0  0.67985835112E-02 -0.65384104612E-02 -0.94200672927E-02  0.10305992379E+01  0.10305130179E+01 0.  0.
     999903    2    3    3    0    0 -0.22940496075E-01  0.12339283746E+00 -0.42531268896E-01  0.13994616648E+00  0.44988465004E-01 0.  0.
         14    1    1    2    0    0 -0.67985835112E-02  0.65384104612E-02  0.94200672927E-02  0.13330762053E-01  0.00000000000E+00 0. -1.
     999901    1    3    3    0    0  0.29739079586E-01 -0.12993124792E+00  0.33111201603E-01  0.89065307147E+00  0.88000000000E+00 0. -1.
        -11    1    4    4    0    0 -0.14546655901E-01  0.74372717897E-01 -0.20391119514E-02  0.75811117020E-01  0.51100000000E-03 0.  1.
         11    1    4    4    0    0 -0.83938401740E-02  0.49020119559E-01 -0.40492156944E-01  0.64135049461E-01  0.51100000000E-03 0. -1.
</event>
<event>
 8    1  0.2824193E+004  0.1043930E+01  0.7957747E-01            NaN
         13   -1    0    0    0    0  0.00000000000E+00  0.00000000000E+00  0.74505805969E-08  0.10566000000E+00  0.10566000000E+00 0. -1.
     999900   -1    0    0    0    0 -0.00000000000E+00 -0.00000000000E+00 -0.74505805969E-08  0.93827000000E+00  0.93827000000E+00 0. -1.
     999902    2    1    2    0    0 -0.96384310247E-02  0.30288279643E-02  0.27509690222E-02  0.10334590410E+01  0.10334059940E+01 0.  0.
     999903    2    3    3    0    0  0.85047246164E-02 -0.68883172672E-01  0.11658352336E+00  0.14303309780E+00  0.45271705614E-01 0.  0.
         14    1    1    2    0    0  0.96384310247E-02 -0.30288279643E-02 -0.27509690222E-02  0.10470958983E-01  0.00000000000E+00 0.  1.
     999901    1    3    3    0    0 -0.18143155641E-01  0.71912000636E-01 -0.11383255433E+00  0.89042594322E+00  0.88000000000E+00 0. -1.
        -11    1    4    4    0    0  0.62689913275E-02 -0.26895495927E-01  0.11631197660E-01  0.29970215772E-01  0.51100000000E-03 0. -1.
         11    1    4    4    0    0  0.22357332888E-02 -0.41987676745E-01  0.10495232570E+00  0.11306288203E+00  0.51100000000E-03 0.  1.
</event>
<event>
 8    1  0.2824193E+004  0.1043930E+01  0.7957747E-01            NaN
         13   -1    0    0    0    0  0.00000000000E+00  0.00000000000E+00  0.74505805969E-08  0.10566000000E+00  0.10566000000E+00 0. -1.
     999900   -1    0    0    0    0 -0.00000000000E+00 -0.00000000000E+00 -0.74505805969E-08  0.93827000000E+00  0.93827000000E+00 0. -1.
     999902    2    1    2    0    0  0.80102051516E-03  0.54374416786E-02  0.11910695927E-01  0.10308123751E+01  0.10307289074E+01 0.  0.
     999903    2    3    3    0    0  0.39144484313E-01 -0.11610292308E+00 -0.49685672768E-01  0.13950076060E+00  0.44492884030E-01 0.  0.
         14    1    1    2    0    0 -0.80102051516E-03 -0.54374416786E-02 -0.11910695927E-01  0.13117624912E-01  0.00000000000E+00 0. -1.
     999901    1    3    3    0    0 -0.38343463798E-01  0.12154036476E+00  0.61596368695E-01  0.89131161449E+00  0.88000000000E+00 0.  1.
        -11    1    4    4    0    0  0.36395997413E-01 -0.61599842827E-01 -0.45442389255E-01  0.84761318573E-01  0.51100000000E-03 0.  1.
         11    1    4    4    0    0  0.27484869000E-02 -0.54503080255E-01 -0.42432835137E-02  0.54739442028E-01  0.51100000000E-03 0. -1.
</event>
<event>
 8    1  0.2824193E+004  0.1043930E+01  0.7957747E-01            NaN
         13   -1    0    0    0    0  0.00000000000E+00  0.00000000000E+00  0.74505805969E-08  0.10566000000E+00  0.10566000000E+00 0. -1.
     999900   -1    0    0    0    0 -0.00000000000E+00 -0.00000000000E+00 -0.74505805969E-08  0.93827000000E+00  0.93827000000E+00 0.  1.
     999902    2    1    2    0    0  0.44071799628E-02 -0.89253746657E-02 -0.94295719672E-02  0.10302186042E+01  0.10301273562E+01 0.  0.
     999903    2    3    3    0    0 -0.18411700498E-02 -0.12692539920E+00 -0.43998810674E-01  0.14164779667E+00  0.44886034505E-01 0.  0.
         14    1    1    2    0    0 -0.44071799628E-02  0.89253746657E-02  0.94295719672E-02  0.13711395831E-01  0.00000000000E+00 0.  1.
     999901    1    3    3    0    0  0.62483500126E-02  0.11800002453E+00  0.34569238707E-01  0.88857080749E+00  0.88000000000E+00 0.  1.
        -11    1    4    4    0    0 -0.14607733914E-01 -0.10033357086E+00 -0.19391219138E-01  0.10323028544E+00  0.51100000000E-03 0. -1.
         11    1    4    4    0    0  0.12766563864E-01 -0.26591828337E-01 -0.24607591536E-01  0.38417511233E-01  0.51100000000E-03 0.  1.
</event>
<event>
 8    1  0.2824193E+004  0.1043930E+01  0.7957747E-01            NaN
         13   -1    0    0    0    0  0.00000000000E+00  0.00000000000E+00  0.74505805969E-08  0.10566000000E+00  0.10566000000E+00 0. -1.
     999900   -1    0    0    0    0 -0.00000000000E+00 -0.00000000000E+00 -0.74505805969E-08  0.93827000000E+00  0.93827000000E+00 0.  1.
     999902    2    1    2    0    0 -0.43224545317E-02  0.11582341421E-01 -0.43528676659E-02  0.10308234481E+01  0.10307401222E+01 0.  0.
     999903    2    3    3    0    0 -0.19793674101E-01  0.14242341919E-01 -0.13179368634E+00  0.14150483449E+00  0.45380707196E-01 0.  0.
         14    1    1    2    0    0  0.43224545317E-02 -0.11582341421E-01  0.43528676659E-02  0.13106551907E-01  0.00000000000E+00 0.  1.
     999901    1    3    3    0    0  0.15471219569E-01 -0.26600004984E-02  0.12744081868E+00  0.88931861360E+00  0.88000000000E+00 0. -1.
        -11    1    4    4    0    0 -0.15743712024E-01 -0.11463647273E-01 -0.25611122935E-01  0.32178726141E-01  0.51100000000E-03 0.  1.
         11    1    4    4    0    0 -0.40499620773E-02  0.25705989192E-01 -0.10618256341E+00  0.10932610835E+00  0.51100000000E-03 0. -1.
</event>
<event>
 8    1  0.2824193E+004  0.1043930E+01  0.7957747E-01            NaN
         13   -1    0    0    0    0  0.00000000000E+00  0.00000000000E+00  0.74505805969E-08  0.10566000000E+00  0.10566000000E+00 0.  1.
     999900   -1    0    0    0    0 -0.00000000000E+00 -0.00000000000E+00 -0.74505805969E-08  0.93827000000E+00  0.93827000000E+00 0. -1.
     999902    2    1    2    0    0  0.88886716642E-02  0.14496293943E-02  0.99968257008E-02  0.10304746504E+01  0.10303868005E+01 0.  0.
     999903    2    3    3    0    0  0.42022131440E-01  0.91041154404E-01  0.89635939105E-01  0.14173011121E+00  0.44704267355E-01 0.  0.
         14    1    1    2    0    0 -0.88886716642E-02 -0.14496293943E-02 -0.99968257008E-02  0.13455349621E-01  0.00000000000E+00 0. -1.
     999901    1    3    3    0    0 -0.33133459776E-01 -0.89591525009E-01 -0.79639113404E-01  0.88874453916E+00  0.88000000000E+00 0. -1.
        -11    1    4    4    0    0  0.18391806548E-01  0.49987513623E-01  0.75303004981E-01  0.92237810829E-01  0.51100000000E-03 0.  1.
         11    1    4    4    0    0  0.23630324892E-01  0.41053640781E-01  0.14332934123E-01  0.49492300386E-01  0.51100000000E-03 0. -1.
</event>
<event>
 8    1  0.2824193E+004  0.1043930E+01  0.7957747E-01            NaN
         13   -1    0    0    0    0  0.00000000000E+00  0.00000000000E+00  0.74505805969E-08  0.10566000000E+00  0.10566000000E+00 0. -1.
     999900   -1    0    0    0    0 -0.00000000000E+00 -0.00000000000E+00 -0.74505805969E-08  0.93827000000E+00  0.93827000000E+00 0. -1.
     999902    2    1    2    0    0  0.18116813051E-02  0.59796453465E-02  0.12306638352E-01  0.10301281271E+01  0.10300356628E+01 0.  0.
     999903    2    3    3    0    0  0.16340372799E-01 -0.12751936210E-01  0.13271107900E+00  0.14161297004E+00  0.44859593539E-01 0.  0.
         14    1    1    2    0    0 -0.18116813051E-02 -0.59796453465E-02 -0.12306638352E-01  0.13801872886E-01  0.00000000000E+00 0.  1.
     999901    1    3    3    0    0 -0.14528691494E-01  0.18731581557E-01 -0.12040444065E+00  0.88851515708E+00  0.88000000000E+00 0. -1.
        -11    1    4    4    0    0  0.10683840392E-01 -0.25204752003E-01  0.43795063131E-01  0.51649710984E-01  0.51100000000E-03 0.  1.
         11    1    4    4    0    0  0.56565324066E-02  0.12452815793E-01  0.88916015873E-01  0.89963259055E-01  0.51100000000E-03 0. -1.
</event>
<event>
 7    1  0.2824193E+004  0.1043930E+01  0.7957747E-01            NaN
         13   -1    0    0    0    0  0.00000000000E+00  0.00000000000E+00  0.74505805969E-08  0.10566000000E+00  0.10566000000E+00 0. -1.
     999900   -1    0    0    0    0 -0.00000000000E+00 -0.00000000000E+00 -0.74505805969E-08  0.93827000000E+00  0.93827000000E+00 0.  1.
     999903    2    1    2    0    0 -0.10468386464E+00 -0.92190447524E-02 -0.28628242381E-01  0.11773830732E+00  0.44710518312E-01 0.  0.
         14    1    1    2    0    0 -0.27550309657E-01  0.12367260777E-02  0.23544852326E-01  0.36261675701E-01  0.00000000000E+00 0. -1.
     999901    1    1    2    0    0  0.13223417429E+00  0.79823186747E-02  0.50833900556E-02  0.88993001698E+00  0.88000000000E+00 0.  1.
        -11    1    3    3    0    0 -0.85881788878E-01 -0.25211310053E-01 -0.23039682219E-01  0.92424996041E-01  0.51100000000E-03 0. -1.
         11    1    3    3    0    0 -0.18802075758E-01  0.15992265301E-01 -0.55885601626E-02  0.25313311280E-01  0.51100000000E-03 0.  1.
</event>
<event>
 8    1  0.2824193E+004  0.1043930E+01  0.7957747E-01            NaN
         13   -1    0    0    0    0  0.00000000000E+00  0.00000000000E+00  0.74505805969E-08  0.10566000000E+00  0.10566000000E+00 0.  1.
     999900   -1    0    0    0    0 -0.00000000000E+00 -0.00000000000E+00 -0.74505805969E-08  0.93827000000E+00  0.93827000000E+00 0.  1.
     999902    2    1    2    0    0  0.54337230861E-02 -0.11051957251E-01 -0.15872292885E-02  0.10315126572E+01  0.10314379145E+01 0.  0.
     999903    2    3    3    0    0 -0.92677074765E-01 -0.58714133079E-01  0.76500525943E-01  0.14134688096E+00  0.45718931268E-01 0.  0.
         14    1    1    2    0    0 -0.54337230861E-02  0.11051957251E-01  0.15872292885E-02  0.12417342811E-01  0.00000000000E+00 0.  1.
     999901    1    3    3    0    0  0.98110797851E-01  0.47662175828E-01 -0.78087755232E-01  0.89016577623E+00  0.88000000000E+00 0.  1.
        -11    1    4    4    0    0 -0.27581456423E-01 -0.13288391716E-01  0.48139405652E-01  0.57052445963E-01  0.51100000000E-03 0.  1.
         11    1    4    4    0    0 -0.65095618342E-01 -0.45425741364E-01  0.28361120291E-01  0.84294434994E-01  0.51100000000E-03 0. -1.
</event>
<event>
 8    1  0.2824193E+004  0.1043930E+01  0.7957747E-01            NaN
         13   -1    0    0    0    0  0.00000000000E+00  0.00000000000E+00  0.74505805969E-08  0.10566000000E+00  0.10566000000E+00 0.  1.
     999900   -1    0    0    0    0 -0.00000000000E+00 -0.00000000000E+00 -0.74505805969E-08  0.93827000000E+00  0.93827000000E+00 0.  1.
     999902    2    1    2    0    0  0.84770089452E-02  0.99937218001E-02 -0.49778258691E-02  0.10299116939E+01  0.10298162867E+01 0.  0.
     999903    2    3    3    0    0  0.98551859980E-01 -0.81949742299E-01  0.32452265789E-01  0.13976109362E+00  0.45296626444E-01 0.  0.
         14    1    1    2    0    0 -0.84770089452E-02 -0.99937218001E-02  0.49778258691E-02  0.14018306119E-01  0.00000000000E+00 0. -1.
     999901    1    3    3    0    0 -0.90074851034E-01  0.91943464099E-01 -0.37430091658E-01  0.89015060026E+00  0.88000000000E+00 0.  1.
        -11    1    4    4    0    0  0.64845153581E-01 -0.47994167101E-01  0.42025040907E-01  0.90965373648E-01  0.51100000000E-03 0. -1.
         11    1    4    4    0    0  0.33706706398E-01 -0.33955575198E-01 -0.95727751185E-02  0.48795719973E-01  0.51100000000E-03 0.  1.
</event>
<event>
 8    1  0.2824193E+004  0.1043930E+01  0.7957747E-01            NaN
         13   -1    0    0    0    0  0.00000000000E+00  0.00000000000E+00  0.74505805969E-08  0.10566000000E+00  0.10566000000E+00 0. -1.
     999900   -1    0    0    0    0 -0.00000000000E+00 -0.00000000000E+00 -0.74505805969E-08  0.93827000000E+00  0.93827000000E+00 0.  1.
     999902    2    1    2    0    0 -0.70772748597E-02 -0.11708783159E-01 -0.42191116516E-02  0.10296127263E+01  0.10295131771E+01 0.  0.
     999903    2    3    3    0    0  0.11449757585E+00 -0.12986261089E-02  0.64003844032E-01  0.13857782949E+00  0.44675960759E-01 0.  0.
         14    1    1    2    0    0  0.70772748597E-02  0.11708783159E-01  0.42191116516E-02  0.14317273680E-01  0.00000000000E+00 0. -1.
     999901    1    3    3    0    0 -0.12157485071E+00 -0.10410157050E-01 -0.68222955684E-01  0.89103489683E+00  0.88000000000E+00 0.  1.
        -11    1    4    4    0    0  0.99502248592E-01 -0.95419834263E-02  0.36966522666E-01  0.10657641316E+00  0.51100000000E-03 0.  1.
         11    1    4    4    0    0  0.14995327254E-01  0.82433573174E-02  0.27037321367E-01  0.32001416328E-01  0.51100000000E-03 0. -1.
</event>
<event>
 8    1  0.2824193E+004  0.1043930E+01  0.7957747E-01            NaN
         13   -1    0    0    0    0  0.00000000000E+00  0.00000000000E+00  0.74505805969E-08  0.10566000000E+00  0.10566000000E+00 0. -1.
     999900   -1    0    0    0    0 -0.00000000000E+00 -0.00000000000E+00 -0.74505805969E-08  0.93827000000E+00  0.93827000000E+00 0.  1.
     999902    2    1    2    0    0 -0.12433540669E-01 -0.59673721916E-02  0.38268038663E-02  0.10296175267E+01  0.10295180447E+01 0.  0.
     999903    2    3    3    0    0 -0.76576216312E-01  0.88316032780E-01 -0.62137458692E-01  0.13981140892E+00  0.44972522050E-01 0.  0.
         14    1    1    2    0    0  0.12433540669E-01  0.59673721916E-02 -0.38268038663E-02  0.14312473311E-01  0.00000000000E+00 0. -1.
     999901    1    3    3    0    0  0.64142675642E-01 -0.94283404972E-01  0.65964262559E-01  0.88980611777E+00  0.88000000000E+00 0. -1.
        -11    1    4    4    0    0 -0.16938756440E-01 -0.13103397714E-02 -0.40034463914E-02  0.17462163785E-01  0.51100000000E-03 0.  1.
         11    1    4    4    0    0 -0.59637459872E-01  0.89626372552E-01 -0.58134012301E-01  0.12234924513E+00  0.51100000000E-03 0. -1.
</event>
<event>
 8    1  0.2824193E+004  0.1043930E+01  0.7957747E-01            NaN
         13   -1    0    0    0    0  0.00000000000E+00  0.00000000000E+00  0.74505805969E-08  0.10566000000E+00  0.10566000000E+00 0. -1.
     999900   -1    0    0    0    0 -0.00000000000E+00 -0.00000000000E+00 -0.74505805969E-08  0.93827000000E+00  0.93827000000E+00 0. -1.
     999902    2    1    2    0    0 -0.12561751059E-01  0.18901133183E-02  0.62459649292E-02  0.10297743582E+01  0.10296770593E+01 0.  0.
     999903    2    3    3    0    0 -0.10239940769E+00  0.12708248359E-01  0.86462125244E-01  0.14150499081E+00  0.43598452384E-01 0.  0.
         14    1    1    2    0    0  0.12561751059E-01 -0.18901133183E-02 -0.62459649292E-02  0.14155641840E-01  0.00000000000E+00 0. -1.
     999901    1    3    3    0    0  0.89837656634E-01 -0.10818135041E-01 -0.80216160315E-01  0.88826936735E+00  0.88000000000E+00 0. -1.
        -11    1    4    4    0    0 -0.76957755729E-01 -0.97525740629E-02  0.53837540309E-01  0.94426430278E-01  0.51100000000E-03 0.  1.
         11    1    4    4    0    0 -0.25441651964E-01  0.22460822422E-01  0.32624584936E-01  0.47078560532E-01  0.51100000000E-03 0. -1.
</event>
<event>
 8    1  0.2824193E+004  0.1043930E+01  0.7957747E-01            NaN
         13   -1    0    0    0    0  0.00000000000E+00  0.00000000000E+00  0.74505805969E-08  0.10566000000E+00  0.10566000000E+00 0. -1.
     999900   -1    0    0    0    0 -0.00000000000E+00 -0.00000000000E+00 -0.74505805969E-08  0.93827000000E+00  0.93827000000E+00 0. -1.
     999902    2    1    2    0    0 -0.12360018082E-01  0.37441367546E-02  0.26960166339E-02  0.10307369294E+01  0.10306524926E+01 0.  0.
     999903    2    3    3    0    0 -0.10094757679E+00  0.67858835856E-01 -0.57927922383E-01  0.14189852326E+00  0.44545615354E-01 0.  0.
         14    1    1    2    0    0  0.12360018082E-01 -0.37441367546E-02 -0.26960166339E-02  0.13193070632E-01  0.00000000000E+00 0. -1.
     999901    1    3    3    0    0  0.88587558707E-01 -0.64114699102E-01  0.60623939017E-01  0.88883840611E+00  0.88000000000E+00 0.  1.
        -11    1    4    4    0    0 -0.81114395564E-01  0.32154071466E-01 -0.29401499475E-01  0.92076809088E-01  0.51100000000E-03 0. -1.
         11    1    4    4    0    0 -0.19833181225E-01  0.35704764390E-01 -0.28526422908E-01  0.49821714167E-01  0.51100000000E-03 0.  1.
</event>
<event>
 8    1  0.2824193E+004  0.1043930E+01  0.7957747E-01            NaN
         13   -1    0    0    0    0  0.00000000000E+00  0.00000000000E+00  0.74505805969E-08  0.10566000000E+00  0.10566000000E+00 0. -1.
     999900   -1    0    0    0    0 -0.00000000000E+00 -0.00000000000E+00 -0.74505805969E-08  0.93827000000E+00  0.93827000000E+00 0. -1.
     999902    2    1    2    0    0 -0.63434245450E-02 -0.18861248569E-02 -0.12097768095E-01  0.10301404208E+01  0.10300481222E+01 0.  0.
     999903    2    3    3    0    0  0.80626922376E-02  0.10142231474E+00  0.80423599640E-01  0.13916321941E+00  0.50467349080E-01 0.  0.
         14    1    1    2    0    0  0.63434245450E-02  0.18861248569E-02  0.12097768095E-01  0.13789579211E-01  0.00000000000E+00 0. -1.
     999901    1    3    3    0    0 -0.14406116783E-01 -0.10330843960E+00 -0.92521367734E-01  0.89097720138E+00  0.88000000000E+00 0. -1.
        -11    1    4    4    0    0  0.34866512893E-02  0.79604785096E-01  0.84882915972E-01  0.11642357619E+00  0.51100000000E-03 0. -1.
         11    1    4    4    0    0  0.45760409482E-02  0.21817529647E-01 -0.44593163323E-02  0.22739643221E-01  0.51100000000E-03 0.  1.
</event>
<event>
 8    1  0.2824193E+004  0.1043930E+01  0.7957747E-01            NaN
         13   -1    0    0    0    0  0.00000000000E+00  0.00000000000E+00  0.74505805969E-08  0.10566000000E+00  0.10566000000E+00 0. -1.
     999900   -1    0    0    0    0 -0.00000000000E+00 -0.00000000000E+00 -0.74505805969E-08  0.93827000000E+00  0.93827000000E+00 0. -1.
     999902    2    1    2    0    0 -0.95008162042E-02 -0.92124756894E-02  0.42987886505E-02  0.10300154464E+01  0.10299214558E+01 0.  0.
     999903    2    3    3    0    0 -0.99563700622E-02 -0.12768085569E+00  0.40068540730E-01  0.14135665942E+00  0.44437450332E-01 0.  0.
         14    1    1    2    0    0  0.95008162042E-02  0.92124756894E-02 -0.42987886505E-02  0.13914553559E-01  0.00000000000E+00 0. -1.
     999901    1    3    3    0    0  0.45555385804E-03  0.11846838000E+00 -0.35769752080E-01  0.88865878702E+00  0.88000000000E+00 0.  1.
        -11    1    4    4    0    0 -0.25502013329E-01 -0.63520918337E-01  0.29332987093E-01  0.74471101798E-01  0.51100000000E-03 0.  1.
         11    1    4    4    0    0  0.15545643267E-01 -0.64159937350E-01  0.10735553637E-01  0.66885557621E-01  0.51100000000E-03 0. -1.
</event>
<event>
 8    1  0.2824193E+004  0.1043930E+01  0.7957747E-01            NaN
         13   -1    0    0    0    0  0.00000000000E+00  0.00000000000E+00  0.74505805969E-08  0.10566000000E+00  0.10566000000E+00 0. -1.
     999900   -1    0    0    0    0 -0.00000000000E+00 -0.00000000000E+00 -0.74505805969E-08  0.93827000000E+00  0.93827000000E+00 0. -1.
     999902    2    1    2    0    0  0.76006181211E-02 -0.62234206309E-02  0.99309881914E-02  0.10299612890E+01  0.10298665603E+01 0.  0.
     999903    2    3    3    0    0 -0.65926454612E-01 -0.63354226404E-01  0.97285658729E-01  0.14074759262E+00  0.44557042229E-01 0.  0.
         14    1    1    2    0    0 -0.76006181211E-02  0.62234206309E-02 -0.99309881914E-02  0.13968710987E-01  0.00000000000E+00 0.  1.
     999901    1    3    3    0    0  0.73527072733E-01  0.57130805773E-01 -0.87354670538E-01  0.88921369640E+00  0.88000000000E+00 0. -1.
        -11    1    4    4    0    0 -0.26873158455E-01 -0.35073624760E-01  0.17510204061E-01  0.47530981122E-01  0.51100000000E-03 0.  1.
         11    1    4    4    0    0 -0.39053296157E-01 -0.28280601644E-01  0.79775454669E-01  0.93216611495E-01  0.51100000000E-03 0. -1.
</event>
<event>
 8    1  0.2824193E+004  0.1043930E+01  0.7957747E-01            NaN
         13   -1    0    0    0    0  0.00000000000E+00  0.00000000000E+00  0.74505805969E-08  0.10566000000E+00  0.10566000000E+00 0. -1.
     999900   -1    0    0    0    0 -0.00000000000E+00 -0.00000000000E+00 -0.74505805969E-08  0.93827000000E+00  0.93827000000E+00 0.  1.
     999902    2    1    2    0    0 -0.16879946790E-02  0.11078766925E-01  0.10489730551E-01  0.10285799886E+01  0.10284654443E+01 0.  0.
     999903    2    3    3    0    0  0.77190602249E-01 -0.54185975629E-01 -0.88499096905E-01  0.13713166838E+00  0.45590517548E-01 0.  0.
         14    1    1    2    0    0  0.16879946790E-02 -0.11078766925E-01 -0.10489730551E-01  0.15350011390E-01  0.00000000000E+00 0.  1.
     999901    1    3    3    0    0 -0.78878596928E-01  0.65264742554E-01  0.98988827457E-01  0.89144832023E+00  0.88000000000E+00 0.  1.
        -11    1    4    4    0    0  0.48513368959E-01 -0.37597819759E-01 -0.26543335620E-01  0.66872661120E-01  0.51100000000E-03 0.  1.
         11    1    4    4    0    0  0.28677233290E-01 -0.16588155869E-01 -0.61955761285E-01  0.70259007264E-01  0.51100000000E-03 0. -1.
</event>
<event>
 8    1  0.2824193E+004  0.1043930E+01  0.7957747E-01            NaN
         13   -1    0    0    0    0  0.00000000000E+00  0.00000000000E+00  0.74505805969E-08  0.10566000000E+00  0.10566000000E+00 0. -1.
     999900   -1    0    0    0    0 -0.00000000000E+00 -0.00000000000E+00 -0.74505805969E-08  0.93827000000E+00  0.93827000000E+00 0. -1.
     999902    2    1    2    0    0  0.14651367866E-02  0.72066288679E-02  0.11833581828E-01  0.10299974559E+01  0.10299032204E+01 0.  0.
     999903    2    3    3    0    0  0.11243433960E+00  0.69740504182E-01 -0.14148278289E-01  0.14044717259E+00  0.44944586607E-01 0.  0.
         14    1    1    2    0    0 -0.14651367866E-02 -0.72066288679E-02 -0.11833581828E-01  0.13932544072E-01  0.00000000000E+00 0.  1.
     999901    1    3    3    0    0 -0.11096920281E+00 -0.62533875314E-01  0.25981860117E-01  0.88955028334E+00  0.88000000000E+00 0.  1.
        -11    1    4    4    0    0  0.40326311392E-01  0.32700343787E-01 -0.26750264553E-01  0.58406863029E-01  0.51100000000E-03 0. -1.
         11    1    4    4    0    0  0.72108028206E-01  0.37040160395E-01  0.12601986264E-01  0.82040309559E-01  0.51100000000E-03 0.  1.
</event>
<event>
 8    1  0.2824193E+004  0.1043930E+01  0.7957747E-01            NaN
         13   -1    0    0    0    0  0.00000000000E+00  0.00000000000E+00  0.74505805969E-08  0.10566000000E+00  0.10566000000E+00 0. -1.
     999900   -1    0    0    0    0 -0.00000000000E+00 -0.00000000000E+00 -0.74505805969E-08  0.93827000000E+00  0.93827000000E+00 0.  1.
     999902    2    1    2    0    0 -0.11615216396E-01  0.40427254186E-02  0.70328708030E-02  0.10297624966E+01  0.10296650335E+01 0.  0.
     999903    2    3    3    0    0 -0.20242437405E-01  0.13030266474E+00  0.20307002210E-01  0.14060997663E+00  0.44387503610E-01 0.  0.
         14    1    1    2    0    0  0.11615216396E-01 -0.40427254186E-02 -0.70328708030E-02  0.14167503396E-01  0.00000000000E+00 0.  1.
     999901    1    3    3    0    0  0.86272210085E-02 -0.12625993932E+00 -0.13274131407E-01  0.88915251998E+00  0.88000000000E+00 0. -1.
        -11    1    4    4    0    0 -0.15177573687E-02  0.11311809621E-01 -0.11307389819E-01  0.16074165914E-01  0.51100000000E-03 0.  1.
         11    1    4    4    0    0 -0.18724680036E-01  0.11899085512E+00  0.31614392029E-01  0.12453581071E+00  0.51100000000E-03 0. -1.
</event>
<event>
 8    1  0.2824193E+004  0.1043930E+01  0.7957747E-01            NaN
         13   -1    0    0    0    0  0.00000000000E+00  0.00000000000E+00  0.74505805969E-08  0.10566000000E+00  0.10566000000E+00 0.  1.
     999900   -1    0    0    0    0 -0.00000000000E+00 -0.00000000000E+00 -0.74505805969E-08  0.93827000000E+00  0.93827000000E+00 0. -1.
     999902    2    1    2    0    0 -0.68294493468E-02  0.10844882708E-01  0.41609151044E-02  0.10304553544E+01  0.10303672507E+01 0.  0.
     999903    2    3    3    0    0 -0.12566874004E+00  0.84171749605E-02 -0.44087496202E-01  0.14115417934E+00  0.46014280036E-01 0.  0.
         14    1    1    2    0    0  0.68294493468E-02 -0.10844882708E-01 -0.41609151044E-02  0.13474645592E-01  0.00000000000E+00 0.  1.
     999901    1    3    3    0    0  0.11883929069E+00  0.24277077473E-02  0.48248411306E-01  0.88930117506E+00  0.88000000000E+00 0.  1.
        -11    1    4    4    0    0 -0.59118680741E-01  0.14425586223E-01  0.43635903609E-03  0.60856942748E-01  0.51100000000E-03 0.  1.
         11    1    4    4    0    0 -0.66550059299E-01 -0.60084112627E-02 -0.44523855238E-01  0.80297236595E-01  0.51100000000E-03 0. -1.
</event>
<event>
 7    1  0.2824193E+004  0.1043930E+01  0.7957747E-01            NaN
         13   -1    0    0    0    0  0.00000000000E+00  0.00000000000E+00  0.74505805969E-08  0.10566000000E+00  0.10566000000E+00 0. -1.
     999900   -1    0    0    0    0 -0.00000000000E+00 -0.00000000000E+00 -0.74505805969E-08  0.93827000000E+00  0.93827000000E+00 0.  1.
     999902    2    1    2    0    0 -0.45989220455E-02  0.48291044346E-02  0.12498843524E-01  0.10297634400E+01  0.10296659900E+01 0.  0.
         14    1    1    2    0    0  0.45989220455E-02 -0.48291044346E-02 -0.12498843524E-01  0.14166560029E-01  0.00000000000E+00 0.  1.
     999901    1    3    3    0    0 -0.12567538975E+00 -0.17891461582E-01 -0.50210927682E-01  0.89052543212E+00  0.88000000000E+00 0.  1.
        -11    1    3    3    0    0  0.75260403896E-01  0.58726474409E-02  0.38841805295E-01  0.84897369465E-01  0.51100000000E-03 0. -1.
         11    1    3    3    0    0  0.45816063805E-01  0.16847918576E-01  0.23867965911E-01  0.54340638390E-01  0.51100000000E-03 0.  1.
</event>
<event>
 7    1  0.2824193E+004  0.1043930E+01  0.7957747E-01            NaN
         13   -1    0    0    0    0  0.00000000000E+00  0.00000000000E+00  0.74505805969E-08  0.10566000000E+00  0.10566000000E+00 0. -1.
     999900   -1    0    0    0    0 -0.00000000000E+00 -0.00000000000E+00 -0.74505805969E-08  0.93827000000E+00  0.93827000000E+00 0.  1.
     999902    2    1    2    0    0  0.12060065133E-01 -0.62723998061E-02  0.33307206867E-02  0.10299342195E+01  0.10298391208E+01 0.  0.
         14    1    1    2    0    0 -0.12060065133E-01  0.62723998061E-02 -0.33307206867E-02  0.13995780458E-01  0.00000000000E+00 0. -1.
     999901    1    3    3    0    0  0.69132061955E-01 -0.10820431518E+00  0.71858647511E-01  0.89221694729E+00  0.88000000000E+00 0. -1.
        -11    1    3    3    0    0 -0.23348268302E-01  0.34352701115E-01 -0.37847402285E-01  0.56195521951E-01  0.51100000000E-03 0. -1.
         11    1    3    3    0    0 -0.33723728520E-01  0.67579214256E-01 -0.30680524540E-01  0.81521750299E-01  0.51100000000E-03 0.  1.
</event>
<event>
 7    1  0.2824193E+004  0.1043930E+01  0.7957747E-01            NaN
         13   -1    0    0    0    0  0.00000000000E+00  0.00000000000E+00  0.74505805969E-08  0.10566000000E+00  0.10566000000E+00 0. -1.
     999900   -1    0    0    0    0 -0.00000000000E+00 -0.00000000000E+00 -0.74505805969E-08  0.93827000000E+00  0.93827000000E+00 0. -1.
     999903    2    1    2    0    0 -0.67851323635E-01  0.26343225057E-01  0.64396909876E-01  0.10683842605E+00  0.44381523779E-01 0.  0.
         14    1    1    2    0    0  0.49968171282E-01 -0.18811717760E-01  0.76357067279E-02  0.53935172972E-01  0.00000000000E+00 0.  1.
     999901    1    1    2    0    0  0.17883152354E-01 -0.75315072967E-02 -0.72032616604E-01  0.88315640098E+00  0.88000000000E+00 0. -1.
        -11    1    3    3    0    0 -0.14874094388E-01 -0.23975387089E-02 -0.40765344970E-02  0.15616213697E-01  0.51100000000E-03 0.  1.
         11    1    3    3    0    0 -0.52977229248E-01  0.28740763766E-01  0.68473444373E-01  0.91222212349E-01  0.51100000000E-03 0. -1.
</event>
<event>
 8    1  0.2824193E+004  0.1043930E+01  0.7957747E-01            NaN
         13   -1    0    0    0    0  0.00000000000E+00  0.00000000000E+00  0.74505805969E-08  0.10566000000E+00  0.10566000000E+00 0. -1.
     999900   -1    0    0    0    0 -0.00000000000E+00 -0.00000000000E+00 -0.74505805969E-08  0.93827000000E+00  0.93827000000E+00 0. -1.
     999902    2    1    2    0    0 -0.46310928669E-02  0.11838893419E-01  0.75126107648E-02  0.10291636281E+01  0.10290576892E+01 0.  0.
     999903    2    3    3    0    0  0.18966702669E-01  0.87110850549E-01  0.99527066343E-01  0.14085659587E+00  0.44574741398E-01 0.  0.
         14    1    1    2    0    0  0.46310928669E-02 -0.11838893419E-01 -0.75126107648E-02  0.14766371898E-01  0.00000000000E+00 0.  1.
     999901    1    3    3    0    0 -0.23597795536E-01 -0.75271957130E-01 -0.92014455578E-01  0.88830703224E+00  0.88000000000E+00 0. -1.
        -11    1    4    4    0    0  0.71863187314E-02  0.59262647398E-01  0.34034785408E-01  0.68719227967E-01  0.51100000000E-03 0.  1.
         11    1    4    4    0    0  0.11780383938E-01  0.27848203150E-01  0.65492280935E-01  0.72137367900E-01  0.51100000000E-03 0. -1.
</event>
<event>
 8    1  0.2824193E+004  0.1043930E+01  0.7957747E-01            NaN
         13   -1    0    0    0    0  0.00000000000E+00  0.00000000000E+00  0.74505805969E-08  0.10566000000E+00  0.10566000000E+00 0.  1.
     999900   -1    0    0    0    0 -0.00000000000E+00 -0.00000000000E+00 -0.74505805969E-08  0.93827000000E+00  0.93827000000E+00 0.  1.
     999902    2    1    2    0    0 -0.20468809453E-02  0.42036755352E-03  0.18107276905E-01  0.10257025507E+01  0.10255405807E+01 0.  0.
     999903    2    3    3    0    0 -0.33360876794E-01  0.49593070786E-01 -0.11177757452E+00  0.13426068738E+00  0.44263814120E-01 0.  0.
         14    1    1    2    0    0  0.20468809453E-02 -0.42036755352E-03 -0.18107276905E-01  0.18227449284E-01  0.00000000000E+00 0. -1.
     999901    1    3    3    0    0  0.31313995849E-01 -0.49172703233E-01  0.12988485142E+00  0.89144186334E+00  0.88000000000E+00 0. -1.
        -11    1    4    4    0    0 -0.39729510450E-01  0.32128178151E-01 -0.99857689277E-01  0.11217162324E+00  0.51100000000E-03 0. -1.
         11    1    4    4    0    0  0.63686336553E-02  0.17464892635E-01 -0.11919885239E-01  0.22089064138E-01  0.51100000000E-03 0.  1.
</event>
<event>
 8    1  0.2824193E+004  0.1043930E+01  0.7957747E-01            NaN
         13   -1    0    0    0    0  0.00000000000E+00  0.00000000000E+00  0.74505805969E-08  0.10566000000E+00  0.10566000000E+00 0.  1.
     999900   -1    0    0    0    0 -0.00000000000E+00 -0.00000000000E+00 -0.74505805969E-08  0.93827000000E+00  0.93827000000E+00 0.  1.
     999902    2    1    2    0    0 -0.60475832405E-02  0.59463437956E-02 -0.11407752174E-01  0.10297148997E+01  0.10296167761E+01 0.  0.
     999903    2    3    3    0    0  0.88890455164E-01 -0.16524290181E-01  0.93773287187E-01  0.13809771076E+00  0.45858294149E-01 0.  0.
         14    1    1    2    0    0  0.60475832405E-02 -0.59463437956E-02  0.11407752174E-01  0.14215100325E-01  0.00000000000E+00 0.  1.
     999901    1    3    3    0    0 -0.94938038404E-01  0.22470633977E-01 -0.10518103936E+00  0.89161718891E+00  0.88000000000E+00 0.  1.
        -11    1    4    4    0    0  0.76431776530E-01 -0.28734051385E-01  0.64669708952E-01  0.10416282710E+00  0.51100000000E-03 0. -1.
         11    1    4    4    0    0  0.12458678633E-01  0.12209761205E-01  0.29103578235E-01  0.33934883660E-01  0.51100000000E-03 0.  1.
</event>
<event>
 8    1  0.2824193E+004  0.1043930E+01  0.7957747E-01            NaN
         13   -1    0    0    0    0  0.00000000000E+00  0.00000000000E+00  0.74505805969E-08  0.10566000000E+00  0.10566000000E+00 0. -1.
     999900   -1    0    0    0    0 -0.00000000000E+00 -0.00000000000E+00 -0.74505805969E-08  0.93827000000E+00  0.93827000000E+00 0.  1.
     999902    2    1    2    0    0 -0.41891065236E-02  0.12037979530E-01  0.52009291939E-02  0.10301636922E+01  0.10300717070E+01 0.  0.
     999903    2    3    3    0    0 -0.10576225088E-01 -0.72768855237E-02 -0.13126076980E+00  0.13941364056E+00  0.45188094489E-01 0.  0.
         14    1    1    2    0    0  0.41891065236E-02 -0.12037979530E-01 -0.52009291939E-02  0.13766307751E-01  0.00000000000E+00 0.  1.
     999901    1    3    3    0    0  0.63871185644E-02  0.19314865053E-01  0.13646169900E+00  0.89075005169E+00  0.88000000000E+00 0. -1.
        -11    1    4    4    0    0 -0.18248073402E-01 -0.20637923060E-01 -0.53924957632E-01  0.60556405340E-01  0.51100000000E-03 0. -1.
         11    1    4    4    0    0  0.76718483141E-02  0.13361037536E-01 -0.77335812173E-01  0.78857235217E-01  0.51100000000E-03 0.  1.
</event>
<event>
 8    1  0.2824193E+004  0.1043930E+01  0.7957747E-01            NaN
         13   -1    0    0    0    0  0.00000000000E+00  0.00000000000E+00  0.74505805969E-08  0.10566000000E+00  0.10566000000E+00 0.  1.
     999900   -1    0    0    0    0 -0.00000000000E+00 -0.00000000000E+00 -0.74505805969E-08  0.93827000000E+00  0.93827000000E+00 0.  1.
     999902    2    1    2    0    0 -0.10179108272E-01  0.76827257037E-02  0.42134831863E-02  0.10304989926E+01  0.10304114624E+01 0.  0.
     999903    2    3    3    0    0  0.68457521016E-01 -0.10572983108E+00 -0.36940284771E-01  0.13879289745E+00  0.45096057238E-01 0.  0.
         14    1    1    2    0    0  0.10179108272E-01 -0.76827257037E-02 -0.42134831863E-02  0.13431007409E-01  0.00000000000E+00 0. -1.
     999901    1    3    3    0    0 -0.78636629288E-01  0.11341255679E+00  0.41153767957E-01  0.89170609515E+00  0.88000000000E+00 0.  1.
        -11    1    4    4    0    0  0.24001855063E-01 -0.64425928356E-01 -0.20299003490E-02  0.68783507525E-01  0.51100000000E-03 0. -1.
         11    1    4    4    0    0  0.44455665953E-01 -0.41303902726E-01 -0.34910384422E-01  0.70009389921E-01  0.51100000000E-03 0.  1.
</event>
<event>
 8    1  0.2824193E+004  0.1043930E+01  0.7957747E-01            NaN
         13   -1    0    0    0    0  0.00000000000E+00  0.00000000000E+00  0.74505805969E-08  0.10566000000E+00  0.10566000000E+00 0. -1.
     999900   -1    0    0    0    0 -0.00000000000E+00 -0.00000000000E+00 -0.74505805969E-08  0.93827000000E+00  0.93827000000E+00 0.  1.
     999902    2    1    2    0    0  0.26186712750E-03  0.13201736842E-01  0.18767052770E-02  0.10305929669E+01  0.10305066651E+01 0.  0.
     999903    2    3    3    0    0  0.10820089004E-01  0.77912576889E-01  0.10815653466E+00  0.14177669170E+00  0.47067508499E-01 0.  0.
         14    1    1    2    0    0 -0.26186712750E-03 -0.13201736842E-01 -0.18767052770E-02  0.13337033131E-01  0.00000000000E+00 0. -1.
     999901    1    3    3    0    0 -0.10558221877E-01 -0.64710840047E-01 -0.10627982939E+00  0.88881627517E+00  0.88000000000E+00 0.  1.
        -11    1    4    4    0    0 -0.16365016791E-01  0.11953417234E-01  0.25930753718E-01  0.32914481122E-01  0.51100000000E-03 0. -1.
         11    1    4    4    0    0  0.27185105795E-01  0.65959159655E-01  0.82225780944E-01  0.10886221058E+00  0.51100000000E-03 0.  1.
</event>
<event>
 8    1  0.2824193E+004  0.1043930E+01  0.7957747E-01            NaN
         13   -1    0    0    0    0  0.00000000000E+00  0.00000000000E+00  0.74505805969E-08  0.10566000000E+00  0.10566000000E+00 0.  1.
     999900   -1    0    0    0    0 -0.00000000000E+00 -0.00000000000E+00 -0.74505805969E-08  0.93827000000E+00  0.93827000000E+00 0.  1.
     999902    2    1    2    0    0 -0.65155286150E-02 -0.89181534799E-02 -0.81866357018E-02  0.10301820337E+01  0.10300902950E+01 0.  0.
     999903    2    3    3    0    0  0.59247571723E-01  0.51474797250E-01  0.10499563045E+00  0.13845207496E+00  0.44552947597E-01 0.  0.
         14    1    1    2    0    0  0.65155286150E-02  0.89181534799E-02  0.81866357018E-02  0.13747966349E-01  0.00000000000E+00 0.  1.
     999901    1    3    3    0    0 -0.65763100338E-01 -0.60392950730E-01 -0.11318226615E+00  0.89172995870E+00  0.88000000000E+00 0.  1.
        -11    1    4    4    0    0  0.54127779470E-01  0.39164227618E-01  0.54494558633E-01  0.86218160946E-01  0.51100000000E-03 0.  1.
         11    1    4    4    0    0  0.51197922521E-02  0.12310569632E-01  0.50501071814E-01  0.52233914010E-01  0.51100000000E-03 0. -1.
</event>
<event>
 8    1  0.2824193E+004  0.1043930E+01  0.7957747E-01            NaN
         13   -1    0    0    0    0  0.00000000000E+00  0.00000000000E+00  0.74505805969E-08  0.10566000000E+00  0.10566000000E+00 0. -1.
     999900   -1    0    0    0    0 -0.00000000000E+00 -0.00000000000E+00 -0.74505805969E-08  0.93827000000E+00  0.93827000000E+00 0. -1.
     999902    2    1    2    0    0 -0.15549037670E-02 -0.13494343868E-01  0.45461349686E-02  0.10296058112E+01  0.10295061651E+01 0.  0.
     999903    2    3    3    0    0  0.10489059680E+00 -0.23480129313E-02 -0.79924475707E-01  0.13910585646E+00  0.44215009026E-01 0.  0.
         14    1    1    2    0    0  0.15549037670E-02  0.13494343868E-01 -0.45461349686E-02  0.14324188818E-01  0.00000000000E+00 0. -1.
     999901    1    3    3    0    0 -0.10644550057E+00 -0.11146330937E-01  0.84470610676E-01  0.89049995472E+00  0.88000000000E+00 0. -1.
        -11    1    4    4    0    0  0.36788118497E-01  0.97708265435E-02 -0.52146168852E-01  0.64562518235E-01  0.51100000000E-03 0.  1.
         11    1    4    4    0    0  0.68102478305E-01 -0.12118839475E-01 -0.27778306856E-01  0.74543338229E-01  0.51100000000E-03 0. -1.
</event>
<event>
 8    1  0.2824193E+004  0.1043930E+01  0.7957747E-01            NaN
         13   -1    0    0    0    0  0.00000000000E+00  0.00000000000E+00  0.74505805969E-08  0.10566000000E+00  0.10566000000E+00 0.  1.
     999900   -1    0    0    0    0 -0.00000000000E+00 -0.00000000000E+00 -0.74505805969E-08  0.93827000000E+00  0.93827000000E+00 0. -1.
     999902    2    1    2    0    0 -0.52908995659E-02 -0.12993166734E-01 -0.61045607825E-03  0.10298876121E+01  0.10297918746E+01 0.  0.
     999903    2    3    3    0    0  0.66262707307E-01  0.63909139479E-01  0.93300983569E-01  0.13867874670E+00  0.45294555546E-01 0.  0.
         14    1    1    2    0    0  0.52908995659E-02  0.12993166734E-01  0.61045607825E-03  0.14042387854E-01  0.00000000000E+00 0.  1.
     999901    1    3    3    0    0 -0.71553606873E-01 -0.76902306214E-01 -0.93911439648E-01  0.89120886545E+00  0.88000000000E+00 0. -1.
        -11    1    4    4    0    0  0.14637040909E-01  0.42326302142E-01  0.54705360636E-01  0.70701459836E-01  0.51100000000E-03 0.  1.
         11    1    4    4    0    0  0.51625666398E-01  0.21582837337E-01  0.38595622934E-01  0.67977286862E-01  0.51100000000E-03 0. -1.
</event>
<event>
 8    1  0.2824193E+004  0.1043930E+01  0.7957747E-01            NaN
         13   -1    0    0    0    0  0.00000000000E+00  0.00000000000E+00  0.74505805969E-08  0.10566000000E+00  0.10566000000E+00 0. -1.
     999900   -1    0    0    0    0 -0.00000000000E+00 -0.00000000000E+00 -0.74505805969E-08  0.93827000000E+00  0.93827000000E+00 0.  1.
     999902    2    1    2    0    0 -0.31058360838E-02 -0.80855392436E-02 -0.11418661039E-01  0.10295979386E+01  0.10294981823E+01 0.  0.
     999903    2    3    3    0    0  0.28729017736E-02  0.12852067071E+00  0.25492083503E-01  0.13827341584E+00  0.44089396017E-01 0.  0.
         14    1    1    2    0    0  0.31058360838E-02  0.80855392436E-02  0.11418661039E-01  0.14332061351E-01  0.00000000000E+00 0. -1.
     999901    1    3    3    0    0 -0.59787378574E-02 -0.13660620995E+00 -0.36910744542E-01  0.89132452281E+00  0.88000000000E+00 0.  1.
        -11    1    4    4    0    0 -0.22734258359E-02  0.82606970475E-01  0.37173275688E-01  0.90615636523E-01  0.51100000000E-03 0. -1.
         11    1    4    4    0    0  0.51463276095E-02  0.45913700236E-01 -0.11681192185E-01  0.47657779313E-01  0.51100000000E-03 0.  1.
</event>
<event>
 8    1  0.2824193E+004  0.1043930E+01  0.7957747E-01            NaN
         13   -1    0    0    0    0  0.00000000000E+00  0.00000000000E+00  0.74505805969E-08  0.10566000000E+00  0.10566000000E+00 0.  1.
     999900   -1    0    0    0    0 -0.00000000000E+00 -0.00000000000E+00 -0.74505805969E-08  0.93827000000E+00  0.93827000000E+00 0. -1.
     999902    2    1    2    0    0  0.92633441209E-02 -0.73570748754E-02 -0.75600859886E-02  0.10298910900E+01  0.10297954002E+01 0.  0.
     999903    2    3    3    0    0 -0.89467923665E-01  0.68531290326E-01 -0.67504273819E-01  0.13910480085E+00  0.45741354554E-01 0.  0.
         14    1    1    2    0    0 -0.92633441209E-02  0.73570748754E-02  0.75600859886E-02  0.14038910042E-01  0.00000000000E+00 0. -1.
     999901    1    3    3    0    0  0.98731267785E-01 -0.75888365202E-01  0.59944187830E-01  0.89078628911E+00  0.88000000000E+00 0. -1.
        -11    1    4    4    0    0 -0.53186669497E-01  0.12231964424E-01 -0.27946410891E-01  0.61316439627E-01  0.51100000000E-03 0.  1.
         11    1    4    4    0    0 -0.36281254168E-01  0.56299325902E-01 -0.39557862928E-01  0.77788361221E-01  0.51100000000E-03 0. -1.
</event>
<event>
 8    1  0.2824193E+004  0.1043930E+01  0.7957747E-01            NaN
         13   -1    0    0    0    0  0.00000000000E+00  0.00000000000E+00  0.74505805969E-08  0.10566000000E+00  0.10566000000E+00 0.  1.
     999900   -1    0    0    0    0 -0.00000000000E+00 -0.00000000000E+00 -0.74505805969E-08  0.93827000000E+00  0.93827000000E+00 0.  1.
     999902    2    1    2    0    0 -0.93984281590E-02  0.55405326695E-02 -0.88395008429E-02  0.10298884641E+01  0.10297927383E+01 0.  0.
     999903    2    3    3    0    0 -0.85032156904E-01  0.96321872833E-01 -0.37975118520E-01  0.14151320736E+00  0.45557736299E-01 0.  0.
         14    1    1    2    0    0  0.93984281590E-02 -0.55405326695E-02  0.88395008429E-02  0.14041535859E-01  0.00000000000E+00 0.  1.
     999901    1    3    3    0    0  0.75633728745E-01 -0.90781340163E-01  0.29135617677E-01  0.88837525678E+00  0.88000000000E+00 0. -1.
        -11    1    4    4    0    0 -0.96885198293E-02  0.39231110089E-01 -0.20735717492E-01  0.45422224915E-01  0.51100000000E-03 0. -1.
         11    1    4    4    0    0 -0.75343637074E-01  0.57090762743E-01 -0.17239401028E-01  0.96090982444E-01  0.51100000000E-03 0.  1.
</event>
<event>
 8    1  0.2824193E+004  0.1043930E+01  0.7957747E-01            NaN
         13   -1    0    0    0    0  0.00000000000E+00  0.00000000000E+00  0.74505805969E-08  0.10566000000E+00  0.10566000000E+00 0. -1.
     999900   -1    0    0    0    0 -0.00000000000E+00 -0.00000000000E+00 -0.74505805969E-08  0.93827000000E+00  0.93827000000E+00 0.  1.
     999902    2    1    2    0    0 -0.94122668435E-02  0.22044868176E-02 -0.91383642133E-02  0.10306273600E+01  0.10305415057E+01 0.  0.
     999903    2    3    3    0    0 -0.11396790552E+00  0.70266432949E-01  0.14813679618E-01  0.14150531528E+00  0.43338828534E-01 0.  0.
         14    1    1    2    0    0  0.94122668435E-02 -0.22044868176E-02  0.91383642133E-02  0.13302639954E-01  0.00000000000E+00 0. -1.
     999901    1    3    3    0    0  0.10455563868E+00 -0.68061946132E-01 -0.23952043831E-01  0.88912204477E+00  0.88000000000E+00 0.  1.
        -11    1    4    4    0    0 -0.28406024162E-01  0.28746308805E-02  0.15696700845E-01  0.32585476056E-01  0.51100000000E-03 0.  1.
         11    1    4    4    0    0 -0.85561881362E-01  0.67391802069E-01 -0.88302122732E-03  0.10891983922E+00  0.51100000000E-03 0. -1.
</event>
<event>
 8    1  0.2824193E+004  0.1043930E+01  0.7957747E-01            NaN
         13   -1    0    0    0    0  0.00000000000E+00  0.00000000000E+00  0.74505805969E-08  0.10566000000E+00  0.10566000000E+00 0. -1.
     999900   -1    0    0    0    0 -0.00000000000E+00 -0.00000000000E+00 -0.74505805969E-08  0.93827000000E+00  0.93827000000E+00 0.  1.
     999902    2    1    2    0    0  0.84804291374E-02  0.26894493625E-03 -0.10066158001E-01  0.10307649878E+01  0.10306809121E+01 0.  0.
     999903    2    3    3    0    0 -0.52038686883E-01  0.29552679606E-01  0.11710223921E+00  0.13908572832E+00  0.45282663229E-01 0.  0.
         14    1    1    2    0    0 -0.84804291374E-02 -0.26894493625E-03  0.10066158001E-01  0.13165012215E-01  0.00000000000E+00 0. -1.
     999901    1    3    3    0    0  0.60519116021E-01 -0.29283734670E-01 -0.12716839721E+00  0.89167925947E+00  0.88000000000E+00 0.  1.
        -11    1    4    4    0    0 -0.60569563142E-02  0.24458858269E-01  0.22538699871E-01  0.33810894405E-01  0.51100000000E-03 0. -1.
         11    1    4    4    0    0 -0.45981730569E-01  0.50938213376E-02  0.94563539337E-01  0.10527483391E+00  0.51100000000E-03 0.  1.
</event>
<event>
 8    1  0.2824193E+004  0.1043930E+01  0.7957747E-01            NaN
         13   -1    0    0    0    0  0.00000000000E+00  0.00000000000E+00  0.74505805969E-08  0.10566000000E+00  0.10566000000E+00 0.  1.
     999900   -1    0    0    0    0 -0.00000000000E+00 -0.00000000000E+00 -0.74505805969E-08  0.93827000000E+00  0.93827000000E+00 0.  1.
     999902    2    1    2    0    0 -0.95721702419E-04  0.14042309972E-01  0.58548636552E-03  0.10298751636E+01  0.10297792551E+01 0.  0.
     999903    2    3    3    0    0  0.23431815249E-01  0.13196103000E+00 -0.75503189730E-02  0.14166090968E+00  0.45255304794E-01 0.  0.
         14    1    1    2    0    0  0.95721702419E-04 -0.14042309972E-01 -0.58548636552E-03  0.14054836402E-01  0.00000000000E+00 0. -1.
     999901    1    3    3    0    0 -0.23527536952E-01 -0.11791872003E+00  0.81358053385E-02  0.88821425391E+00  0.88000000000E+00 0.  1.
        -11    1    4    4    0    0 -0.13433202486E-01  0.37427990469E-01  0.14422230965E-02  0.39795056578E-01  0.51100000000E-03 0.  1.
         11    1    4    4    0    0  0.36865017736E-01  0.94533039529E-01 -0.89925420694E-02  0.10186585311E+00  0.51100000000E-03 0. -1.
</event>
<event>
 8    1  0.2824193E+004  0.1043930E+01  0.7957747E-01            NaN
         13   -1    0    0    0    0  0.00000000000E+00  0.00000000000E+00  0.74505805969E-08  0.10566000000E+00  0.10566000000E+00 0. -1.
     999900   -1    0    0    0    0 -0.00000000000E+00 -0.00000000000E+00 -0.74505805969E-08  0.93827000000E+00  0.93827000000E+00 0.  1.
     999902    2    1    2    0    0  0.11236252665E-01 -0.21810302409E-02 -0.71047809877E-02  0.10304582451E+01  0.10303701795E+01 0.  0.
     999903    2    3    3    0    0  0.11817663177E+00 -0.50719082594E-01  0.30729743793E-01  0.14185054850E+00  0.51372359511E-01 0.  0.
         14    1    1    2    0    0 -0.11236252665E-01  0.21810302409E-02  0.71047809877E-02  0.13471754887E-01  0.00000000000E+00 0. -1.
     999901    1    3    3    0    0 -0.10694037910E+00  0.48538052353E-01 -0.37834524781E-01  0.88860769661E+00  0.88000000000E+00 0. -1.
        -11    1    4    4    0    0  0.53181774954E-02 -0.19720094250E-01 -0.14064545081E-02  0.20479364355E-01  0.51100000000E-03 0. -1.
         11    1    4    4    0    0  0.11285845427E+00 -0.30998988344E-01  0.32136198301E-01  0.12137118415E+00  0.51100000000E-03 0.  1.
</event>
<event>
 8    1  0.2824193E+004  0.1043930E+01  0.7957747E-01            NaN
         13   -1    0    0    0    0  0.00000000000E+00  0.00000000000E+00  0.74505805969E-08  0.10566000000E+00  0.10566000000E+00 0. -1.
     999900   -1    0    0    0    0 -0.00000000000E+00 -0.00000000000E+00 -0.74505805969E-08  0.93827000000E+00  0.93827000000E+00 0. -1.
     999902    2    1    2    0    0  0.13845538704E-01 -0.14007883259E-02  0.29467600181E-02  0.10297052137E+01  0.10296069554E+01 0.  0.
     999903    2    3    3    0    0 -0.28321700521E-01  0.86465948890E-01 -0.94928801249E-01  0.13893124404E+00  0.44854589807E-01 0.  0.
         14    1    1    2    0    0 -0.13845538704E-01  0.14007883259E-02 -0.29467600181E-02  0.14224786274E-01  0.00000000000E+00 0.  1.
     999901    1    3    3    0    0  0.42167239225E-01 -0.87866737215E-01  0.97875561267E-01  0.89077396968E+00  0.88000000000E+00 0.  1.
        -11    1    4    4    0    0 -0.49428664945E-02  0.55827240482E-01 -0.30383330690E-01  0.63753592948E-01  0.51100000000E-03 0. -1.
         11    1    4    4    0    0 -0.23378834027E-01  0.30638708408E-01 -0.64545470559E-01  0.75177651094E-01  0.51100000000E-03 0.  1.
</event>
<event>
 8    1  0.2824193E+004  0.1043930E+01  0.7957747E-01            NaN
         13   -1    0    0    0    0  0.00000000000E+00  0.00000000000E+00  0.74505805969E-08  0.10566000000E+00  0.10566000000E+00 0.  1.
     999900   -1    0    0    0    0 -0.00000000000E+00 -0.00000000000E+00 -0.74505805969E-08  0.93827000000E+00  0.93827000000E+00 0. -1.
     999902    2    1    2    0    0  0.77093806645E-02 -0.17906840691E-01  0.29284520706E-02  0.10242154032E+01  0.10240256476E+01 0.  0.
     999903    2    3    3    0    0 -0.48736241733E-02  0.11758347634E+00 -0.41809946916E-01  0.13263395303E+00  0.44654985325E-01 0.  0.
         14    1    1    2    0    0 -0.77093806645E-02  0.17906840691E-01 -0.29284520706E-02  0.19714596757E-01  0.00000000000E+00 0.  1.
     999901    1    3    3    0    0  0.12583004838E-01 -0.13549031703E+00  0.44738398987E-01  0.89158145021E+00  0.88000000000E+00 0. -1.
        -11    1    4    4    0    0 -0.41843289141E-02  0.10942829737E+00 -0.50581132584E-01  0.12062658484E+00  0.51100000000E-03 0.  1.
         11    1    4    4    0    0 -0.68929525921E-03  0.81551789652E-02  0.87711856678E-02  0.12007368193E-01  0.51100000000E-03 0. -1.
</event>
<event>
 8    1  0.2824193E+004  0.1043930E+01  0.7957747E-01            NaN
         13   -1    0    0    0    0  0.00000000000E+00  0.00000000000E+00  0.74505805969E-08  0.10566000000E+00  0.10566000000E+00 0. -1.
     999900   -1    0    0    0    0 -0.00000000000E+00 -0.00000000000E+00 -0.74505805969E-08  0.93827000000E+00  0.93827000000E+00 0.  1.
     999902    2    1    2    0    0 -0.42381381322E-02 -0.20290415424E-02  0.13634339922E-01  0.10295086946E+01  0.10294076832E+01 0.  0.
     999903    2    3    3    0    0 -0.26221090392E-02 -0.63013522308E-01  0.11791856407E+00  0.14125370989E+00  0.45499927012E-01 0.  0.
         14    1    1    2    0    0  0.42381381322E-02  0.20290415424E-02 -0.13634339922E-01  0.14421305403E-01  0.00000000000E+00 0.  1.
     999901    1    3    3    0    0 -0.16160290930E-02  0.60984480766E-01 -0.10428422414E+00  0.88825498470E+00  0.88000000000E+00 0.  1.
        -11    1    4    4    0    0  0.15736769431E-01 -0.72066055215E-02  0.15802128021E-01  0.23442470994E-01  0.51100000000E-03 0.  1.
         11    1    4    4    0    0 -0.18358878471E-01 -0.55806916787E-01  0.10211643604E+00  0.11781123890E+00  0.51100000000E-03 0. -1.
</event>
<event>
 8    1  0.2824193E+004  0.1043930E+01  0.7957747E-01            NaN
         13   -1    0    0    0    0  0.00000000000E+00  0.00000000000E+00  0.74505805969E-08  0.10566000000E+00  0.10566000000E+00 0.  1.
     999900   -1    0    0    0    0 -0.00000000000E+00 -0.00000000000E+00 -0.74505805969E-08  0.93827000000E+00  0.93827000000E+00 0.  1.
     999902    2    1    2    0    0 -0.88880462730E-02  0.37915786928E-02  0.81381859136E-02  0.10312965719E+01  0.10312191890E+01 0.  0.
     999903    2    3    3    0    0  0.12281766703E+00 -0.45353504606E-01  0.22622753820E-01  0.14002139731E+00  0.44193698648E-01 0.  0.
         14    1    1    2    0    0  0.88880462730E-02 -0.37915786928E-02 -0.81381859136E-02  0.12633428098E-01  0.00000000000E+00 0. -1.
     999901    1    3    3    0    0 -0.13170571330E+00  0.49145083299E-01 -0.14484567906E-01  0.89127517459E+00  0.88000000000E+00 0. -1.
        -11    1    4    4    0    0  0.65115331419E-01 -0.41441773437E-01  0.27596113601E-01  0.81970931300E-01  0.51100000000E-03 0. -1.
         11    1    4    4    0    0  0.57702335613E-01 -0.39117311697E-02 -0.49733597810E-02  0.58050466014E-01  0.51100000000E-03 0.  1.
</event>
<event>
 8    1  0.2824193E+004  0.1043930E+01  0.7957747E-01            NaN
         13   -1    0    0    0    0  0.00000000000E+00  0.00000000000E+00  0.74505805969E-08  0.10566000000E+00  0.10566000000E+00 0.  1.
     999900   -1    0    0    0    0 -0.00000000000E+00 -0.00000000000E+00 -0.74505805969E-08  0.93827000000E+00  0.93827000000E+00 0.  1.
     999902    2    1    2    0    0  0.72186666365E-02  0.19529527098E-01  0.11543083669E-01  0.10201233968E+01  0.10198455718E+01 0.  0.
     999903    2    3    3    0    0 -0.11007065467E+00  0.52553020704E-01  0.13717112621E-01  0.13172480243E+00  0.47811038395E-01 0.  0.
         14    1    1    2    0    0 -0.72186666365E-02 -0.19529527098E-01 -0.11543083669E-01  0.23806603228E-01  0.00000000000E+00 0.  1.
     999901    1    3    3    0    0  0.11728932131E+00 -0.33023493605E-01 -0.21740289519E-02  0.88839859434E+00  0.88000000000E+00 0. -1.
        -11    1    4    4    0    0 -0.81452770577E-01  0.60250867865E-01  0.12175597504E-01  0.10204522139E+00  0.51100000000E-03 0.  1.
         11    1    4    4    0    0 -0.28617884094E-01 -0.76978471615E-02  0.15415151168E-02  0.29679581041E-01  0.51100000000E-03 0. -1.
</event>
<event>
 8    1  0.2824193E+004  0.1043930E+01  0.7957747E-01            NaN
         13   -1    0    0    0    0  0.00000000000E+00  0.00000000000E+00  0.74505805969E-08  0.10566000000E+00  0.10566000000E+00 0. -1.
     999900   -1    0    0    0    0 -0.00000000000E+00 -0.00000000000E+00 -0.74505805969E-08  0.93827000000E+00  0.93827000000E+00 0.  1.
     999902    2    1    2    0    0 -0.92866002382E-02 -0.66414575992E-04 -0.10062325474E-01  0.10302370913E+01  0.10301460909E+01 0.  0.
     999903    2    3    3    0    0 -0.33284886019E-01 -0.74851636147E-02  0.12734292269E+00  0.13922016790E+00  0.44745098943E-01 0.  0.
         14    1    1    2    0    0  0.92866002382E-02  0.66414575992E-04  0.10062325474E-01  0.13692908706E-01  0.00000000000E+00 0.  1.
     999901    1    3    3    0    0  0.23998285781E-01  0.74187490387E-02 -0.13740524816E+00  0.89101692340E+00  0.88000000000E+00 0.  1.
        -11    1    4    4    0    0 -0.14955485969E-01 -0.22931436382E-01  0.95577156451E-01  0.99422187118E-01  0.51100000000E-03 0.  1.
         11    1    4    4    0    0 -0.18329400050E-01  0.15446272767E-01  0.31765766235E-01  0.39797980779E-01  0.51100000000E-03 0. -1.
</event>
<event>
 8    1  0.2824193E+004  0.1043930E+01  0.7957747E-01            NaN
         13   -1    0    0    0    0  0.00000000000E+00  0.00000000000E+00  0.74505805969E-08  0.10566000000E+00  0.10566000000E+00 0.  1.
     999900   -1    0    0    0    0 -0.00000000000E+00 -0.00000000000E+00 -0.74505805969E-08  0.93827000000E+00  0.93827000000E+00 0.  1.
     999902    2    1    2    0    0  0.35226772803E-02  0.74941306108E-02 -0.10341709381E-01  0.10306815208E+01  0.10305963686E+01 0.  0.
     999903    2    3    3    0    0 -0.33302178782E-01 -0.26313465853E-01 -0.12741865518E+00  0.14152122317E+00  0.44624089029E-01 0.  0.
         14    1    1    2    0    0 -0.35226772803E-02 -0.74941306108E-02  0.10341709381E-01  0.13248479224E-01  0.00000000000E+00 0.  1.
     999901    1    3    3    0    0  0.36824856063E-01  0.33807596463E-01  0.11707694580E+00  0.88916029761E+00  0.88000000000E+00 0. -1.
        -11    1    4    4    0    0 -0.43548538297E-01 -0.18234040392E-01 -0.11038002479E+00  0.12005401455E+00  0.51100000000E-03 0.  1.
         11    1    4    4    0    0  0.10246359515E-01 -0.80794254604E-02 -0.17038630397E-01  0.21467208619E-01  0.51100000000E-03 0. -1.
</event>
<event>
 8    1  0.2824193E+004  0.1043930E+01  0.7957747E-01            NaN
         13   -1    0    0    0    0  0.00000000000E+00  0.00000000000E+00  0.74505805969E-08  0.10566000000E+00  0.10566000000E+00 0.  1.
     999900   -1    0    0    0    0 -0.00000000000E+00 -0.00000000000E+00 -0.74505805969E-08  0.93827000000E+00  0.93827000000E+00 0.  1.
     999902    2    1    2    0    0  0.23876621590E-02  0.14488049805E-01  0.11111597862E-02  0.10292045393E+01  0.10290991908E+01 0.  0.
     999903    2    3    3    0    0 -0.41646248149E-01  0.39752863638E-01 -0.11894200111E+00  0.13960347277E+00  0.45024769054E-01 0.  0.
         14    1    1    2    0    0 -0.23876621590E-02 -0.14488049805E-01 -0.11111597862E-02  0.14725460734E-01  0.00000000000E+00 0. -1.
     999901    1    3    3    0    0  0.44033910308E-01 -0.25264813833E-01  0.12005316090E+00  0.88960106650E+00  0.88000000000E+00 0. -1.
        -11    1    4    4    0    0  0.85199825170E-02 -0.68999773727E-03 -0.16229507765E-01  0.18350047473E-01  0.51100000000E-03 0.  1.
         11    1    4    4    0    0 -0.50166230666E-01  0.40442861376E-01 -0.10271249334E+00  0.12125342529E+00  0.51100000000E-03 0. -1.
</event>
<event>
 8    1  0.2824193E+004  0.1043930E+01  0.7957747E-01            NaN
         13   -1    0    0    0    0  0.00000000000E+00  0.00000000000E+00  0.74505805969E-08  0.10566000000E+00  0.10566000000E+00 0.  1.
     999900   -1    0    0    0    0 -0.00000000000E+00 -0.00000000000E+00 -0.74505805969E-08  0.93827000000E+00  0.93827000000E+00 0.  1.
     999902    2    1    2    0    0 -0.94369313110E-02 -0.97370178340E-02 -0.18709168868E-02  0.10302418475E+01  0.10301509107E+01 0.  0.
     999903    2    3    3    0    0 -0.10387409234E+00 -0.64859813461E-01 -0.55350881475E-01  0.14186298317E+00  0.45439668250E-01 0.  0.
         14    1    1    2    0    0  0.94369313110E-02  0.97370178340E-02  0.18709168868E-02  0.13688152500E-01  0.00000000000E+00 0. -1.
     999901    1    3    3    0    0  0.94437161032E-01  0.55122795626E-01  0.53479964588E-01  0.88837886433E+00  0.88000000000E+00 0.  1.
        -11    1    4    4    0    0 -0.98612502372E-02 -0.19933046069E-01  0.29895914181E-02  0.22444806965E-01  0.51100000000E-03 0. -1.
         11    1    4    4    0    0 -0.94012842106E-01 -0.44926767391E-01 -0.58340472893E-01  0.11941817620E+00  0.51100000000E-03 0.  1.
</event>
<event>
 8    1  0.2824193E+004  0.1043930E+01  0.7957747E-01            NaN
         13   -1    0    0    0    0  0.00000000000E+00  0.00000000000E+00  0.74505805969E-08  0.10566000000E+00  0.10566000000E+00 0.  1.
     999900   -1    0    0    0    0 -0.00000000000E+00 -0.00000000000E+00 -0.74505805969E-08  0.93827000000E+00  0.93827000000E+00 0.  1.
     999902    2    1    2    0    0  0.29458481478E-02 -0.25259472734E-02 -0.12659975913E-01  0.10306886473E+01  0.10306035874E+01 0.  0.
     999903    2    3    3    0    0 -0.21373177135E-01 -0.32196839568E-01 -0.12902091363E+00  0.14220024296E+00  0.45618677789E-01 0.  0.
         14    1    1    2    0    0 -0.29458481478E-02  0.25259472734E-02  0.12659975913E-01  0.13241352690E-01  0.00000000000E+00 0.  1.
     999901    1    3    3    0    0  0.24319025283E-01  0.29670892295E-01  0.11636093772E+00  0.88848840435E+00  0.88000000000E+00 0. -1.
        -11    1    4    4    0    0  0.10997943614E-01 -0.43226473547E-02 -0.91805803246E-02  0.14972782640E-01  0.51100000000E-03 0. -1.
         11    1    4    4    0    0 -0.32371120749E-01 -0.27874192214E-01 -0.11984033331E+00  0.12722746032E+00  0.51100000000E-03 0.  1.
</event>
<event>
 8    1  0.2824193E+004  0.1043930E+01  0.7957747E-01            NaN
         13   -1    0    0    0    0  0.00000000000E+00  0.00000000000E+00  0.74505805969E-08  0.10566000000E+00  0.10566000000E+00 0.  1.
     999900   -1    0    0    0    0 -0.00000000000E+00 -0.00000000000E+00 -0.74505805969E-08  0.93827000000E+00  0.93827000000E+00 0. -1.
     999902    2    1    2    0    0  0.78139232609E-02  0.28761260364E-02 -0.10675184035E-01  0.10303915713E+01  0.10303026260E+01 0.  0.
     999903    2    3    3    0    0 -0.64562298806E-01 -0.26159573950E-01  0.11361221571E+00  0.13824318278E+00  0.36753615997E-01 0.  0.
         14    1    1    2    0    0 -0.78139232609E-02 -0.28761260364E-02  0.10675184035E-01  0.13538428708E-01  0.00000000000E+00 0.  1.
     999901    1    3    3    0    0  0.72376222067E-01  0.29035699987E-01 -0.12428739975E+00  0.89214838852E+00  0.88000000000E+00 0. -1.
        -11    1    4    4    0    0 -0.19408369711E-01 -0.13086143446E-01  0.71117189646E-01  0.74872209459E-01  0.51100000000E-03 0.  1.
         11    1    4    4    0    0 -0.45153929095E-01 -0.13073430504E-01  0.42495026067E-01  0.63370973318E-01  0.51100000000E-03 0. -1.
</event>
<event>
 8    1  0.2824193E+004  0.1043930E+01  0.7957747E-01            NaN
         13   -1    0    0    0    0  0.00000000000E+00  0.00000000000E+00  0.74505805969E-08  0.10566000000E+00  0.10566000000E+00 0.  1.
     999900   -1    0    0    0    0 -0.00000000000E+00 -0.00000000000E+00 -0.74505805969E-08  0.93827000000E+00  0.93827000000E+00 0. -1.
     999902    2    1    2    0    0  0.12085345937E-01 -0.37990308637E-02 -0.34382954195E-02  0.10308033059E+01  0.10307197220E+01 0.  0.
     999903    2    3    3    0    0  0.75249444775E-01 -0.50800641944E-01 -0.99560692172E-01  0.14207479283E+00  0.45052537910E-01 0.  0.
         14    1    1    2    0    0 -0.12085345937E-01  0.37990308637E-02  0.34382954195E-02  0.13126694074E-01  0.00000000000E+00 0. -1.
     999901    1    3    3    0    0 -0.63164098838E-01  0.47001611080E-01  0.96122396753E-01  0.88872851309E+00  0.88000000000E+00 0.  1.
        -11    1    4    4    0    0  0.63745873573E-01 -0.17999371152E-01 -0.70804199412E-01  0.96958803287E-01  0.51100000000E-03 0. -1.
         11    1    4    4    0    0  0.11503571202E-01 -0.32801270791E-01 -0.28756492760E-01  0.45115989547E-01  0.51100000000E-03 0.  1.
</event>
<event>
 8    1  0.2824193E+004  0.1043930E+01  0.7957747E-01            NaN
         13   -1    0    0    0    0  0.00000000000E+00  0.00000000000E+00  0.74505805969E-08  0.10566000000E+00  0.10566000000E+00 0.  1.
     999900   -1    0    0    0    0 -0.00000000000E+00 -0.00000000000E+00 -0.74505805969E-08  0.93827000000E+00  0.93827000000E+00 0.  1.
     999902    2    1    2    0    0  0.35540959939E-03 -0.10314642413E-01  0.94858464088E-02  0.10299121740E+01  0.10298167734E+01 0.  0.
     999903    2    3    3    0    0  0.72013827719E-02 -0.93649349125E-01 -0.91237227433E-01  0.14022870314E+00  0.50177654482E-01 0.  0.
         14    1    1    2    0    0 -0.35540959939E-03  0.10314642413E-01 -0.94858464088E-02  0.14017826015E-01  0.00000000000E+00 0. -1.
     999901    1    3    3    0    0 -0.68459731726E-02  0.83334706712E-01  0.10072307384E+00  0.88968347085E+00  0.88000000000E+00 0. -1.
        -11    1    4    4    0    0  0.19786877763E-01 -0.26809605131E-01 -0.51836899708E-01  0.61624676480E-01  0.51100000000E-03 0.  1.
         11    1    4    4    0    0 -0.12585494991E-01 -0.66839743994E-01 -0.39400327725E-01  0.78604026660E-01  0.51100000000E-03 0. -1.
</event>
<event>
 8    1  0.2824193E+004  0.1043930E+01  0.7957747E-01            NaN
         13   -1    0    0    0    0  0.00000000000E+00  0.00000000000E+00  0.74505805969E-08  0.10566000000E+00  0.10566000000E+00 0.  1.
     999900   -1    0    0    0    0 -0.00000000000E+00 -0.00000000000E+00 -0.74505805969E-08  0.93827000000E+00  0.93827000000E+00 0.  1.
     999902    2    1    2    0    0 -0.93977163886E-02 -0.10466210500E-01 -0.10187199682E-02  0.10298269356E+01  0.10297303632E+01 0.  0.
     999903    2    3    3    0    0 -0.37958280319E-01 -0.10719280456E+00  0.70816858834E-01  0.14115821767E+00  0.44491420840E-01 0.  0.
         14    1    1    2    0    0  0.93977163886E-02  0.10466210500E-01  0.10187199682E-02  0.14103064416E-01  0.00000000000E+00 0.  1.
     999901    1    3    3    0    0  0.28560563930E-01  0.96726594056E-01 -0.71835578803E-01  0.88866871791E+00  0.88000000000E+00 0.  1.
        -11    1    4    4    0    0 -0.57536310922E-02 -0.71416449155E-01  0.55534371739E-01  0.90651756994E-01  0.51100000000E-03 0. -1.
         11    1    4    4    0    0 -0.32204649227E-01 -0.35776355401E-01  0.15282487096E-01  0.50506460680E-01  0.51100000000E-03 0.  1.
</event>
<event>
 8    1  0.2824193E+004  0.1043930E+01  0.7957747E-01            NaN
         13   -1    0    0    0    0  0.00000000000E+00  0.00000000000E+00  0.74505805969E-08  0.10566000000E+00  0.10566000000E+00 0.  1.
     999900   -1    0    0    0    0 -0.00000000000E+00 -0.00000000000E+00 -0.74505805969E-08  0.93827000000E+00  0.93827000000E+00 0. -1.
     999902    2    1    2    0    0  0.23571558913E-03 -0.12236360876E-01 -0.68106627615E-02  0.10299239579E+01  0.10298287186E+01 0.  0.
     999903    2    3    3    0    0 -0.67823419491E-01 -0.11420730167E+00 -0.15976963126E-01  0.14137787593E+00  0.45706853617E-01 0.  0.
         14    1    1    2    0    0 -0.23571558913E-03  0.12236360876E-01  0.68106627615E-02  0.14006042145E-01  0.00000000000E+00 0.  1.
     999901    1    3    3    0    0  0.68059135080E-01  0.10197094079E+00  0.91663003642E-02  0.88854608192E+00  0.88000000000E+00 0.  1.
        -11    1    4    4    0    0 -0.31012077892E-01 -0.78633777528E-01 -0.27523880159E-01  0.88897947353E-01  0.51100000000E-03 0. -1.
         11    1    4    4    0    0 -0.36811341599E-01 -0.35573524138E-01  0.11546917033E-01  0.52479928581E-01  0.51100000000E-03 0.  1.
</event>
<event>
 8    1  0.2824193E+004  0.1043930E+01  0.7957747E-01            NaN
         13   -1    0    0    0    0  0.00000000000E+00  0.00000000000E+00  0.74505805969E-08  0.10566000000E+00  0.10566000000E+00 0.  1.
     999900   -1    0    0    0    0 -0.00000000000E+00 -0.00000000000E+00 -0.74505805969E-08  0.93827000000E+00  0.93827000000E+00 0. -1.
     999902    2    1    2    0    0  0.11249759604E-02 -0.28665694198E-02  0.12698368099E-01  0.10308635795E+01  0.10307807664E+01 0.  0.
     999903    2    3    3    0    0  0.54402439243E-02 -0.72646170089E-01 -0.11034954383E+00  0.13955633575E+00  0.44630558404E-01 0.  0.
         14    1    1    2    0    0 -0.11249759604E-02  0.28665694198E-02 -0.12698368099E-01  0.13066420456E-01  0.00000000000E+00 0. -1.
     999901    1    3    3    0    0 -0.43152679639E-02  0.69779600670E-01  0.12304791192E+00  0.89130724379E+00  0.88000000000E+00 0.  1.
        -11    1    4    4    0    0 -0.88796797637E-02 -0.39983901138E-01 -0.89035835595E-01  0.98006133502E-01  0.51100000000E-03 0. -1.
         11    1    4    4    0    0  0.14319923688E-01 -0.32662268951E-01 -0.21313708231E-01  0.41550202250E-01  0.51100000000E-03 0.  1.
</event>
<event>
 8    1  0.2824193E+004  0.1043930E+01  0.7957747E-01            NaN
         13   -1    0    0    0    0  0.00000000000E+00  0.00000000000E+00  0.74505805969E-08  0.10566000000E+00  0.10566000000E+00 0.  1.
     999900   -1    0    0    0    0 -0.00000000000E+00 -0.00000000000E+00 -0.74505805969E-08  0.93827000000E+00  0.93827000000E+00 0. -1.
     999902    2    1    2    0    0 -0.14710909384E-02 -0.19969362273E-02 -0.13678229303E-01  0.10300287116E+01  0.10299349013E+01 0.  0.
     999903    2    3    3    0    0  0.16381300573E-01 -0.13215791733E+00  0.36154709887E-03  0.14016484323E+00  0.43726312901E-01 0.  0.
         14    1    1    2    0    0  0.14710909384E-02  0.19969362273E-02  0.13678229303E-01  0.13901288419E-01  0.00000000000E+00 0.  1.
     999901    1    3    3    0    0 -0.17852391511E-01  0.13016098110E+00 -0.14039776402E-01  0.88986386836E+00  0.88000000000E+00 0.  1.
        -11    1    4    4    0    0  0.34489979344E-02 -0.94911888746E-01  0.18502380885E-01  0.96761363319E-01  0.51100000000E-03 0.  1.
         11    1    4    4    0    0  0.12932302638E-01 -0.37246028580E-01 -0.18140833787E-01  0.43403479906E-01  0.51100000000E-03 0. -1.
</event>
<event>
 8    1  0.2824193E+004  0.1043930E+01  0.7957747E-01            NaN
         13   -1    0    0    0    0  0.00000000000E+00  0.00000000000E+00  0.74505805969E-08  0.10566000000E+00  0.10566000000E+00 0. -1.
     999900   -1    0    0    0    0 -0.00000000000E+00 -0.00000000000E+00 -0.74505805969E-08  0.93827000000E+00  0.93827000000E+00 0. -1.
     999902    2    1    2    0    0  0.13523679187E-01 -0.30211054670E-02  0.26792031344E-02  0.10298163504E+01  0.10297196319E+01 0.  0.
     999903    2    3    3    0    0 -0.33642032504E-01 -0.11714193573E+00 -0.52061470255E-01  0.13951038632E+00  0.43574439180E-01 0.  0.
         14    1    1    2    0    0 -0.13523679187E-01  0.30211054670E-02 -0.26792031344E-02  0.14113649649E-01  0.00000000000E+00 0.  1.
     999901    1    3    3    0    0  0.47165711690E-01  0.11412083026E+00  0.54740673389E-01  0.89030596403E+00  0.88000000000E+00 0.  1.
        -11    1    4    4    0    0  0.10676111068E-01 -0.22822988587E-01 -0.11045687955E-01  0.27516113442E-01  0.51100000000E-03 0.  1.
         11    1    4    4    0    0 -0.44318143571E-01 -0.94318947142E-01 -0.41015782300E-01  0.11199427288E+00  0.51100000000E-03 0. -1.
</event>
<event>
 8    1  0.2824193E+004  0.1043930E+01  0.7957747E-01            NaN
         13   -1    0    0    0    0  0.00000000000E+00  0.00000000000E+00  0.74505805969E-08  0.10566000000E+00  0.10566000000E+00 0. -1.
     999900   -1    0    0    0    0 -0.00000000000E+00 -0.00000000000E+00 -0.74505805969E-08  0.93827000000E+00  0.93827000000E+00 0. -1.
     999902    2    1    2    0    0 -0.38718832959E-02  0.40525490656E-02 -0.13207442691E-01  0.10295824854E+01  0.10294825122E+01 0.  0.
     999903    2    3    3    0    0 -0.39864474798E-01 -0.85230315781E-02  0.12390525488E+00  0.13814908699E+00  0.45506479007E-01 0.  0.
         14    1    1    2    0    0  0.38718832959E-02 -0.40525490656E-02  0.13207442691E-01  0.14347514649E-01  0.00000000000E+00 0. -1.
     999901    1    3    3    0    0  0.35992591502E-01  0.12575580644E-01 -0.13711269757E+00  0.89143339836E+00  0.88000000000E+00 0. -1.
        -11    1    4    4    0    0  0.54071265408E-02 -0.14367920493E-01  0.28115568161E-01  0.32037797220E-01  0.51100000000E-03 0. -1.
         11    1    4    4    0    0 -0.45271601339E-01  0.58448889151E-02  0.95789686721E-01  0.10611128977E+00  0.51100000000E-03 0.  1.
</event>
<event>
 8    1  0.2824193E+004  0.1043930E+01  0.7957747E-01            NaN
         13   -1    0    0    0    0  0.00000000000E+00  0.00000000000E+00  0.74505805969E-08  0.10566000000E+00  0.10566000000E+00 0. -1.
     999900   -1    0    0    0    0 -0.00000000000E+00 -0.00000000000E+00 -0.74505805969E-08  0.93827000000E+00  0.93827000000E+00 0. -1.
     999902    2    1    2    0    0  0.53542935806E-02  0.12425650636E-01 -0.28814984087E-02  0.10300964073E+01  0.10300035146E+01 0.  0.
     999903    2    3    3    0    0  0.13171145913E+00  0.90094861539E-02 -0.21333670557E-01  0.14087298988E+00  0.44283117225E-01 0.  0.
         14    1    1    2    0    0 -0.53542935806E-02 -0.12425650636E-01  0.28814984087E-02  0.13833592684E-01  0.00000000000E+00 0. -1.
     999901    1    3    3    0    0 -0.12635716555E+00  0.34161644822E-02  0.18452172149E-01  0.88922341744E+00  0.88000000000E+00 0. -1.
        -11    1    4    4    0    0  0.28429531230E-01 -0.15201729749E-01  0.18148295062E-02  0.32293738719E-01  0.51100000000E-03 0. -1.
         11    1    4    4    0    0  0.10328192790E+00  0.24211215903E-01 -0.23148500063E-01  0.10857925116E+00  0.51100000000E-03 0.  1.
</event>
<event>
 8    1  0.2824193E+004  0.1043930E+01  0.7957747E-01            NaN
         13   -1    0    0    0    0  0.00000000000E+00  0.00000000000E+00  0.74505805969E-08  0.10566000000E+00  0.10566000000E+00 0. -1.
     999900   -1    0    0    0    0 -0.00000000000E+00 -0.00000000000E+00 -0.74505805969E-08  0.93827000000E+00  0.93827000000E+00 0.  1.
     999902    2    1    2    0    0 -0.72915904222E-03 -0.50889481996E-02  0.13056287548E-01  0.10298980468E+01  0.10298024524E+01 0.  0.
     999903    2    3    3    0    0 -0.10975261590E+00  0.72430105162E-01 -0.77112054127E-02  0.13954609022E+00  0.46063996526E-01 0.  0.
         14    1    1    2    0    0  0.72915904222E-03  0.50889481996E-02 -0.13056287548E-01  0.14031953222E-01  0.00000000000E+00 0.  1.
     999901    1    3    3    0    0  0.10902345686E+00 -0.77519053362E-01  0.20767492960E-01  0.89035195656E+00  0.88000000000E+00 0.  1.
        -11    1    4    4    0    0 -0.83981893889E-01  0.68360623116E-01  0.88335575989E-02  0.10864817603E+00  0.51100000000E-03 0. -1.
         11    1    4    4    0    0 -0.25770722014E-01  0.40694820461E-02 -0.16544763012E-01  0.30897914191E-01  0.51100000000E-03 0.  1.
</event>
<event>
 8    1  0.2824193E+004  0.1043930E+01  0.7957747E-01            NaN
         13   -1    0    0    0    0  0.00000000000E+00  0.00000000000E+00  0.74505805969E-08  0.10566000000E+00  0.10566000000E+00 0. -1.
     999900   -1    0    0    0    0 -0.00000000000E+00 -0.00000000000E+00 -0.74505805969E-08  0.93827000000E+00  0.93827000000E+00 0.  1.
     999902    2    1    2    0    0 -0.43996943660E-02  0.13478605547E-01 -0.12014234646E-01  0.10253458145E+01  0.10251773833E+01 0.  0.
     999903    2    3    3    0    0 -0.11504299008E+00 -0.55355900065E-02  0.56056603038E-01  0.13560589883E+00  0.44509378001E-01 0.  0.
         14    1    1    2    0    0  0.43996943660E-02 -0.13478605547E-01  0.12014234646E-01  0.18584185539E-01  0.00000000000E+00 0. -1.
     999901    1    3    3    0    0  0.11064329572E+00  0.19014195554E-01 -0.68070837683E-01  0.88973991563E+00  0.88000000000E+00 0.  1.
        -11    1    4    4    0    0 -0.11844259202E-01 -0.48377224229E-02  0.24571579143E-01  0.27707646180E-01  0.51100000000E-03 0. -1.
         11    1    4    4    0    0 -0.10319873088E+00 -0.69786758361E-03  0.31485023895E-01  0.10789825265E+00  0.51100000000E-03 0.  1.
</event>
<event>
 8    1  0.2824193E+004  0.1043930E+01  0.7957747E-01            NaN
         13   -1    0    0    0    0  0.00000000000E+00  0.00000000000E+00  0.74505805969E-08  0.10566000000E+00  0.10566000000E+00 0. -1.
     999900   -1    0    0    0    0 -0.00000000000E+00 -0.00000000000E+00 -0.74505805969E-08  0.93827000000E+00  0.93827000000E+00 0. -1.
     999902    2    1    2    0    0  0.14776669698E-01  0.18186398275E-01 -0.42140844146E-02  0.10201213134E+01  0.10198434392E+01 0.  0.
     999903    2    3    3    0    0 -0.39398868995E-01 -0.97803032886E-01 -0.60960095911E-01  0.12904968500E+00  0.42661267985E-01 0.  0.
         14    1    1    2    0    0 -0.14776669698E-01 -0.18186398275E-01  0.42140844146E-02  0.23808686588E-01  0.00000000000E+00 0.  1.
     999901    1    3    3    0    0  0.54175538694E-01  0.11598943116E+00  0.56746011496E-01  0.89107162841E+00  0.88000000000E+00 0. -1.
        -11    1    4    4    0    0 -0.43316703496E-01 -0.80033210021E-01 -0.35351097593E-01  0.97629978644E-01  0.51100000000E-03 0.  1.
         11    1    4    4    0    0  0.39178345004E-02 -0.17769822865E-01 -0.25608998318E-01  0.31419706359E-01  0.51100000000E-03 0. -1.
</event>
<event>
 8    1  0.2824193E+004  0.1043930E+01  0.7957747E-01            NaN
         13   -1    0    0    0    0  0.00000000000E+00  0.00000000000E+00  0.74505805969E-08  0.10566000000E+00  0.10566000000E+00 0. -1.
     999900   -1    0    0    0    0 -0.00000000000E+00 -0.00000000000E+00 -0.74505805969E-08  0.93827000000E+00  0.93827000000E+00 0. -1.
     999902    2    1    2    0    0  0.10282876494E-01 -0.78172442317E-02 -0.56926293527E-02  0.10298143036E+01  0.10297175569E+01 0.  0.
     999903    2    3    3    0    0 -0.21660183653E-02  0.88280818429E-01  0.97080020274E-01  0.13855001610E+00  0.44422765417E-01 0.  0.
         14    1    1    2    0    0 -0.10282876494E-01  0.78172442317E-02  0.56926293527E-02  0.14115696416E-01  0.00000000000E+00 0. -1.
     999901    1    3    3    0    0  0.12448894859E-01 -0.96098062660E-01 -0.10277264963E+00  0.89126428748E+00  0.88000000000E+00 0. -1.
        -11    1    4    4    0    0  0.13966979040E-01  0.72659579377E-01  0.86170140403E-01  0.11357836588E+00  0.51100000000E-03 0. -1.
         11    1    4    4    0    0 -0.16132997405E-01  0.15621239052E-01  0.10909879871E-01  0.24971650217E-01  0.51100000000E-03 0.  1.
</event>
<event>
 8    1  0.2824193E+004  0.1043930E+01  0.7957747E-01            NaN
         13   -1    0    0    0    0  0.00000000000E+00  0.00000000000E+00  0.74505805969E-08  0.10566000000E+00  0.10566000000E+00 0. -1.
     999900   -1    0    0    0    0 -0.00000000000E+00 -0.00000000000E+00 -0.74505805969E-08  0.93827000000E+00  0.93827000000E+00 0. -1.
     999902    2    1    2    0    0 -0.42180616803E-02  0.13650348162E-01  0.16834755576E-02  0.10295439603E+01  0.10294434457E+01 0.  0.
     999903    2    3    3    0    0  0.18177147915E-01 -0.94986216313E-01  0.88293303591E-01  0.13836232285E+00  0.44672529924E-01 0.  0.
         14    1    1    2    0    0  0.42180616803E-02 -0.13650348162E-01 -0.16834755576E-02  0.14386039735E-01  0.00000000000E+00 0.  1.
     999901    1    3    3    0    0 -0.22395209595E-01  0.10863656448E+00 -0.86609828033E-01  0.89118163742E+00  0.88000000000E+00 0. -1.
        -11    1    4    4    0    0 -0.21659071094E-02  0.15584988423E-02  0.15534304728E-01  0.15770092474E-01  0.51100000000E-03 0.  1.
         11    1    4    4    0    0  0.20343055024E-01 -0.96544715156E-01  0.72758998862E-01  0.12259223038E+00  0.51100000000E-03 0. -1.
</event>
<event>
 8    1  0.2824193E+004  0.1043930E+01  0.7957747E-01            NaN
         13   -1    0    0    0    0  0.00000000000E+00  0.00000000000E+00  0.74505805969E-08  0.10566000000E+00  0.10566000000E+00 0. -1.
     999900   -1    0    0    0    0 -0.00000000000E+00 -0.00000000000E+00 -0.74505805969E-08  0.93827000000E+00  0.93827000000E+00 0.  1.
     999902    2    1    2    0    0  0.79048706140E-02 -0.11614752229E-01  0.63601603968E-02  0.10285079026E+01  0.10283922717E+01 0.  0.
     999903    2    3    3    0    0 -0.30199885815E-02 -0.10805603086E+00 -0.75842072765E-01  0.13936366236E+00  0.44553162034E-01 0.  0.
         14    1    1    2    0    0 -0.79048706140E-02  0.11614752229E-01 -0.63601603968E-02  0.15422097427E-01  0.00000000000E+00 0.  1.
     999901    1    3    3    0    0  0.10924859195E-01  0.96441278634E-01  0.82202233162E-01  0.88914424022E+00  0.88000000000E+00 0. -1.
        -11    1    4    4    0    0  0.26877115429E-02 -0.38557186339E-03 -0.15620648006E-01  0.15863108905E-01  0.51100000000E-03 0.  1.
         11    1    4    4    0    0 -0.57077001244E-02 -0.10767045900E+00 -0.60221424759E-01  0.12350055345E+00  0.51100000000E-03 0. -1.
</event>
<event>
 7    1  0.2824193E+004  0.1043930E+01  0.7957747E-01            NaN
         13   -1    0    0    0    0  0.00000000000E+00  0.00000000000E+00  0.74505805969E-08  0.10566000000E+00  0.10566000000E+00 0.  1.
     999900   -1    0    0    0    0 -0.00000000000E+00 -0.00000000000E+00 -0.74505805969E-08  0.93827000000E+00  0.93827000000E+00 0.  1.
     999903    2    1    2    0    0  0.53749719394E-01  0.10275664508E+00 -0.13193650029E-01  0.12479755661E+00  0.44185939978E-01 0.  0.
         14    1    1    2    0    0 -0.32344254616E-01 -0.11025431935E-02  0.64328999081E-02  0.32996190831E-01  0.00000000000E+00 0. -1.
     999901    1    1    2    0    0 -0.21405464778E-01 -0.10165410189E+00  0.67607501214E-02  0.88613625256E+00  0.88000000000E+00 0.  1.
        -11    1    3    3    0    0  0.47090283352E-01  0.42635457311E-01 -0.90149547624E-02  0.64162352955E-01  0.51100000000E-03 0.  1.
         11    1    3    3    0    0  0.66594360415E-02  0.60121187772E-01 -0.41786952670E-02  0.60635203658E-01  0.51100000000E-03 0. -1.
</event>
<event>
 8    1  0.2824193E+004  0.1043930E+01  0.7957747E-01            NaN
         13   -1    0    0    0    0  0.00000000000E+00  0.00000000000E+00  0.74505805969E-08  0.10566000000E+00  0.10566000000E+00 0. -1.
     999900   -1    0    0    0    0 -0.00000000000E+00 -0.00000000000E+00 -0.74505805969E-08  0.93827000000E+00  0.93827000000E+00 0. -1.
     999902    2    1    2    0    0 -0.86471355157E-02  0.75239534941E-02 -0.68734654472E-02  0.10305648455E+01  0.10304781770E+01 0.  0.
     999903    2    3    3    0    0 -0.34641860488E-01 -0.61455537106E-01 -0.11377760560E+00  0.14103553676E+00  0.44371584967E-01 0.  0.
         14    1    1    2    0    0  0.86471355157E-02 -0.75239534941E-02  0.68734654472E-02  0.13365154547E-01  0.00000000000E+00 0. -1.
     999901    1    3    3    0    0  0.25994724972E-01  0.68979490600E-01  0.10690414015E+00  0.88952930870E+00  0.88000000000E+00 0.  1.
        -11    1    4    4    0    0 -0.17199450667E-01 -0.33784436203E-01 -0.22534674501E-01  0.44105350114E-01  0.51100000000E-03 0.  1.
         11    1    4    4    0    0 -0.17442409820E-01 -0.27671100903E-01 -0.91242931101E-01  0.96930186642E-01  0.51100000000E-03 0. -1.
</event>
<event>
 8    1  0.2824193E+004  0.1043930E+01  0.7957747E-01            NaN
         13   -1    0    0    0    0  0.00000000000E+00  0.00000000000E+00  0.74505805969E-08  0.10566000000E+00  0.10566000000E+00 0.  1.
     999900   -1    0    0    0    0 -0.00000000000E+00 -0.00000000000E+00 -0.74505805969E-08  0.93827000000E+00  0.93827000000E+00 0.  1.
     999902    2    1    2    0    0 -0.12164886092E-01 -0.11406914960E-02  0.58439592897E-02  0.10303860903E+01  0.10302970725E+01 0.  0.
     999903    2    3    3    0    0 -0.55907283529E-01  0.97730889936E-01  0.72531826592E-01  0.14126503068E+00  0.44922063909E-01 0.  0.
         14    1    1    2    0    0  0.12164886092E-01  0.11406914960E-02 -0.58439592897E-02  0.13543909734E-01  0.00000000000E+00 0.  1.
     999901    1    3    3    0    0  0.43742397437E-01 -0.98871581432E-01 -0.66687867302E-01  0.88912105958E+00  0.88000000000E+00 0.  1.
        -11    1    4    4    0    0 -0.26670299922E-01  0.58474897145E-01  0.15514278676E-01  0.66117867917E-01  0.51100000000E-03 0. -1.
         11    1    4    4    0    0 -0.29236983606E-01  0.39255992791E-01  0.57017547916E-01  0.75147162765E-01  0.51100000000E-03 0.  1.
</event>
<event>
 8    1  0.2824193E+004  0.1043930E+01  0.7957747E-01            NaN
         13   -1    0    0    0    0  0.00000000000E+00  0.00000000000E+00  0.74505805969E-08  0.10566000000E+00  0.10566000000E+00 0.  1.
     999900   -1    0    0    0    0 -0.00000000000E+00 -0.00000000000E+00 -0.74505805969E-08  0.93827000000E+00  0.93827000000E+00 0.  1.
     999902    2    1    2    0    0 -0.42817227783E-02 -0.33735201299E-02  0.13299487130E-01  0.10295567559E+01  0.10294564214E+01 0.  0.
     999903    2    3    3    0    0 -0.69690663656E-01  0.82817635516E-01  0.74695719169E-01  0.14080665482E+00  0.50314155332E-01 0.  0.
         14    1    1    2    0    0  0.42817227783E-02  0.33735201299E-02 -0.13299487130E-01  0.14373244099E-01  0.00000000000E+00 0. -1.
     999901    1    3    3    0    0  0.65408940878E-01 -0.86191155645E-01 -0.61396232039E-01  0.88875010108E+00  0.88000000000E+00 0. -1.
        -11    1    4    4    0    0 -0.19459672893E-01  0.25162214743E-01  0.52141771183E-01  0.61080613479E-01  0.51100000000E-03 0. -1.
         11    1    4    4    0    0 -0.50230990763E-01  0.57655420772E-01  0.22553947986E-01  0.79726041343E-01  0.51100000000E-03 0.  1.
</event>
<event>
 8    1  0.2824193E+004  0.1043930E+01  0.7957747E-01            NaN
         13   -1    0    0    0    0  0.00000000000E+00  0.00000000000E+00  0.74505805969E-08  0.10566000000E+00  0.10566000000E+00 0.  1.
     999900   -1    0    0    0    0 -0.00000000000E+00 -0.00000000000E+00 -0.74505805969E-08  0.93827000000E+00  0.93827000000E+00 0.  1.
     999902    2    1    2    0    0  0.12177577173E-02  0.10708522796E-01  0.89653819261E-02  0.10299109605E+01  0.10298155433E+01 0.  0.
     999903    2    3    3    0    0  0.31557238120E-01 -0.46774497290E-01  0.12049671504E+00  0.14049316224E+00  0.45112719098E-01 0.  0.
         14    1    1    2    0    0 -0.12177577173E-02 -0.10708522796E-01 -0.89653819261E-02  0.14019039461E-01  0.00000000000E+00 0. -1.
     999901    1    3    3    0    0 -0.30339480403E-01  0.57483020086E-01 -0.11153133312E+00  0.88941779830E+00  0.88000000000E+00 0.  1.
        -11    1    4    4    0    0  0.29037636461E-01 -0.12115406297E-01  0.85779743722E-01  0.91369540630E-01  0.51100000000E-03 0.  1.
         11    1    4    4    0    0  0.25196016596E-02 -0.34659090993E-01  0.34716971322E-01  0.49123621607E-01  0.51100000000E-03 0. -1.
</event>
<event>
 8    1  0.2824193E+004  0.1043930E+01  0.7957747E-01            NaN
         13   -1    0    0    0    0  0.00000000000E+00  0.00000000000E+00  0.74505805969E-08  0.10566000000E+00  0.10566000000E+00 0.  1.
     999900   -1    0    0    0    0 -0.00000000000E+00 -0.00000000000E+00 -0.74505805969E-08  0.93827000000E+00  0.93827000000E+00 0.  1.
     999902    2    1    2    0    0 -0.65236120076E-02  0.11463010956E-01 -0.27203623283E-02  0.10304630588E+01  0.10303750565E+01 0.  0.
     999903    2    3    3    0    0  0.12044160810E+00  0.31946860660E-01 -0.45130653150E-01  0.14010448611E+00  0.45450063889E-01 0.  0.
         14    1    1    2    0    0  0.65236120076E-02 -0.11463010956E-01  0.27203623283E-02  0.13466941190E-01  0.00000000000E+00 0.  1.
     999901    1    3    3    0    0 -0.12696522010E+00 -0.20483849704E-01  0.42410290822E-01  0.89035857270E+00  0.88000000000E+00 0. -1.
        -11    1    4    4    0    0  0.88750257300E-01  0.17389433263E-01 -0.10658437519E-01  0.91065163325E-01  0.51100000000E-03 0. -1.
         11    1    4    4    0    0  0.31691350796E-01  0.14557427397E-01 -0.34472215631E-01  0.49039322785E-01  0.51100000000E-03 0.  1.
</event>
<event>
 8    1  0.2824193E+004  0.1043930E+01  0.7957747E-01            NaN
         13   -1    0    0    0    0  0.00000000000E+00  0.00000000000E+00  0.74505805969E-08  0.10566000000E+00  0.10566000000E+00 0. -1.
     999900   -1    0    0    0    0 -0.00000000000E+00 -0.00000000000E+00 -0.74505805969E-08  0.93827000000E+00  0.93827000000E+00 0. -1.
     999902    2    1    2    0    0  0.97071522682E-02  0.45763781255E-02  0.80895862723E-02  0.10304907497E+01  0.10304031113E+01 0.  0.
     999903    2    3    3    0    0  0.12327957951E+00  0.48402978559E-01 -0.21717345386E-01  0.14161060015E+00  0.45179817680E-01 0.  0.
         14    1    1    2    0    0 -0.97071522682E-02 -0.45763781255E-02 -0.80895862723E-02  0.13439250275E-01  0.00000000000E+00 0.  1.
     999901    1    3    3    0    0 -0.11357242724E+00 -0.43826600433E-01  0.29806931658E-01  0.88888014958E+00  0.88000000000E+00 0.  1.
        -11    1    4    4    0    0  0.19877220959E-01 -0.99989345193E-03 -0.18174192225E-01  0.26956744684E-01  0.51100000000E-03 0. -1.
         11    1    4    4    0    0  0.10340235855E+00  0.49402872011E-01 -0.35431531613E-02  0.11465385546E+00  0.51100000000E-03 0.  1.
</event>
<event>
 8    1  0.2824193E+004  0.1043930E+01  0.7957747E-01            NaN
         13   -1    0    0    0    0  0.00000000000E+00  0.00000000000E+00  0.74505805969E-08  0.10566000000E+00  0.10566000000E+00 0.  1.
     999900   -1    0    0    0    0 -0.00000000000E+00 -0.00000000000E+00 -0.74505805969E-08  0.93827000000E+00  0.93827000000E+00 0.  1.
     999902    2    1    2    0    0 -0.41111542618E-02  0.59000762070E-02 -0.11607309705E-01  0.10302756188E+01  0.10301851331E+01 0.  0.
     999903    2    3    3    0    0  0.61180861636E-01 -0.76846172521E-01 -0.89499109034E-01  0.14056941926E+00  0.45839274114E-01 0.  0.
         14    1    1    2    0    0  0.41111542618E-02 -0.59000762070E-02  0.11607309705E-01  0.13654381246E-01  0.00000000000E+00 0.  1.
     999901    1    3    3    0    0 -0.65292015897E-01  0.82746248728E-01  0.77891799328E-01  0.88970619950E+00  0.88000000000E+00 0.  1.
        -11    1    4    4    0    0 -0.32134304713E-02 -0.12125437447E-02 -0.17613829644E-01  0.17952841376E-01  0.51100000000E-03 0. -1.
         11    1    4    4    0    0  0.64394292107E-01 -0.75633628776E-01 -0.71885279389E-01  0.12261657788E+00  0.51100000000E-03 0.  1.
</event>
<event>
 7    1  0.2824193E+004  0.1043930E+01  0.7957747E-01            NaN
         13   -1    0    0    0    0  0.00000000000E+00  0.00000000000E+00  0.74505805969E-08  0.10566000000E+00  0.10566000000E+00 0. -1.
     999900   -1    0    0    0    0 -0.00000000000E+00 -0.00000000000E+00 -0.74505805969E-08  0.93827000000E+00  0.93827000000E+00 0. -1.
     999903    2    1    2    0    0  0.47655603453E-01  0.72537591448E-01 -0.75997335048E-01  0.12254876851E+00  0.41350296427E-01 0.  0.
         14    1    1    2    0    0 -0.30619492209E-01  0.12482314148E-01 -0.48988990328E-02  0.33426945439E-01  0.00000000000E+00 0.  1.
     999901    1    1    2    0    0 -0.17036111245E-01 -0.85019905596E-01  0.80896234081E-01  0.88795428605E+00  0.88000000000E+00 0.  1.
        -11    1    3    3    0    0 -0.56147802466E-02  0.11031883078E-01 -0.19709221525E-02  0.12544873718E-01  0.51100000000E-03 0. -1.
         11    1    3    3    0    0  0.53270383700E-01  0.61505708370E-01 -0.74026412896E-01  0.11000389479E+00  0.51100000000E-03 0.  1.
</event>
<event>
 8    1  0.2824193E+004  0.1043930E+01  0.7957747E-01            NaN
         13   -1    0    0    0    0  0.00000000000E+00  0.00000000000E+00  0.74505805969E-08  0.10566000000E+00  0.10566000000E+00 0.  1.
     999900   -1    0    0    0    0 -0.00000000000E+00 -0.00000000000E+00 -0.74505805969E-08  0.93827000000E+00  0.93827000000E+00 0.  1.
     999902    2    1    2    0    0  0.10746069192E-01  0.54017866722E-02  0.47355003083E-02  0.10310039695E+01  0.10309229374E+01 0.  0.
     999903    2    3    3    0    0 -0.13032156478E+00  0.20502709396E-01  0.84333176653E-02  0.13963323342E+00  0.44969408349E-01 0.  0.
         14    1    1    2    0    0 -0.10746069192E-01 -0.54017866722E-02 -0.47355003083E-02  0.12926030539E-01  0.00000000000E+00 0. -1.
     999901    1    3    3    0    0  0.14106763398E+00 -0.15100922724E-01 -0.36978173569E-02  0.89137073604E+00  0.88000000000E+00 0.  1.
        -11    1    4    4    0    0 -0.87890137872E-01  0.34247833771E-01  0.50958856114E-03  0.94329800459E-01  0.51100000000E-03 0.  1.
         11    1    4    4    0    0 -0.42431426912E-01 -0.13745124374E-01  0.79237291041E-02  0.45303432958E-01  0.51100000000E-03 0. -1.
</event>
<event>
 8    1  0.2824193E+004  0.1043930E+01  0.7957747E-01            NaN
         13   -1    0    0    0    0  0.00000000000E+00  0.00000000000E+00  0.74505805969E-08  0.10566000000E+00  0.10566000000E+00 0.  1.
     999900   -1    0    0    0    0 -0.00000000000E+00 -0.00000000000E+00 -0.74505805969E-08  0.93827000000E+00  0.93827000000E+00 0.  1.
     999902    2    1    2    0    0  0.14968035703E-01  0.62402546200E-02 -0.12033948664E-01  0.10237359714E+01  0.10235367802E+01 0.  0.
     999903    2    3    3    0    0  0.10817705294E+00  0.19773887698E-01  0.64157787166E-01  0.13543632560E+00  0.46189773998E-01 0.  0.
         14    1    1    2    0    0 -0.14968035703E-01 -0.62402546200E-02  0.12033948664E-01  0.20194028597E-01  0.00000000000E+00 0. -1.
     999901    1    3    3    0    0 -0.93209017235E-01 -0.13533633078E-01 -0.76191735830E-01  0.88829964580E+00  0.88000000000E+00 0. -1.
        -11    1    4    4    0    0  0.75155042744E-01  0.34713512563E-01  0.48538952525E-01  0.95966657947E-01  0.51100000000E-03 0.  1.
         11    1    4    4    0    0  0.33022010194E-01 -0.14939624866E-01  0.15618834642E-01  0.39469667657E-01  0.51100000000E-03 0. -1.
</event>
<event>
 8    1  0.2824193E+004  0.1043930E+01  0.7957747E-01            NaN
         13   -1    0    0    0    0  0.00000000000E+00  0.00000000000E+00  0.74505805969E-08  0.10566000000E+00  0.10566000000E+00 0.  1.
     999900   -1    0    0    0    0 -0.00000000000E+00 -0.00000000000E+00 -0.74505805969E-08  0.93827000000E+00  0.93827000000E+00 0.  1.
     999902    2    1    2    0    0  0.78167746743E-02 -0.98314935245E-02 -0.54808186414E-02  0.10302260004E+01  0.10301348515E+01 0.  0.
     999903    2    3    3    0    0 -0.11909902779E+00  0.11475621912E-01 -0.55893875537E-01  0.13943809616E+00  0.44750296307E-01 0.  0.
         14    1    1    2    0    0 -0.78167746743E-02  0.98314935245E-02  0.54808186414E-02  0.13703999570E-01  0.00000000000E+00 0.  1.
     999901    1    3    3    0    0  0.12691580247E+00 -0.21307115436E-01  0.50413056896E-01  0.89078790427E+00  0.88000000000E+00 0. -1.
        -11    1    4    4    0    0 -0.45762274579E-01  0.17865490654E-01 -0.38424416179E-02  0.49278666881E-01  0.51100000000E-03 0. -1.
         11    1    4    4    0    0 -0.73336753213E-01 -0.63898687422E-02 -0.52051433919E-01  0.90159429282E-01  0.51100000000E-03 0.  1.
</event>
<event>
 8    1  0.2824193E+004  0.1043930E+01  0.7957747E-01            NaN
         13   -1    0    0    0    0  0.00000000000E+00  0.00000000000E+00  0.74505805969E-08  0.10566000000E+00  0.10566000000E+00 0.  1.
     999900   -1    0    0    0    0 -0.00000000000E+00 -0.00000000000E+00 -0.74505805969E-08  0.93827000000E+00  0.93827000000E+00 0.  1.
     999902    2    1    2    0    0  0.68694537409E-02  0.10258975385E-01  0.58175916200E-02  0.10302815443E+01  0.10301911377E+01 0.  0.
     999903    2    3    3    0    0 -0.11139159424E+00  0.20899981737E-01 -0.68941870234E-01  0.13916545556E+00  0.42061217840E-01 0.  0.
         14    1    1    2    0    0 -0.68694537409E-02 -0.10258975385E-01 -0.58175916200E-02  0.13648455696E-01  0.00000000000E+00 0. -1.
     999901    1    3    3    0    0  0.11826104798E+00 -0.10641006353E-01  0.74759461854E-01  0.89111608875E+00  0.88000000000E+00 0. -1.
        -11    1    4    4    0    0 -0.68104611547E-01  0.26983749301E-01 -0.59656108684E-01  0.94474722887E-01  0.51100000000E-03 0.  1.
         11    1    4    4    0    0 -0.43286982689E-01 -0.60837675636E-02 -0.92857615501E-02  0.44690732671E-01  0.51100000000E-03 0. -1.
</event>
<event>
 8    1  0.2824193E+004  0.1043930E+01  0.7957747E-01            NaN
         13   -1    0    0    0    0  0.00000000000E+00  0.00000000000E+00  0.74505805969E-08  0.10566000000E+00  0.10566000000E+00 0. -1.
     999900   -1    0    0    0    0 -0.00000000000E+00 -0.00000000000E+00 -0.74505805969E-08  0.93827000000E+00  0.93827000000E+00 0. -1.
     999902    2    1    2    0    0 -0.68980667153E-02 -0.65817497287E-02 -0.10194996998E-01  0.10299714643E+01  0.10298768745E+01 0.  0.
     999903    2    3    3    0    0  0.89834680660E-01  0.13617830151E-01  0.95501666695E-01  0.13815476111E+00  0.41357641735E-01 0.  0.
         14    1    1    2    0    0  0.68980667153E-02  0.65817497287E-02  0.10194996998E-01  0.13958535657E-01  0.00000000000E+00 0. -1.
     999901    1    3    3    0    0 -0.96732747375E-01 -0.20199579880E-01 -0.10569666369E+00  0.89181670323E+00  0.88000000000E+00 0. -1.
        -11    1    4    4    0    0  0.76203237351E-01  0.39641956445E-02  0.54192759024E-01  0.93593613465E-01  0.51100000000E-03 0. -1.
         11    1    4    4    0    0  0.13631443309E-01  0.96536345064E-02  0.41308907671E-01  0.44561147649E-01  0.51100000000E-03 0.  1.
</event>
<event>
 8    1  0.2824193E+004  0.1043930E+01  0.7957747E-01            NaN
         13   -1    0    0    0    0  0.00000000000E+00  0.00000000000E+00  0.74505805969E-08  0.10566000000E+00  0.10566000000E+00 0.  1.
     999900   -1    0    0    0    0 -0.00000000000E+00 -0.00000000000E+00 -0.74505805969E-08  0.93827000000E+00  0.93827000000E+00 0.  1.
     999902    2    1    2    0    0  0.11128795571E-01  0.17764053689E-02 -0.82628983267E-02  0.10299556952E+01  0.10298608900E+01 0.  0.
     999903    2    3    3    0    0 -0.29124703079E-01 -0.11507661160E+00 -0.59338386055E-01  0.13985251172E+00  0.44122625799E-01 0.  0.
         14    1    1    2    0    0 -0.11128795571E-01 -0.17764053689E-02  0.82628983267E-02  0.13974304836E-01  0.00000000000E+00 0. -1.
     999901    1    3    3    0    0  0.40253498650E-01  0.11685301697E+00  0.51075487728E-01  0.89010318344E+00  0.88000000000E+00 0. -1.
        -11    1    4    4    0    0  0.22759089687E-02 -0.59081444754E-01 -0.44386259544E-01  0.73933740830E-01  0.51100000000E-03 0. -1.
         11    1    4    4    0    0 -0.31400612048E-01 -0.55995166849E-01 -0.14952126511E-01  0.65918770890E-01  0.51100000000E-03 0.  1.
</event>
<event>
 8    1  0.2824193E+004  0.1043930E+01  0.7957747E-01            NaN
         13   -1    0    0    0    0  0.00000000000E+00  0.00000000000E+00  0.74505805969E-08  0.10566000000E+00  0.10566000000E+00 0.  1.
     999900   -1    0    0    0    0 -0.00000000000E+00 -0.00000000000E+00 -0.74505805969E-08  0.93827000000E+00  0.93827000000E+00 0. -1.
     999902    2    1    2    0    0 -0.31389767290E-02 -0.13135508729E-01 -0.47355810515E-02  0.10296184490E+01  0.10295189799E+01 0.  0.
     999903    2    3    3    0    0  0.55926878864E-01 -0.10562681245E-01  0.11950455709E+00  0.13892714070E+00  0.42190345368E-01 0.  0.
         14    1    1    2    0    0  0.31389767290E-02  0.13135508729E-01  0.47355810515E-02  0.14311551012E-01  0.00000000000E+00 0.  1.
     999901    1    3    3    0    0 -0.59065855593E-01 -0.25728274839E-02 -0.12424013814E+00  0.89069130829E+00  0.88000000000E+00 0. -1.
        -11    1    4    4    0    0  0.23237413819E-01 -0.24859310764E-01  0.46016332726E-01  0.57233964839E-01  0.51100000000E-03 0. -1.
         11    1    4    4    0    0  0.32689465044E-01  0.14296629518E-01  0.73488224365E-01  0.81693175858E-01  0.51100000000E-03 0.  1.
</event>
<event>
 8    1  0.2824193E+004  0.1043930E+01  0.7957747E-01            NaN
         13   -1    0    0    0    0  0.00000000000E+00  0.00000000000E+00  0.74505805969E-08  0.10566000000E+00  0.10566000000E+00 0.  1.
     999900   -1    0    0    0    0 -0.00000000000E+00 -0.00000000000E+00 -0.74505805969E-08  0.93827000000E+00  0.93827000000E+00 0. -1.
     999902    2    1    2    0    0  0.13301019222E-01 -0.17703224750E-02 -0.35953497874E-02  0.10300383588E+01  0.10299446796E+01 0.  0.
     999903    2    3    3    0    0  0.98241279615E-01 -0.75205967251E-01 -0.51755078430E-01  0.14159758916E+00  0.45431295197E-01 0.  0.
         14    1    1    2    0    0 -0.13301019222E-01  0.17703224750E-02  0.35953497874E-02  0.13891641159E-01  0.00000000000E+00 0. -1.
     999901    1    3    3    0    0 -0.84940260393E-01  0.73435644776E-01  0.48159728643E-01  0.88844076968E+00  0.88000000000E+00 0. -1.
        -11    1    4    4    0    0  0.64739981805E-01 -0.27716834356E-01 -0.43804731527E-01  0.82937348499E-01  0.51100000000E-03 0.  1.
         11    1    4    4    0    0  0.33501297810E-01 -0.47489132895E-01 -0.79503469030E-02  0.58660240666E-01  0.51100000000E-03 0. -1.
</event>
<event>
 7    1  0.2824193E+004  0.1043930E+01  0.7957747E-01            NaN
         13   -1    0    0    0    0  0.00000000000E+00  0.00000000000E+00  0.74505805969E-08  0.10566000000E+00  0.10566000000E+00 0.  1.
     999900   -1    0    0    0    0 -0.00000000000E+00 -0.00000000000E+00 -0.74505805969E-08  0.93827000000E+00  0.93827000000E+00 0. -1.
     999903    2    1    2    0    0 -0.10402071473E+00  0.18874052515E-02  0.51268552936E-02  0.11344336168E+00  0.44935957457E-01 0.  0.
         14    1    1    2    0    0 -0.82368058805E-02 -0.34121017829E-01  0.23613901207E-01  0.42304907032E-01  0.00000000000E+00 0.  1.
     999901    1    1    2    0    0  0.11225752061E+00  0.32233612578E-01 -0.28740756500E-01  0.88818173129E+00  0.88000000000E+00 0.  1.
        -11    1    3    3    0    0 -0.22751939527E-01  0.15886046133E-01 -0.10190735850E-01  0.29565679971E-01  0.51100000000E-03 0.  1.
         11    1    3    3    0    0 -0.81268775201E-01 -0.13998640881E-01  0.15317591143E-01  0.83877681707E-01  0.51100000000E-03 0. -1.
</event>
<event>
 8    1  0.2824193E+004  0.1043930E+01  0.7957747E-01            NaN
         13   -1    0    0    0    0  0.00000000000E+00  0.00000000000E+00  0.74505805969E-08  0.10566000000E+00  0.10566000000E+00 0. -1.
     999900   -1    0    0    0    0 -0.00000000000E+00 -0.00000000000E+00 -0.74505805969E-08  0.93827000000E+00  0.93827000000E+00 0.  1.
     999902    2    1    2    0    0  0.57210717250E-02 -0.87543131659E-02  0.84671986459E-02  0.10304740677E+01  0.10303862102E+01 0.  0.
     999903    2    3    3    0    0 -0.34051191788E-01  0.30299012030E-01 -0.12659628262E+00  0.13842634527E+00  0.32522615210E-01 0.  0.
         14    1    1    2    0    0 -0.57210717250E-02  0.87543131659E-02 -0.84671986459E-02  0.13455932283E-01  0.00000000000E+00 0.  1.
     999901    1    3    3    0    0  0.39772263513E-01 -0.39053325196E-01  0.13506348126E+00  0.89204772245E+00  0.88000000000E+00 0. -1.
        -11    1    4    4    0    0 -0.28955631579E-01  0.40790971337E-02 -0.68487678620E-01  0.74470738396E-01  0.51100000000E-03 0.  1.
         11    1    4    4    0    0 -0.50955602089E-02  0.26219914897E-01 -0.58108603997E-01  0.63955606873E-01  0.51100000000E-03 0. -1.
</event>
<event>
 8    1  0.2824193E+004  0.1043930E+01  0.7957747E-01            NaN
         13   -1    0    0    0    0  0.00000000000E+00  0.00000000000E+00  0.74505805969E-08  0.10566000000E+00  0.10566000000E+00 0. -1.
     999900   -1    0    0    0    0 -0.00000000000E+00 -0.00000000000E+00 -0.74505805969E-08  0.93827000000E+00  0.93827000000E+00 0. -1.
     999902    2    1    2    0    0  0.32680792209E-02 -0.37751477429E-02  0.13769699325E-01  0.10292829286E+01  0.10291787067E+01 0.  0.
     999903    2    3    3    0    0  0.11295316506E+00 -0.28634245367E-01 -0.61005814729E-01  0.13897951382E+00  0.44891628688E-01 0.  0.
         14    1    1    2    0    0 -0.32680792209E-02  0.37751477429E-02 -0.13769699325E-01  0.14647071440E-01  0.00000000000E+00 0.  1.
     999901    1    3    3    0    0 -0.10968508584E+00  0.24859097624E-01  0.74775514054E-01  0.89030341474E+00  0.88000000000E+00 0.  1.
        -11    1    4    4    0    0  0.72989762286E-01 -0.19081669928E-01 -0.14331492883E-01  0.76793673796E-01  0.51100000000E-03 0.  1.
         11    1    4    4    0    0  0.39963402776E-01 -0.95525754394E-02 -0.46674321847E-01  0.62185840027E-01  0.51100000000E-03 0. -1.
</event>
<event>
 8    1  0.2824193E+004  0.1043930E+01  0.7957747E-01            NaN
         13   -1    0    0    0    0  0.00000000000E+00  0.00000000000E+00  0.74505805969E-08  0.10566000000E+00  0.10566000000E+00 0.  1.
     999900   -1    0    0    0    0 -0.00000000000E+00 -0.00000000000E+00 -0.74505805969E-08  0.93827000000E+00  0.93827000000E+00 0.  1.
     999902    2    1    2    0    0  0.90942080141E-03  0.30403431358E-02 -0.14262405442E-01  0.10293188077E+01  0.10292150994E+01 0.  0.
     999903    2    3    3    0    0 -0.12242755156E+00  0.19582938292E-02 -0.50231140673E-01  0.13998932457E+00  0.45623494005E-01 0.  0.
         14    1    1    2    0    0 -0.90942080141E-03 -0.30403431358E-02  0.14262405442E-01  0.14611192339E-01  0.00000000000E+00 0.  1.
     999901    1    3    3    0    0  0.12333697236E+00  0.10820493065E-02  0.35968735230E-01  0.88932948309E+00  0.88000000000E+00 0. -1.
        -11    1    4    4    0    0 -0.55001281717E-01 -0.18599103516E-01 -0.35240447473E-01  0.67920673592E-01  0.51100000000E-03 0. -1.
         11    1    4    4    0    0 -0.67426269840E-01  0.20557397345E-01 -0.14990693199E-01  0.72068650978E-01  0.51100000000E-03 0.  1.
</event>
<event>
 8    1  0.2824193E+004  0.1043930E+01  0.7957747E-01            NaN
         13   -1    0    0    0    0  0.00000000000E+00  0.00000000000E+00  0.74505805969E-08  0.10566000000E+00  0.10566000000E+00 0. -1.
     999900   -1    0    0    0    0 -0.00000000000E+00 -0.00000000000E+00 -0.74505805969E-08  0.93827000000E+00  0.93827000000E+00 0. -1.
     999902    2    1    2    0    0  0.10894501097E-01 -0.43454079317E-02  0.10233497340E-01  0.10283641016E+01  0.10282462878E+01 0.  0.
     999903    2    3    3    0    0  0.21452840418E-01 -0.12877855715E+00 -0.16339745759E-01  0.13915027785E+00  0.45295379338E-01 0.  0.
         14    1    1    2    0    0 -0.10894501097E-01  0.43454079317E-02 -0.10233497340E-01  0.15565898370E-01  0.00000000000E+00 0.  1.
     999901    1    3    3    0    0 -0.10558339321E-01  0.12443314922E+00  0.26573243099E-01  0.88921382378E+00  0.88000000000E+00 0.  1.
        -11    1    4    4    0    0  0.28820799773E-01 -0.10229924683E+00  0.16525948933E-02  0.10629565651E+00  0.51100000000E-03 0.  1.
         11    1    4    4    0    0 -0.73679593553E-02 -0.26479310320E-01 -0.17992340652E-01  0.32854621337E-01  0.51100000000E-03 0. -1.
</event>
<event>
 8    1  0.2824193E+004  0.1043930E+01  0.7957747E-01            NaN
         13   -1    0    0    0    0  0.00000000000E+00  0.00000000000E+00  0.74505805969E-08  0.10566000000E+00  0.10566000000E+00 0. -1.
     999900   -1    0    0    0    0 -0.00000000000E+00 -0.00000000000E+00 -0.74505805969E-08  0.93827000000E+00  0.93827000000E+00 0.  1.
     999902    2    1    2    0    0  0.56812467271E-02 -0.13660711877E-01  0.26661407121E-02  0.10288967063E+01  0.10287868741E+01 0.  0.
     999903    2    3    3    0    0  0.19355598601E-01 -0.13077989234E+00  0.13855025046E-01  0.14096141503E+00  0.46905643286E-01 0.  0.
         14    1    1    2    0    0 -0.56812467271E-02  0.13660711877E-01 -0.26661407121E-02  0.15033293706E-01  0.00000000000E+00 0.  1.
     999901    1    3    3    0    0 -0.13674351874E-01  0.11711918046E+00 -0.11188884334E-01  0.88793529126E+00  0.88000000000E+00 0.  1.
        -11    1    4    4    0    0 -0.24437374297E-02 -0.94048404386E-02  0.14713734703E-01  0.17640237703E-01  0.51100000000E-03 0.  1.
         11    1    4    4    0    0  0.21799336031E-01 -0.12137505190E+00 -0.85870965680E-03  0.12332117733E+00  0.51100000000E-03 0. -1.
</event>
<event>
 8    1  0.2824193E+004  0.1043930E+01  0.7957747E-01            NaN
         13   -1    0    0    0    0  0.00000000000E+00  0.00000000000E+00  0.74505805969E-08  0.10566000000E+00  0.10566000000E+00 0. -1.
     999900   -1    0    0    0    0 -0.00000000000E+00 -0.00000000000E+00 -0.74505805969E-08  0.93827000000E+00  0.93827000000E+00 0.  1.
     999902    2    1    2    0    0  0.86844031431E-03 -0.14705727604E-01  0.27644851988E-02  0.10289415047E+01  0.10288323309E+01 0.  0.
     999903    2    3    3    0    0 -0.56141549941E-01  0.44534660185E-01  0.11024624383E+00  0.13859781209E+00  0.43816773615E-01 0.  0.
         14    1    1    2    0    0 -0.86844031431E-03  0.14705727604E-01 -0.27644851988E-02  0.14988495299E-01  0.00000000000E+00 0.  1.
     999901    1    3    3    0    0  0.57009990255E-01 -0.59240387788E-01 -0.10748175863E+00  0.89034369261E+00  0.88000000000E+00 0.  1.
        -11    1    4    4    0    0 -0.24012436109E-01  0.45929163601E-01  0.68412909612E-01  0.85829321793E-01  0.51100000000E-03 0.  1.
         11    1    4    4    0    0 -0.32129113832E-01 -0.13945034158E-02  0.41833334217E-01  0.52768490296E-01  0.51100000000E-03 0. -1.
</event>
<event>
 8    1  0.2824193E+004  0.1043930E+01  0.7957747E-01            NaN
         13   -1    0    0    0    0  0.00000000000E+00  0.00000000000E+00  0.74505805969E-08  0.10566000000E+00  0.10566000000E+00 0.  1.
     999900   -1    0    0    0    0 -0.00000000000E+00 -0.00000000000E+00 -0.74505805969E-08  0.93827000000E+00  0.93827000000E+00 0. -1.
     999902    2    1    2    0    0 -0.15538012926E-02 -0.13858915691E-01 -0.24039813344E-02  0.10297785701E+01  0.10296813295E+01 0.  0.
     999903    2    3    3    0    0 -0.12898952477E+00 -0.28562402992E-01 -0.17426770668E-01  0.14035081002E+00  0.44051664823E-01 0.  0.
         14    1    1    2    0    0  0.15538012926E-02  0.13858915691E-01  0.24039813344E-02  0.14151429922E-01  0.00000000000E+00 0.  1.
     999901    1    3    3    0    0  0.12743572348E+00  0.14703487301E-01  0.15022789333E-01  0.88942776005E+00  0.88000000000E+00 0.  1.
        -11    1    4    4    0    0 -0.27412702043E-01 -0.99777840627E-02 -0.22677395085E-01  0.36953183584E-01  0.51100000000E-03 0.  1.
         11    1    4    4    0    0 -0.10157682272E+00 -0.18584618929E-01  0.52506244174E-02  0.10339762644E+00  0.51100000000E-03 0. -1.
</event>
<event>
 8    1  0.2824193E+004  0.1043930E+01  0.7957747E-01            NaN
         13   -1    0    0    0    0  0.00000000000E+00  0.00000000000E+00  0.74505805969E-08  0.10566000000E+00  0.10566000000E+00 0. -1.
     999900   -1    0    0    0    0 -0.00000000000E+00 -0.00000000000E+00 -0.74505805969E-08  0.93827000000E+00  0.93827000000E+00 0.  1.
     999902    2    1    2    0    0 -0.12887962883E-01  0.53301934672E-02  0.35375294098E-02  0.10295416483E+01  0.10294411013E+01 0.  0.
     999903    2    3    3    0    0 -0.51601095410E-01  0.75320485111E-01 -0.96526693619E-01  0.14026655237E+00  0.44960589491E-01 0.  0.
         14    1    1    2    0    0  0.12887962883E-01 -0.53301934672E-02 -0.35375294098E-02  0.14388351677E-01  0.00000000000E+00 0.  1.
     999901    1    3    3    0    0  0.38713132527E-01 -0.69990291644E-01  0.10006422303E+00  0.88927509595E+00  0.88000000000E+00 0.  1.
        -11    1    4    4    0    0 -0.29719296785E-01  0.30549587086E-01 -0.74390986639E-01  0.85736770913E-01  0.51100000000E-03 0. -1.
         11    1    4    4    0    0 -0.21881798625E-01  0.44770898025E-01 -0.22135706980E-01  0.54529781455E-01  0.51100000000E-03 0.  1.
</event>
<event>
 8    1  0.2824193E+004  0.1043930E+01  0.7957747E-01            NaN
         13   -1    0    0    0    0  0.00000000000E+00  0.00000000000E+00  0.74505805969E-08  0.10566000000E+00  0.10566000000E+00 0.  1.
     999900   -1    0    0    0    0 -0.00000000000E+00 -0.00000000000E+00 -0.74505805969E-08  0.93827000000E+00  0.93827000000E+00 0. -1.
     999902    2    1    2    0    0 -0.11428819775E-01  0.32370508651E-02  0.83880297563E-02  0.10293884917E+01  0.10292857773E+01 0.  0.
     999903    2    3    3    0    0 -0.92573483570E-02 -0.17998851865E-01 -0.12922656170E+00  0.13843762067E+00  0.45341078495E-01 0.  0.
         14    1    1    2    0    0  0.11428819775E-01 -0.32370508651E-02 -0.83880297563E-02  0.14541508276E-01  0.00000000000E+00 0. -1.
     999901    1    3    3    0    0 -0.21714714179E-02  0.21235902730E-01  0.13761459146E+00  0.89095087106E+00  0.88000000000E+00 0.  1.
        -11    1    4    4    0    0 -0.22689690450E-01  0.35506690545E-02 -0.45917839201E-01  0.51343338237E-01  0.51100000000E-03 0. -1.
         11    1    4    4    0    0  0.13432342093E-01 -0.21549520919E-01 -0.83308722504E-01  0.87094282431E-01  0.51100000000E-03 0.  1.
</event>
<event>
 8    1  0.2824193E+004  0.1043930E+01  0.7957747E-01            NaN
         13   -1    0    0    0    0  0.00000000000E+00  0.00000000000E+00  0.74505805969E-08  0.10566000000E+00  0.10566000000E+00 0.  1.
     999900   -1    0    0    0    0 -0.00000000000E+00 -0.00000000000E+00 -0.74505805969E-08  0.93827000000E+00  0.93827000000E+00 0.  1.
     999902    2    1    2    0    0 -0.13694910294E-01 -0.34318212547E-02 -0.82700822689E-02  0.10275677805E+01  0.10274375024E+01 0.  0.
     999903    2    3    3    0    0  0.12719118377E-01  0.11877973334E+00 -0.51753032456E-01  0.13766658830E+00  0.44758375080E-01 0.  0.
         14    1    1    2    0    0  0.13694910294E-01  0.34318212547E-02  0.82700822689E-02  0.16362219465E-01  0.00000000000E+00 0.  1.
     999901    1    3    3    0    0 -0.26414028671E-01 -0.12221155460E+00  0.43482950187E-01  0.88990119224E+00  0.88000000000E+00 0. -1.
        -11    1    4    4    0    0  0.39187525841E-02  0.76698862849E-01 -0.95009913056E-02  0.77386059086E-01  0.51100000000E-03 0. -1.
         11    1    4    4    0    0  0.88003657928E-02  0.42080870495E-01 -0.42252041151E-01  0.60280529212E-01  0.51100000000E-03 0.  1.
</event>
<event>
 8    1  0.2824193E+004  0.1043930E+01  0.7957747E-01            NaN
         13   -1    0    0    0    0  0.00000000000E+00  0.00000000000E+00  0.74505805969E-08  0.10566000000E+00  0.10566000000E+00 0.  1.
     999900   -1    0    0    0    0 -0.00000000000E+00 -0.00000000000E+00 -0.74505805969E-08  0.93827000000E+00  0.93827000000E+00 0.  1.
     999902    2    1    2    0    0  0.11616087448E-01 -0.64625874956E-02 -0.33421138320E-02  0.10302234961E+01  0.10301323137E+01 0.  0.
     999903    2    3    3    0    0 -0.90488855691E-01 -0.32453667836E-01 -0.92058987297E-01  0.13950937847E+00  0.41791577861E-01 0.  0.
         14    1    1    2    0    0 -0.11616087448E-01  0.64625874956E-02  0.33421138320E-02  0.13706503916E-01  0.00000000000E+00 0.  1.
     999901    1    3    3    0    0  0.10210494314E+00  0.25991080341E-01  0.88716873465E-01  0.89071411761E+00  0.88000000000E+00 0. -1.
        -11    1    4    4    0    0 -0.33212628500E-01 -0.26233531181E-02 -0.94139856434E-02  0.34624339996E-01  0.51100000000E-03 0.  1.
         11    1    4    4    0    0 -0.57276227190E-01 -0.29830314718E-01 -0.82645001653E-01  0.10488503848E+00  0.51100000000E-03 0. -1.
</event>
<event>
 8    1  0.2824193E+004  0.1043930E+01  0.7957747E-01            NaN
         13   -1    0    0    0    0  0.00000000000E+00  0.00000000000E+00  0.74505805969E-08  0.10566000000E+00  0.10566000000E+00 0. -1.
     999900   -1    0    0    0    0 -0.00000000000E+00 -0.00000000000E+00 -0.74505805969E-08  0.93827000000E+00  0.93827000000E+00 0. -1.
     999902    2    1    2    0    0 -0.11505589653E-01 -0.36775428787E-02 -0.36020937331E-02  0.10313253186E+01  0.10312482896E+01 0.  0.
     999903    2    3    3    0    0 -0.67747548957E-02  0.66575407630E-01  0.11477614922E+00  0.14061141036E+00  0.46041525725E-01 0.  0.
         14    1    1    2    0    0  0.11505589653E-01  0.36775428787E-02  0.36020937331E-02  0.12604681438E-01  0.00000000000E+00 0. -1.
     999901    1    3    3    0    0 -0.47308347577E-02 -0.70252950508E-01 -0.11837824295E+00  0.89071390820E+00  0.88000000000E+00 0. -1.
        -11    1    4    4    0    0  0.43008043438E-02  0.66050585801E-01  0.78538412044E-01  0.10271183033E+00  0.51100000000E-03 0.  1.
         11    1    4    4    0    0 -0.11075559240E-01  0.52482182920E-03  0.36237737171E-01  0.37899580033E-01  0.51100000000E-03 0. -1.
</event>
<event>
 8    1  0.2824193E+004  0.1043930E+01  0.7957747E-01            NaN
         13   -1    0    0    0    0  0.00000000000E+00  0.00000000000E+00  0.74505805969E-08  0.10566000000E+00  0.10566000000E+00 0. -1.
     999900   -1    0    0    0    0 -0.00000000000E+00 -0.00000000000E+00 -0.74505805969E-08  0.93827000000E+00  0.93827000000E+00 0. -1.
     999902    2    1    2    0    0  0.10560709217E-01 -0.51571253735E-02 -0.52416435526E-02  0.10310614590E+01  0.10309811506E+01 0.  0.
     999903    2    3    3    0    0 -0.10834566763E+00  0.21892765788E-01  0.72202474787E-01  0.13928345154E+00  0.44368971356E-01 0.  0.
         14    1    1    2    0    0 -0.10560709217E-01  0.51571253735E-02  0.52416435526E-02  0.12868541037E-01  0.00000000000E+00 0. -1.
     999901    1    3    3    0    0  0.11890637684E+00 -0.27049891162E-01 -0.77444118339E-01  0.89177800743E+00  0.88000000000E+00 0. -1.
        -11    1    4    4    0    0 -0.61882092905E-01 -0.13255701628E-02  0.59390199511E-01  0.85782326137E-01  0.51100000000E-03 0.  1.
         11    1    4    4    0    0 -0.46463574721E-01  0.23218335951E-01  0.12812275276E-01  0.53501125399E-01  0.51100000000E-03 0. -1.
</event>
<event>
 8    1  0.2824193E+004  0.1043930E+01  0.7957747E-01            NaN
         13   -1    0    0    0    0  0.00000000000E+00  0.00000000000E+00  0.74505805969E-08  0.10566000000E+00  0.10566000000E+00 0. -1.
     999900   -1    0    0    0    0 -0.00000000000E+00 -0.00000000000E+00 -0.74505805969E-08  0.93827000000E+00  0.93827000000E+00 0.  1.
     999902    2    1    2    0    0  0.52020730115E-02  0.11305761136E-01 -0.52646556789E-02  0.10304171025E+01  0.10303284946E+01 0.  0.
     999903    2    3    3    0    0  0.13178945546E+00 -0.65391130158E-02 -0.22899383233E-01  0.14100505599E+00  0.44122822810E-01 0.  0.
         14    1    1    2    0    0 -0.52020730115E-02 -0.11305761136E-01  0.52646556789E-02  0.13512897465E-01  0.00000000000E+00 0.  1.
     999901    1    3    3    0    0 -0.12658738245E+00  0.17844874152E-01  0.17634727554E-01  0.88941204655E+00  0.88000000000E+00 0. -1.
        -11    1    4    4    0    0  0.73803775886E-01  0.93973595281E-02  0.52877137653E-02  0.74589065814E-01  0.51100000000E-03 0. -1.
         11    1    4    4    0    0  0.57985679572E-01 -0.15936472544E-01 -0.28187096999E-01  0.66415990173E-01  0.51100000000E-03 0.  1.
</event>
<event>
 8    1  0.2824193E+004  0.1043930E+01  0.7957747E-01            NaN
         13   -1    0    0    0    0  0.00000000000E+00  0.00000000000E+00  0.74505805969E-08  0.10566000000E+00  0.10566000000E+00 0.  1.
     999900   -1    0    0    0    0 -0.00000000000E+00 -0.00000000000E+00 -0.74505805969E-08  0.93827000000E+00  0.93827000000E+00 0.  1.
     999902    2    1    2    0    0 -0.53290274063E-02  0.76226177011E-02  0.95493541783E-02  0.10305998463E+01  0.10305136341E+01 0.  0.
     999903    2    3    3    0    0 -0.33368861500E-01 -0.12517388917E+00 -0.25831624156E-01  0.13949213213E+00  0.44819623752E-01 0.  0.
         14    1    1    2    0    0  0.53290274063E-02 -0.76226177011E-02 -0.95493541783E-02  0.13330153748E-01  0.00000000000E+00 0. -1.
     999901    1    3    3    0    0  0.28039834093E-01  0.13279650687E+00  0.35380978334E-01  0.89110771412E+00  0.88000000000E+00 0. -1.
        -11    1    4    4    0    0  0.77295811824E-02 -0.50250561866E-01 -0.24903348969E-02  0.50905090924E-01  0.51100000000E-03 0.  1.
         11    1    4    4    0    0 -0.41098442682E-01 -0.74923327304E-01 -0.23341289259E-01  0.88587041210E-01  0.51100000000E-03 0. -1.
</event>
<event>
 8    1  0.2824193E+004  0.1043930E+01  0.7957747E-01            NaN
         13   -1    0    0    0    0  0.00000000000E+00  0.00000000000E+00  0.74505805969E-08  0.10566000000E+00  0.10566000000E+00 0.  1.
     999900   -1    0    0    0    0 -0.00000000000E+00 -0.00000000000E+00 -0.74505805969E-08  0.93827000000E+00  0.93827000000E+00 0.  1.
     999902    2    1    2    0    0 -0.90707021021E-02  0.52567894325E-02 -0.11831443193E-01  0.10281219476E+01  0.10280004108E+01 0.  0.
     999903    2    3    3    0    0 -0.42600266356E-01 -0.12193693730E+00 -0.20198093696E-01  0.13830596854E+00  0.45135114628E-01 0.  0.
         14    1    1    2    0    0  0.90707021021E-02 -0.52567894325E-02  0.11831443193E-01  0.15808052372E-01  0.00000000000E+00 0.  1.
     999901    1    3    3    0    0  0.33529564254E-01  0.12719372674E+00  0.83666505024E-02  0.88981597909E+00  0.88000000000E+00 0. -1.
        -11    1    4    4    0    0 -0.32769878884E-01 -0.72435143503E-01 -0.33245681836E-01  0.86175701089E-01  0.51100000000E-03 0.  1.
         11    1    4    4    0    0 -0.98303874718E-02 -0.49501793800E-01  0.13047588141E-01  0.52130267451E-01  0.51100000000E-03 0. -1.
</event>
<event>
 8    1  0.2824193E+004  0.1043930E+01  0.7957747E-01            NaN
         13   -1    0    0    0    0  0.00000000000E+00  0.00000000000E+00  0.74505805969E-08  0.10566000000E+00  0.10566000000E+00 0.  1.
     999900   -1    0    0    0    0 -0.00000000000E+00 -0.00000000000E+00 -0.74505805969E-08  0.93827000000E+00  0.93827000000E+00 0.  1.
     999902    2    1    2    0    0 -0.10086411558E-02 -0.13190904598E-01  0.57854662850E-02  0.10294908539E+01  0.10293895906E+01 0.  0.
     999903    2    3    3    0    0  0.93754482633E-02  0.12834029038E+00  0.17296659239E-01  0.13804740864E+00  0.46891187299E-01 0.  0.
         14    1    1    2    0    0  0.10086411558E-02  0.13190904598E-01 -0.57854662850E-02  0.14439146139E-01  0.00000000000E+00 0. -1.
     999901    1    3    3    0    0 -0.10384089419E-01 -0.14153119498E+00 -0.11511192954E-01  0.89144344522E+00  0.88000000000E+00 0.  1.
        -11    1    4    4    0    0  0.59802513683E-02  0.32204101782E-01  0.25481675069E-01  0.41502342866E-01  0.51100000000E-03 0.  1.
         11    1    4    4    0    0  0.33951968950E-02  0.96136188598E-01 -0.81850158302E-02  0.96545065774E-01  0.51100000000E-03 0. -1.
</event>
<event>
 8    1  0.2824193E+004  0.1043930E+01  0.7957747E-01            NaN
         13   -1    0    0    0    0  0.00000000000E+00  0.00000000000E+00  0.74505805969E-08  0.10566000000E+00  0.10566000000E+00 0.  1.
     999900   -1    0    0    0    0 -0.00000000000E+00 -0.00000000000E+00 -0.74505805969E-08  0.93827000000E+00  0.93827000000E+00 0. -1.
     999902    2    1    2    0    0 -0.91094649656E-02 -0.24846613851E-02 -0.91675286362E-02  0.10307694728E+01  0.10306854548E+01 0.  0.
     999903    2    3    3    0    0  0.77468534556E-01 -0.10403773644E+00 -0.35375247997E-01  0.14032260658E+00  0.40172145784E-01 0.  0.
         14    1    1    2    0    0  0.91094649656E-02  0.24846613851E-02  0.91675286362E-02  0.13160527172E-01  0.00000000000E+00 0.  1.
     999901    1    3    3    0    0 -0.86577999521E-01  0.10155307506E+00  0.26207719361E-01  0.89044686625E+00  0.88000000000E+00 0.  1.
        -11    1    4    4    0    0  0.67211397515E-01 -0.82956226112E-01 -0.12386591574E-01  0.10748393451E+00  0.51100000000E-03 0. -1.
         11    1    4    4    0    0  0.10257137040E-01 -0.21081510329E-01 -0.22988656423E-01  0.32838672068E-01  0.51100000000E-03 0.  1.
</event>
<event>
 8    1  0.2824193E+004  0.1043930E+01  0.7957747E-01            NaN
         13   -1    0    0    0    0  0.00000000000E+00  0.00000000000E+00  0.74505805969E-08  0.10566000000E+00  0.10566000000E+00 0.  1.
     999900   -1    0    0    0    0 -0.00000000000E+00 -0.00000000000E+00 -0.74505805969E-08  0.93827000000E+00  0.93827000000E+00 0. -1.
     999902    2    1    2    0    0 -0.47659904496E-02  0.10421086800E-01  0.32747197113E-02  0.10320120512E+01  0.10319432331E+01 0.  0.
     999903    2    3    3    0    0  0.85003164518E-01  0.10284288005E+00 -0.20059428820E-01  0.14232403196E+00  0.45294077233E-01 0.  0.
         14    1    1    2    0    0  0.47659904496E-02 -0.10421086800E-01 -0.32747197113E-02  0.11917948827E-01  0.00000000000E+00 0. -1.
     999901    1    3    3    0    0 -0.89769154968E-01 -0.92421793251E-01  0.23334148531E-01  0.88968801922E+00  0.88000000000E+00 0.  1.
        -11    1    4    4    0    0  0.68833557486E-01  0.96441809850E-01 -0.30080465965E-01  0.12224637777E+00  0.51100000000E-03 0.  1.
         11    1    4    4    0    0  0.16169607032E-01  0.64010702001E-02  0.10021037145E-01  0.20077654189E-01  0.51100000000E-03 0. -1.
</event>
<event>
 8    1  0.2824193E+004  0.1043930E+01  0.7957747E-01            NaN
         13   -1    0    0    0    0  0.00000000000E+00  0.00000000000E+00  0.74505805969E-08  0.10566000000E+00  0.10566000000E+00 0.  1.
     999900   -1    0    0    0    0 -0.00000000000E+00 -0.00000000000E+00 -0.74505805969E-08  0.93827000000E+00  0.93827000000E+00 0. -1.
     999902    2    1    2    0    0 -0.16274079880E-02 -0.13030006468E-01 -0.35960870307E-02  0.10303152518E+01  0.10302252942E+01 0.  0.
     999903    2    3    3    0    0 -0.80864382213E-01  0.16322016049E-02  0.10505836978E+00  0.13997864729E+00  0.44889288750E-01 0.  0.
         14    1    1    2    0    0  0.16274079880E-02  0.13030006468E-01  0.35960870307E-02  0.13614748152E-01  0.00000000000E+00 0. -1.
     999901    1    3    3    0    0  0.79236974225E-01 -0.14662208073E-01 -0.10865445681E+00  0.89033660456E+00  0.88000000000E+00 0. -1.
        -11    1    4    4    0    0 -0.57686814633E-01 -0.18107136105E-01  0.57057763209E-01  0.83135350026E-01  0.51100000000E-03 0.  1.
         11    1    4    4    0    0 -0.23177567580E-01  0.19739337710E-01  0.48000606567E-01  0.56843297265E-01  0.51100000000E-03 0. -1.
</event>
<event>
 8    1  0.2824193E+004  0.1043930E+01  0.7957747E-01            NaN
         13   -1    0    0    0    0  0.00000000000E+00  0.00000000000E+00  0.74505805969E-08  0.10566000000E+00  0.10566000000E+00 0.  1.
     999900   -1    0    0    0    0 -0.00000000000E+00 -0.00000000000E+00 -0.74505805969E-08  0.93827000000E+00  0.93827000000E+00 0.  1.
     999902    2    1    2    0    0 -0.97936240740E-02  0.75642148918E-02  0.43929691310E-02  0.10307987168E+01  0.10307150741E+01 0.  0.
     999903    2    3    3    0    0 -0.24623436027E-01  0.70467892914E-01 -0.11081291493E+00  0.14093963151E+00  0.44860228282E-01 0.  0.
         14    1    1    2    0    0  0.97936240740E-02 -0.75642148918E-02 -0.43929691310E-02  0.13131283152E-01  0.00000000000E+00 0. -1.
     999901    1    3    3    0    0  0.14829811953E-01 -0.62903678023E-01  0.11520588406E+00  0.88985908534E+00  0.88000000000E+00 0. -1.
        -11    1    4    4    0    0  0.11690248043E-01  0.24792314217E-01 -0.47445728184E-01  0.54796705991E-01  0.51100000000E-03 0.  1.
         11    1    4    4    0    0 -0.36313684070E-01  0.45675578697E-01 -0.63367186749E-01  0.86142925522E-01  0.51100000000E-03 0. -1.
</event>
<event>
 8    1  0.2824193E+004  0.1043930E+01  0.7957747E-01            NaN
         13   -1    0    0    0    0  0.00000000000E+00  0.00000000000E+00  0.74505805969E-08  0.10566000000E+00  0.10566000000E+00 0. -1.
     999900   -1    0    0    0    0 -0.00000000000E+00 -0.00000000000E+00 -0.74505805969E-08  0.93827000000E+00  0.93827000000E+00 0.  1.
     999902    2    1    2    0    0 -0.96151001355E-02  0.65286185839E-02  0.51169697769E-02  0.10312313233E+01  0.10311531340E+01 0.  0.
     999903    2    3    3    0    0 -0.79094650375E-01 -0.55890554534E-01  0.93991971810E-01  0.14183696356E+00  0.43629298233E-01 0.  0.
         14    1    1    2    0    0  0.96151001355E-02 -0.65286185839E-02 -0.51169697769E-02  0.12698676739E-01  0.00000000000E+00 0.  1.
     999901    1    3    3    0    0  0.69479550240E-01  0.62419173118E-01 -0.88875002033E-01  0.88939435970E+00  0.88000000000E+00 0. -1.
        -11    1    4    4    0    0 -0.43345556174E-01 -0.37780976234E-01  0.81718662537E-01  0.99922171379E-01  0.51100000000E-03 0. -1.
         11    1    4    4    0    0 -0.35749094201E-01 -0.18109578300E-01  0.12273309272E-01  0.41914792185E-01  0.51100000000E-03 0.  1.
</event>
<event>
 8    1  0.2824193E+004  0.1043930E+01  0.7957747E-01            NaN
         13   -1    0    0    0    0  0.00000000000E+00  0.00000000000E+00  0.74505805969E-08  0.10566000000E+00  0.10566000000E+00 0.  1.
     999900   -1    0    0    0    0 -0.00000000000E+00 -0.00000000000E+00 -0.74505805969E-08  0.93827000000E+00  0.93827000000E+00 0. -1.
     999902    2    1    2    0    0 -0.53812709394E-02  0.41744649373E-02 -0.13525691200E-01  0.10287864021E+01  0.10286749402E+01 0.  0.
     999903    2    3    3    0    0  0.11730776274E+00 -0.21395434727E-01 -0.55771071094E-01  0.13890377453E+00  0.44327986427E-01 0.  0.
         14    1    1    2    0    0  0.53812709394E-02 -0.41744649373E-02  0.13525691200E-01  0.15143597884E-01  0.00000000000E+00 0.  1.
     999901    1    3    3    0    0 -0.12268903368E+00  0.25569899665E-01  0.42245379894E-01  0.88988262759E+00  0.88000000000E+00 0.  1.
        -11    1    4    4    0    0  0.30963379527E-01  0.10425558138E-01 -0.29732717396E-02  0.32810434317E-01  0.51100000000E-03 0.  1.
         11    1    4    4    0    0  0.86344383218E-01 -0.31820992865E-01 -0.52797799354E-01  0.10609334021E+00  0.51100000000E-03 0. -1.
</event>
<event>
 8    1  0.2824193E+004  0.1043930E+01  0.7957747E-01            NaN
         13   -1    0    0    0    0  0.00000000000E+00  0.00000000000E+00  0.74505805969E-08  0.10566000000E+00  0.10566000000E+00 0. -1.
     999900   -1    0    0    0    0 -0.00000000000E+00 -0.00000000000E+00 -0.74505805969E-08  0.93827000000E+00  0.93827000000E+00 0. -1.
     999902    2    1    2    0    0 -0.90571102178E-02  0.28643807088E-02  0.31773351276E-02  0.10339134447E+01  0.10338649233E+01 0.  0.
     999903    2    3    3    0    0  0.13241868058E+00 -0.18225998581E-01 -0.17341616589E-01  0.14212802716E+00  0.45086033852E-01 0.  0.
         14    1    1    2    0    0  0.90571102178E-02 -0.28643807088E-02 -0.31773351276E-02  0.10016555339E-01  0.00000000000E+00 0.  1.
     999901    1    3    3    0    0 -0.14147579080E+00  0.21090379290E-01  0.20518951716E-01  0.89178541750E+00  0.88000000000E+00 0.  1.
        -11    1    4    4    0    0  0.46711725247E-01 -0.28534401348E-01 -0.66927252612E-02  0.55147538733E-01  0.51100000000E-03 0.  1.
         11    1    4    4    0    0  0.85706955334E-01  0.10308402767E-01 -0.10648891328E-01  0.86980488431E-01  0.51100000000E-03 0. -1.
</event>
<event>
 8    1  0.2824193E+004  0.1043930E+01  0.7957747E-01            NaN
         13   -1    0    0    0    0  0.00000000000E+00  0.00000000000E+00  0.74505805969E-08  0.10566000000E+00  0.10566000000E+00 0.  1.
     999900   -1    0    0    0    0 -0.00000000000E+00 -0.00000000000E+00 -0.74505805969E-08  0.93827000000E+00  0.93827000000E+00 0. -1.
     999902    2    1    2    0    0 -0.68245217820E-02 -0.73187533510E-02  0.10752150037E-01  0.10292416720E+01  0.10291368580E+01 0.  0.
     999903    2    3    3    0    0 -0.10924461523E+00  0.20194937266E-01 -0.70631675858E-01  0.13914605591E+00  0.45061844106E-01 0.  0.
         14    1    1    2    0    0  0.68245217820E-02  0.73187533510E-02 -0.10752150037E-01  0.14688327971E-01  0.00000000000E+00 0. -1.
     999901    1    3    3    0    0  0.10242009344E+00 -0.27513690617E-01  0.81383825896E-01  0.89009561612E+00  0.88000000000E+00 0.  1.
        -11    1    4    4    0    0 -0.11123912380E-01  0.97734788406E-02 -0.27954990873E-01  0.31638662282E-01  0.51100000000E-03 0. -1.
         11    1    4    4    0    0 -0.98120702847E-01  0.10421458425E-01 -0.42676684985E-01  0.10750739363E+00  0.51100000000E-03 0.  1.
</event>
<event>
 8    1  0.2824193E+004  0.1043930E+01  0.7957747E-01            NaN
         13   -1    0    0    0    0  0.00000000000E+00  0.00000000000E+00  0.74505805969E-08  0.10566000000E+00  0.10566000000E+00 0.  1.
     999900   -1    0    0    0    0 -0.00000000000E+00 -0.00000000000E+00 -0.74505805969E-08  0.93827000000E+00  0.93827000000E+00 0. -1.
     999902    2    1    2    0    0 -0.61089498868E-02 -0.12049112887E-01  0.12381143545E-02  0.10303641120E+01  0.10302748031E+01 0.  0.
     999903    2    3    3    0    0  0.51787188659E-01 -0.12307867619E+00  0.13942469835E-01  0.14140914833E+00  0.44405870380E-01 0.  0.
         14    1    1    2    0    0  0.61089498868E-02  0.12049112887E-01 -0.12381143545E-02  0.13565888001E-01  0.00000000000E+00 0.  1.
     999901    1    3    3    0    0 -0.57896138546E-01  0.11102956330E+00 -0.12704355480E-01  0.88895496367E+00  0.88000000000E+00 0.  1.
        -11    1    4    4    0    0  0.40418804628E-01 -0.85720959738E-01  0.29669003859E-01  0.99308980545E-01  0.51100000000E-03 0. -1.
         11    1    4    4    0    0  0.11368384031E-01 -0.37357716452E-01 -0.15726534025E-01  0.42100167784E-01  0.51100000000E-03 0.  1.
</event>
<event>
 8    1  0.2824193E+004  0.1043930E+01  0.7957747E-01            NaN
         13   -1    0    0    0    0  0.00000000000E+00  0.00000000000E+00  0.74505805969E-08  0.10566000000E+00  0.10566000000E+00 0. -1.
     999900   -1    0    0    0    0 -0.00000000000E+00 -0.00000000000E+00 -0.74505805969E-08  0.93827000000E+00  0.93827000000E+00 0.  1.
     999902    2    1    2    0    0 -0.76702917101E-02 -0.11820714778E-01  0.39511610305E-03  0.10298332348E+01  0.10297367492E+01 0.  0.
     999903    2    3    3    0    0  0.81093357197E-01 -0.80251606486E-01 -0.67689859612E-01  0.14011567498E+00  0.45100247846E-01 0.  0.
         14    1    1    2    0    0  0.76702917101E-02  0.11820714778E-01 -0.39511610305E-03  0.14096765214E-01  0.00000000000E+00 0. -1.
     999901    1    3    3    0    0 -0.88763648907E-01  0.68430891708E-01  0.68084975715E-01  0.88971755981E+00  0.88000000000E+00 0.  1.
        -11    1    4    4    0    0  0.61044744087E-01 -0.79692051928E-01 -0.45550015450E-01  0.11023769296E+00  0.51100000000E-03 0.  1.
         11    1    4    4    0    0  0.20048613111E-01 -0.55955455774E-03 -0.22139844162E-01  0.29877982018E-01  0.51100000000E-03 0. -1.
</event>
<event>
 8    1  0.2824193E+004  0.1043930E+01  0.7957747E-01            NaN
         13   -1    0    0    0    0  0.00000000000E+00  0.00000000000E+00  0.74505805969E-08  0.10566000000E+00  0.10566000000E+00 0. -1.
     999900   -1    0    0    0    0 -0.00000000000E+00 -0.00000000000E+00 -0.74505805969E-08  0.93827000000E+00  0.93827000000E+00 0. -1.
     999902    2    1    2    0    0 -0.10372071388E-01 -0.88972368286E-02  0.25819434740E-02  0.10300229112E+01  0.10299290220E+01 0.  0.
     999903    2    3    3    0    0  0.72295103530E-01 -0.65209042495E-02 -0.11024414698E+00  0.13897339769E+00  0.43482515268E-01 0.  0.
         14    1    1    2    0    0  0.10372071388E-01  0.88972368286E-02 -0.25819434740E-02  0.13907088846E-01  0.00000000000E+00 0. -1.
     999901    1    3    3    0    0 -0.82667174919E-01 -0.23763325791E-02  0.11282609045E+00  0.89104951347E+00  0.88000000000E+00 0.  1.
        -11    1    4    4    0    0  0.15016778128E-01  0.52303022610E-02 -0.59375216135E-01  0.61469806403E-01  0.51100000000E-03 0. -1.
         11    1    4    4    0    0  0.57278325402E-01 -0.11751206511E-01 -0.50868930845E-01  0.77503591282E-01  0.51100000000E-03 0.  1.
</event>
<event>
 8    1  0.2824193E+004  0.1043930E+01  0.7957747E-01            NaN
         13   -1    0    0    0    0  0.00000000000E+00  0.00000000000E+00  0.74505805969E-08  0.10566000000E+00  0.10566000000E+00 0.  1.
     999900   -1    0    0    0    0 -0.00000000000E+00 -0.00000000000E+00 -0.74505805969E-08  0.93827000000E+00  0.93827000000E+00 0.  1.
     999902    2    1    2    0    0  0.64205797322E-02  0.60097779634E-02  0.99070362557E-02  0.10306827119E+01  0.10305975752E+01 0.  0.
     999903    2    3    3    0    0  0.65527496462E-01  0.94038164948E-01 -0.68669750737E-01  0.14084175082E+00  0.44540260981E-01 0.  0.
         14    1    1    2    0    0 -0.64205797322E-02 -0.60097779634E-02 -0.99070362557E-02  0.13247288124E-01  0.00000000000E+00 0. -1.
     999901    1    3    3    0    0 -0.59106916730E-01 -0.88028386984E-01  0.78576786993E-01  0.88984096106E+00  0.88000000000E+00 0. -1.
        -11    1    4    4    0    0  0.41289548604E-02  0.32834994440E-01 -0.54460249423E-02  0.33542591385E-01  0.51100000000E-03 0. -1.
         11    1    4    4    0    0  0.61398541602E-01  0.61203170507E-01 -0.63223725795E-01  0.10729915943E+00  0.51100000000E-03 0.  1.
</event>
<event>
 8    1  0.2824193E+004  0.1043930E+01  0.7957747E-01            NaN
         13   -1    0    0    0    0  0.00000000000E+00  0.00000000000E+00  0.74505805969E-08  0.10566000000E+00  0.10566000000E+00 0. -1.
     999900   -1    0    0    0    0 -0.00000000000E+00 -0.00000000000E+00 -0.74505805969E-08  0.93827000000E+00  0.93827000000E+00 0. -1.
     999902    2    1    2    0    0  0.88639307908E-02  0.97445604307E-02  0.12456104513E-02  0.10306983231E+01  0.10306133883E+01 0.  0.
     999903    2    3    3    0    0 -0.39237901712E-01  0.10490171887E+00  0.73494934962E-01  0.14132290411E+00  0.45018598454E-01 0.  0.
         14    1    1    2    0    0 -0.88639307908E-02 -0.97445604307E-02 -0.12456104513E-02  0.13231676857E-01  0.00000000000E+00 0. -1.
     999901    1    3    3    0    0  0.48101832503E-01 -0.95157158443E-01 -0.72249324511E-01  0.88937541904E+00  0.88000000000E+00 0.  1.
        -11    1    4    4    0    0 -0.32681676994E-01  0.56426202032E-01  0.18635505801E-01  0.67819993250E-01  0.51100000000E-03 0.  1.
         11    1    4    4    0    0 -0.65562247183E-02  0.48475516841E-01  0.54859429161E-01  0.73502910857E-01  0.51100000000E-03 0. -1.
</event>
<event>
 8    1  0.2824193E+004  0.1043930E+01  0.7957747E-01            NaN
         13   -1    0    0    0    0  0.00000000000E+00  0.00000000000E+00  0.74505805969E-08  0.10566000000E+00  0.10566000000E+00 0.  1.
     999900   -1    0    0    0    0 -0.00000000000E+00 -0.00000000000E+00 -0.74505805969E-08  0.93827000000E+00  0.93827000000E+00 0.  1.
     999902    2    1    2    0    0  0.33389070843E-02 -0.14085637015E-02 -0.12043140654E-01  0.10313534508E+01  0.10312767674E+01 0.  0.
     999903    2    3    3    0    0 -0.40366625429E-01  0.10524329564E+00  0.68971557485E-01  0.14014742864E+00  0.46675585540E-01 0.  0.
         14    1    1    2    0    0 -0.33389070843E-02  0.14085637015E-02  0.12043140654E-01  0.12576549170E-01  0.00000000000E+00 0.  1.
     999901    1    3    3    0    0  0.43705532514E-01 -0.10665185935E+00 -0.81014698139E-01  0.89120602219E+00  0.88000000000E+00 0.  1.
        -11    1    4    4    0    0 -0.24281971417E-01  0.17887257015E-01  0.47457435456E-02  0.30534428146E-01  0.51100000000E-03 0. -1.
         11    1    4    4    0    0 -0.16084654012E-01  0.87356038630E-01  0.64225813939E-01  0.10961300049E+00  0.51100000000E-03 0.  1.
</event>
<event>
 8    1  0.2824193E+004  0.1043930E+01  0.7957747E-01            NaN
         13   -1    0    0    0    0  0.00000000000E+00  0.00000000000E+00  0.74505805969E-08  0.10566000000E+00  0.10566000000E+00 0. -1.
     999900   -1    0    0    0    0 -0.00000000000E+00 -0.00000000000E+00 -0.74505805969E-08  0.93827000000E+00  0.93827000000E+00 0. -1.
     999902    2    1    2    0    0 -0.14045781712E-01  0.25106403864E-03  0.31449798528E-02  0.10295342397E+01  0.10294335883E+01 0.  0.
     999903    2    3    3    0    0  0.30209949015E-01 -0.12224946584E+00 -0.37522904491E-01  0.13901819471E+00  0.45392919943E-01 0.  0.
         14    1    1    2    0    0  0.14045781712E-01 -0.25106403864E-03 -0.31449798528E-02  0.14395760325E-01  0.00000000000E+00 0.  1.
     999901    1    3    3    0    0 -0.44255730727E-01  0.12250052988E+00  0.40667884343E-01  0.89051604497E+00  0.88000000000E+00 0.  1.
        -11    1    4    4    0    0  0.41071782066E-01 -0.78704380829E-01 -0.28477182609E-01  0.93233480543E-01  0.51100000000E-03 0. -1.
         11    1    4    4    0    0 -0.10861833052E-01 -0.43545085013E-01 -0.90457218821E-02  0.45784714167E-01  0.51100000000E-03 0.  1.
</event>
<event>
 8    1  0.2824193E+004  0.1043930E+01  0.7957747E-01            NaN
         13   -1    0    0    0    0  0.00000000000E+00  0.00000000000E+00  0.74505805969E-08  0.10566000000E+00  0.10566000000E+00 0. -1.
     999900   -1    0    0    0    0 -0.00000000000E+00 -0.00000000000E+00 -0.74505805969E-08  0.93827000000E+00  0.93827000000E+00 0. -1.
     999902    2    1    2    0    0  0.12980551350E-01  0.42102254902E-02 -0.16806785540E-02  0.10301806221E+01  0.10300888645E+01 0.  0.
     999903    2    3    3    0    0 -0.85560370987E-02 -0.85049951601E-01 -0.10124776168E+00  0.13981844417E+00  0.44624971120E-01 0.  0.
         14    1    1    2    0    0 -0.12980551350E-01 -0.42102254902E-02  0.16806785540E-02  0.13749377893E-01  0.00000000000E+00 0. -1.
     999901    1    3    3    0    0  0.21536588449E-01  0.89260177091E-01  0.99567083125E-01  0.89036217794E+00  0.88000000000E+00 0.  1.
        -11    1    4    4    0    0  0.10716801442E-01 -0.17641763055E-01 -0.46452496749E-01  0.50834803158E-01  0.51100000000E-03 0.  1.
         11    1    4    4    0    0 -0.19272838540E-01 -0.67408188546E-01 -0.54795264929E-01  0.88983641014E-01  0.51100000000E-03 0. -1.
</event>
<event>
 8    1  0.2824193E+004  0.1043930E+01  0.7957747E-01            NaN
         13   -1    0    0    0    0  0.00000000000E+00  0.00000000000E+00  0.74505805969E-08  0.10566000000E+00  0.10566000000E+00 0. -1.
     999900   -1    0    0    0    0 -0.00000000000E+00 -0.00000000000E+00 -0.74505805969E-08  0.93827000000E+00  0.93827000000E+00 0. -1.
     999902    2    1    2    0    0 -0.13552468701E-01  0.63307203996E-03  0.13623303011E-02  0.10302945267E+01  0.10302042932E+01 0.  0.
     999903    2    3    3    0    0 -0.89905326371E-01  0.99457314420E-01  0.59575991106E-02  0.14146546201E+00  0.44746607164E-01 0.  0.
         14    1    1    2    0    0  0.13552468701E-01 -0.63307203996E-03 -0.13623303011E-02  0.13635473294E-01  0.00000000000E+00 0.  1.
     999901    1    3    3    0    0  0.76352857670E-01 -0.98824242380E-01 -0.45952688095E-02  0.88882906470E+00  0.88000000000E+00 0.  1.
        -11    1    4    4    0    0 -0.27221622127E-01  0.38790275906E-01 -0.18487394758E-01  0.50869903696E-01  0.51100000000E-03 0.  1.
         11    1    4    4    0    0 -0.62683704244E-01  0.60667038514E-01  0.24444993869E-01  0.90595558312E-01  0.51100000000E-03 0. -1.
</event>
<event>
 8    1  0.2824193E+004  0.1043930E+01  0.7957747E-01            NaN
         13   -1    0    0    0    0  0.00000000000E+00  0.00000000000E+00  0.74505805969E-08  0.10566000000E+00  0.10566000000E+00 0.  1.
     999900   -1    0    0    0    0 -0.00000000000E+00 -0.00000000000E+00 -0.74505805969E-08  0.93827000000E+00  0.93827000000E+00 0.  1.
     999902    2    1    2    0    0 -0.12020882995E-01 -0.10851180837E-03 -0.66885748437E-02  0.10301731677E+01  0.10300813099E+01 0.  0.
     999903    2    3    3    0    0  0.41186352534E-01 -0.92603772907E-01 -0.85961261644E-01  0.14018971718E+00  0.44632319102E-01 0.  0.
         14    1    1    2    0    0  0.12020882995E-01  0.10851180837E-03  0.66885748437E-02  0.13756832347E-01  0.00000000000E+00 0.  1.
     999901    1    3    3    0    0 -0.53207235530E-01  0.92495261099E-01  0.79272686800E-01  0.88998345047E+00  0.88000000000E+00 0. -1.
        -11    1    4    4    0    0  0.35573395426E-01 -0.35885181072E-01 -0.57275456210E-01  0.76380309555E-01  0.51100000000E-03 0.  1.
         11    1    4    4    0    0  0.56129571085E-02 -0.56718591836E-01 -0.28685805434E-01  0.63809407627E-01  0.51100000000E-03 0. -1.
</event>
<event>
 8    1  0.2824193E+004  0.1043930E+01  0.7957747E-01            NaN
         13   -1    0    0    0    0  0.00000000000E+00  0.00000000000E+00  0.74505805969E-08  0.10566000000E+00  0.10566000000E+00 0. -1.
     999900   -1    0    0    0    0 -0.00000000000E+00 -0.00000000000E+00 -0.74505805969E-08  0.93827000000E+00  0.93827000000E+00 0.  1.
     999902    2    1    2    0    0 -0.84731953840E-02 -0.71995681788E-02  0.80318831090E-02  0.10302135876E+01  0.10301222724E+01 0.  0.
     999903    2    3    3    0    0  0.77262854107E-01  0.46327973335E-01  0.97162980011E-01  0.13995507444E+00  0.45066045285E-01 0.  0.
         14    1    1    2    0    0  0.84731953840E-02  0.71995681788E-02 -0.80318831090E-02  0.13716412368E-01  0.00000000000E+00 0.  1.
     999901    1    3    3    0    0 -0.85736049491E-01 -0.53527541514E-01 -0.89131096902E-01  0.89025851320E+00  0.88000000000E+00 0.  1.
        -11    1    4    4    0    0  0.56127635269E-01  0.48755434992E-01  0.91569665805E-01  0.11795197624E+00  0.51100000000E-03 0. -1.
         11    1    4    4    0    0  0.21135218838E-01 -0.24274616573E-02  0.55933142060E-02  0.22003098196E-01  0.51100000000E-03 0.  1.
</event>
<event>
 8    1  0.2824193E+004  0.1043930E+01  0.7957747E-01            NaN
         13   -1    0    0    0    0  0.00000000000E+00  0.00000000000E+00  0.74505805969E-08  0.10566000000E+00  0.10566000000E+00 0.  1.
     999900   -1    0    0    0    0 -0.00000000000E+00 -0.00000000000E+00 -0.74505805969E-08  0.93827000000E+00  0.93827000000E+00 0. -1.
     999902    2    1    2    0    0 -0.14358826713E-02 -0.89461387912E-03  0.13399314359E-01  0.10304243079E+01  0.10303357951E+01 0.  0.
     999903    2    3    3    0    0 -0.27593813487E-01 -0.17313579925E-01  0.13075349789E+00  0.14209676463E+00  0.45098056678E-01 0.  0.
         14    1    1    2    0    0  0.14358826713E-02  0.89461387912E-03 -0.13399314359E-01  0.13505692071E-01  0.00000000000E+00 0. -1.
     999901    1    3    3    0    0  0.26157930816E-01  0.16418966046E-01 -0.11735418353E+00  0.88832754330E+00  0.88000000000E+00 0. -1.
        -11    1    4    4    0    0  0.14311832661E-02 -0.13684775536E-01  0.94564217283E-01  0.95561360802E-01  0.51100000000E-03 0. -1.
         11    1    4    4    0    0 -0.29024996754E-01 -0.36288043895E-02  0.36189280604E-01  0.46535403829E-01  0.51100000000E-03 0.  1.
</event>
<event>
 8    1  0.2824193E+004  0.1043930E+01  0.7957747E-01            NaN
         13   -1    0    0    0    0  0.00000000000E+00  0.00000000000E+00  0.74505805969E-08  0.10566000000E+00  0.10566000000E+00 0. -1.
     999900   -1    0    0    0    0 -0.00000000000E+00 -0.00000000000E+00 -0.74505805969E-08  0.93827000000E+00  0.93827000000E+00 0.  1.
     999902    2    1    2    0    0 -0.59590004805E-02  0.33340477008E-02 -0.12193070846E-01  0.10299551462E+01  0.10298603336E+01 0.  0.
     999903    2    3    3    0    0  0.70785011579E-01 -0.96227690057E-01 -0.58144040244E-01  0.13983511243E+00  0.43621589313E-01 0.  0.
         14    1    1    2    0    0  0.59590004805E-02 -0.33340477008E-02  0.12193070846E-01  0.13974853754E-01  0.00000000000E+00 0.  1.
     999901    1    3    3    0    0 -0.76744012059E-01  0.99561737758E-01  0.45950969398E-01  0.89012003382E+00  0.88000000000E+00 0.  1.
        -11    1    4    4    0    0  0.23332800962E-01 -0.48253779743E-01 -0.47305748129E-01  0.71490851074E-01  0.51100000000E-03 0. -1.
         11    1    4    4    0    0  0.47452210616E-01 -0.47973910314E-01 -0.10838292115E-01  0.68344261355E-01  0.51100000000E-03 0.  1.
</event>
<event>
 8    1  0.2824193E+004  0.1043930E+01  0.7957747E-01            NaN
         13   -1    0    0    0    0  0.00000000000E+00  0.00000000000E+00  0.74505805969E-08  0.10566000000E+00  0.10566000000E+00 0.  1.
     999900   -1    0    0    0    0 -0.00000000000E+00 -0.00000000000E+00 -0.74505805969E-08  0.93827000000E+00  0.93827000000E+00 0.  1.
     999902    2    1    2    0    0  0.25075194851E-02  0.78576721644E-02  0.16736183455E-02  0.10355138450E+01  0.10354796433E+01 0.  0.
     999903    2    3    3    0    0  0.11987998418E+00 -0.58465150439E-01  0.34793961430E-01  0.14463115390E+00  0.43796877783E-01 0.  0.
         14    1    1    2    0    0 -0.25075194851E-02 -0.78576721644E-02 -0.16736183455E-02  0.84161549522E-02  0.00000000000E+00 0. -1.
     999901    1    3    3    0    0 -0.11737246469E+00  0.66322822604E-01 -0.33120343084E-01  0.89088269115E+00  0.88000000000E+00 0.  1.
        -11    1    4    4    0    0  0.23712097584E-01 -0.16798755335E-01  0.26774914852E-01  0.39517324542E-01  0.51100000000E-03 0.  1.
         11    1    4    4    0    0  0.96167886592E-01 -0.41666395104E-01  0.80190465780E-02  0.10511382935E+00  0.51100000000E-03 0. -1.
</event>
<event>
 8    1  0.2824193E+004  0.1043930E+01  0.7957747E-01            NaN
         13   -1    0    0    0    0  0.00000000000E+00  0.00000000000E+00  0.74505805969E-08  0.10566000000E+00  0.10566000000E+00 0. -1.
     999900   -1    0    0    0    0 -0.00000000000E+00 -0.00000000000E+00 -0.74505805969E-08  0.93827000000E+00  0.93827000000E+00 0. -1.
     999902    2    1    2    0    0  0.78198475385E-02  0.71183268714E-02 -0.96924492386E-02  0.10295855180E+01  0.10294855874E+01 0.  0.
     999903    2    3    3    0    0  0.74562128379E-02  0.85589331743E-01  0.99936395454E-01  0.13931796579E+00  0.45178353653E-01 0.  0.
         14    1    1    2    0    0 -0.78198475385E-02 -0.71183268714E-02  0.96924492386E-02  0.14344482048E-01  0.00000000000E+00 0. -1.
     999901    1    3    3    0    0  0.36363470058E-03 -0.78471004871E-01 -0.10962884469E+00  0.89026755216E+00  0.88000000000E+00 0. -1.
        -11    1    4    4    0    0 -0.69780119501E-02  0.68976001536E-01  0.52310959249E-01  0.86850901072E-01  0.51100000000E-03 0. -1.
         11    1    4    4    0    0  0.14434224788E-01  0.16613330207E-01  0.47625436206E-01  0.52467064722E-01  0.51100000000E-03 0.  1.
</event>
<event>
 8    1  0.2824193E+004  0.1043930E+01  0.7957747E-01            NaN
         13   -1    0    0    0    0  0.00000000000E+00  0.00000000000E+00  0.74505805969E-08  0.10566000000E+00  0.10566000000E+00 0. -1.
     999900   -1    0    0    0    0 -0.00000000000E+00 -0.00000000000E+00 -0.74505805969E-08  0.93827000000E+00  0.93827000000E+00 0. -1.
     999902    2    1    2    0    0 -0.13629072505E-02 -0.12567186202E-01  0.41350043584E-02  0.10306300020E+01  0.10305441820E+01 0.  0.
     999903    2    3    3    0    0 -0.69464777730E-01 -0.90631097034E-01 -0.70158838366E-01  0.14144418679E+00  0.45219954463E-01 0.  0.
         14    1    1    2    0    0  0.13629072505E-02  0.12567186202E-01 -0.41350043584E-02  0.13299997979E-01  0.00000000000E+00 0.  1.
     999901    1    3    3    0    0  0.68101870480E-01  0.78063910832E-01  0.74293842725E-01  0.88918581523E+00  0.88000000000E+00 0.  1.
        -11    1    4    4    0    0 -0.68817105303E-01 -0.66059704100E-01 -0.67188747754E-01  0.11668019298E+00  0.51100000000E-03 0. -1.
         11    1    4    4    0    0 -0.64767242724E-03 -0.24571392934E-01 -0.29700906126E-02  0.24763993812E-01  0.51100000000E-03 0.  1.
</event>
<event>
 8    1  0.2824193E+004  0.1043930E+01  0.7957747E-01            NaN
         13   -1    0    0    0    0  0.00000000000E+00  0.00000000000E+00  0.74505805969E-08  0.10566000000E+00  0.10566000000E+00 0.  1.
     999900   -1    0    0    0    0 -0.00000000000E+00 -0.00000000000E+00 -0.74505805969E-08  0.93827000000E+00  0.93827000000E+00 0. -1.
     999902    2    1    2    0    0  0.66966901768E-02  0.10497345778E-02  0.12008829922E-01  0.10301401632E+01  0.10300478612E+01 0.  0.
     999903    2    3    3    0    0 -0.11683481674E+00 -0.43036160577E-01 -0.39658098284E-01  0.13892017309E+00  0.47154683897E-01 0.  0.
         14    1    1    2    0    0 -0.66966901768E-02 -0.10497345778E-02 -0.12008829922E-01  0.13789836769E-01  0.00000000000E+00 0. -1.
     999901    1    3    3    0    0  0.12353150691E+00  0.44085895154E-01  0.51666928206E-01  0.89121999014E+00  0.88000000000E+00 0.  1.
        -11    1    4    4    0    0 -0.50292913599E-01 -0.30004515284E-01  0.32858408661E-02  0.58657531204E-01  0.51100000000E-03 0.  1.
         11    1    4    4    0    0 -0.66541903138E-01 -0.13031645292E-01 -0.42943939150E-01  0.80262641889E-01  0.51100000000E-03 0. -1.
</event>
<event>
 8    1  0.2824193E+004  0.1043930E+01  0.7957747E-01            NaN
         13   -1    0    0    0    0  0.00000000000E+00  0.00000000000E+00  0.74505805969E-08  0.10566000000E+00  0.10566000000E+00 0. -1.
     999900   -1    0    0    0    0 -0.00000000000E+00 -0.00000000000E+00 -0.74505805969E-08  0.93827000000E+00  0.93827000000E+00 0. -1.
     999902    2    1    2    0    0  0.10981005301E-01 -0.57322660893E-02 -0.54610597285E-02  0.10303924771E+01  0.10303035438E+01 0.  0.
     999903    2    3    3    0    0  0.82537273415E-01 -0.10446056644E+00 -0.16341882585E-01  0.14191852192E+00  0.46361603657E-01 0.  0.
         14    1    1    2    0    0 -0.10981005301E-01  0.57322660893E-02  0.54610597285E-02  0.13537522864E-01  0.00000000000E+00 0. -1.
     999901    1    3    3    0    0 -0.71556268113E-01  0.98728300348E-01  0.10880822857E-01  0.88847395522E+00  0.88000000000E+00 0. -1.
        -11    1    4    4    0    0  0.43768979149E-01 -0.56267555573E-01 -0.31959063761E-01  0.78124287027E-01  0.51100000000E-03 0. -1.
         11    1    4    4    0    0  0.38768294266E-01 -0.48193010863E-01  0.15617181176E-01  0.63794234890E-01  0.51100000000E-03 0.  1.
</event>
<event>
 8    1  0.2824193E+004  0.1043930E+01  0.7957747E-01            NaN
         13   -1    0    0    0    0  0.00000000000E+00  0.00000000000E+00  0.74505805969E-08  0.10566000000E+00  0.10566000000E+00 0. -1.
     999900   -1    0    0    0    0 -0.00000000000E+00 -0.00000000000E+00 -0.74505805969E-08  0.93827000000E+00  0.93827000000E+00 0. -1.
     999902    2    1    2    0    0 -0.60197090927E-02  0.97179693263E-02  0.74091529194E-02  0.10303075416E+01  0.10302174814E+01 0.  0.
     999903    2    3    3    0    0  0.98514468066E-02 -0.11539087071E+00 -0.62292507189E-01  0.13858873119E+00  0.43753581739E-01 0.  0.
         14    1    1    2    0    0  0.60197090927E-02 -0.97179693263E-02 -0.74091529194E-02  0.13622458382E-01  0.00000000000E+00 0.  1.
     999901    1    3    3    0    0 -0.15871155899E-01  0.12510884003E+00  0.69701660108E-01  0.89171881043E+00  0.88000000000E+00 0.  1.
        -11    1    4    4    0    0  0.47453093856E-02 -0.27816285143E-01  0.41712097295E-02  0.28529349659E-01  0.51100000000E-03 0. -1.
         11    1    4    4    0    0  0.51061374211E-02 -0.87574585564E-01 -0.66463716918E-01  0.11005938153E+00  0.51100000000E-03 0.  1.
</event>
<event>
 8    1  0.2824193E+004  0.1043930E+01  0.7957747E-01            NaN
         13   -1    0    0    0    0  0.00000000000E+00  0.00000000000E+00  0.74505805969E-08  0.10566000000E+00  0.10566000000E+00 0. -1.
     999900   -1    0    0    0    0 -0.00000000000E+00 -0.00000000000E+00 -0.74505805969E-08  0.93827000000E+00  0.93827000000E+00 0. -1.
     999902    2    1    2    0    0  0.30334386299E-02 -0.13595103710E-01  0.14479271911E-02  0.10299255333E+01  0.10298303156E+01 0.  0.
     999903    2    3    3    0    0  0.63310447956E-01  0.34516040000E-01 -0.11023548572E+00  0.13952046551E+00  0.45983998795E-01 0.  0.
         14    1    1    2    0    0 -0.30334386299E-02  0.13595103710E-01 -0.14479271911E-02  0.14004466714E-01  0.00000000000E+00 0.  1.
     999901    1    3    3    0    0 -0.60277009326E-01 -0.48111143710E-01  0.11168341292E+00  0.89040506778E+00  0.88000000000E+00 0. -1.
        -11    1    4    4    0    0  0.26833025206E-01  0.40267908992E-01 -0.67198941092E-01  0.82809869829E-01  0.51100000000E-03 0. -1.
         11    1    4    4    0    0  0.36477422750E-01 -0.57518689917E-02 -0.43036544633E-01  0.56710595679E-01  0.51100000000E-03 0.  1.
</event>
<event>
 8    1  0.2824193E+004  0.1043930E+01  0.7957747E-01            NaN
         13   -1    0    0    0    0  0.00000000000E+00  0.00000000000E+00  0.74505805969E-08  0.10566000000E+00  0.10566000000E+00 0.  1.
     999900   -1    0    0    0    0 -0.00000000000E+00 -0.00000000000E+00 -0.74505805969E-08  0.93827000000E+00  0.93827000000E+00 0.  1.
     999902    2    1    2    0    0 -0.28011066176E-02  0.11499692620E-01 -0.72044684515E-02  0.10300738283E+01  0.10299806300E+01 0.  0.
     999903    2    3    3    0    0 -0.12614036630E+00 -0.69699235182E-03  0.41061700174E-01  0.14007890969E+00  0.44990664723E-01 0.  0.
         14    1    1    2    0    0  0.28011066176E-02 -0.11499692620E-01  0.72044684515E-02  0.13856171705E-01  0.00000000000E+00 0.  1.
     999901    1    3    3    0    0  0.12333925968E+00  0.12196684972E-01 -0.48266168626E-01  0.88999491860E+00  0.88000000000E+00 0.  1.
        -11    1    4    4    0    0 -0.35605812668E-01  0.20254629519E-01  0.11201740109E-01  0.42470743049E-01  0.51100000000E-03 0. -1.
         11    1    4    4    0    0 -0.90534553628E-01 -0.20951621870E-01  0.29859960065E-01  0.97608166645E-01  0.51100000000E-03 0.  1.
</event>
<event>
 8    1  0.2824193E+004  0.1043930E+01  0.7957747E-01            NaN
         13   -1    0    0    0    0  0.00000000000E+00  0.00000000000E+00  0.74505805969E-08  0.10566000000E+00  0.10566000000E+00 0.  1.
     999900   -1    0    0    0    0 -0.00000000000E+00 -0.00000000000E+00 -0.74505805969E-08  0.93827000000E+00  0.93827000000E+00 0.  1.
     999902    2    1    2    0    0 -0.90104643478E-02  0.70949299869E-02  0.73875206003E-02  0.10302880808E+01  0.10301977613E+01 0.  0.
     999903    2    3    3    0    0 -0.88979372021E-01 -0.62555097370E-01 -0.75799382335E-01  0.14002620171E+00  0.45070189170E-01 0.  0.
         14    1    1    2    0    0  0.90104643478E-02 -0.70949299869E-02 -0.73875206003E-02  0.13641919216E-01  0.00000000000E+00 0. -1.
     999901    1    3    3    0    0  0.79968907673E-01  0.69650027357E-01  0.83186902935E-01  0.89026187907E+00  0.88000000000E+00 0. -1.
        -11    1    4    4    0    0 -0.40769049083E-01 -0.41700013431E-01 -0.16091303420E-01  0.60499567354E-01  0.51100000000E-03 0.  1.
         11    1    4    4    0    0 -0.48210322938E-01 -0.20855083939E-01 -0.59708078915E-01  0.79526634360E-01  0.51100000000E-03 0. -1.
</event>
<event>
 8    1  0.2824193E+004  0.1043930E+01  0.7957747E-01            NaN
         13   -1    0    0    0    0  0.00000000000E+00  0.00000000000E+00  0.74505805969E-08  0.10566000000E+00  0.10566000000E+00 0.  1.
     999900   -1    0    0    0    0 -0.00000000000E+00 -0.00000000000E+00 -0.74505805969E-08  0.93827000000E+00  0.93827000000E+00 0.  1.
     999902    2    1    2    0    0 -0.57377071687E-02 -0.71659691783E-02 -0.10879070364E-01  0.10296953040E+01  0.10295969078E+01 0.  0.
     999903    2    3    3    0    0 -0.13308137842E+00  0.24636079556E-02 -0.17174532747E-02  0.14042983488E+00  0.44731043280E-01 0.  0.
         14    1    1    2    0    0  0.57377071687E-02  0.71659691783E-02  0.10879070364E-01  0.14234695986E-01  0.00000000000E+00 0.  1.
     999901    1    3    3    0    0  0.12734367125E+00 -0.96295771338E-02 -0.91616170896E-02  0.88926546913E+00  0.88000000000E+00 0.  1.
        -11    1    4    4    0    0 -0.69600596325E-01 -0.11539182419E-01 -0.19186401505E-01  0.73114806048E-01  0.51100000000E-03 0.  1.
         11    1    4    4    0    0 -0.63480782095E-01  0.14002790374E-01  0.17468948231E-01  0.67315028834E-01  0.51100000000E-03 0. -1.
</event>
<event>
 8    1  0.2824193E+004  0.1043930E+01  0.7957747E-01            NaN
         13   -1    0    0    0    0  0.00000000000E+00  0.00000000000E+00  0.74505805969E-08  0.10566000000E+00  0.10566000000E+00 0. -1.
     999900   -1    0    0    0    0 -0.00000000000E+00 -0.00000000000E+00 -0.74505805969E-08  0.93827000000E+00  0.93827000000E+00 0. -1.
     999902    2    1    2    0    0  0.58608487922E-02  0.83671219746E-02 -0.97233152383E-02  0.10298267685E+01  0.10297301938E+01 0.  0.
     999903    2    3    3    0    0 -0.11199139661E+00  0.48525869998E-01 -0.51242751187E-01  0.14009324643E+00  0.45863549481E-01 0.  0.
         14    1    1    2    0    0 -0.58608487922E-02 -0.83671219746E-02  0.97233152383E-02  0.14103231471E-01  0.00000000000E+00 0. -1.
     999901    1    3    3    0    0  0.11785224540E+00 -0.40158748023E-01  0.41519435949E-01  0.88973352210E+00  0.88000000000E+00 0. -1.
        -11    1    4    4    0    0 -0.82781645597E-01  0.40945786575E-01 -0.16065628336E-01  0.93742860106E-01  0.51100000000E-03 0. -1.
         11    1    4    4    0    0 -0.29209751015E-01  0.75800834232E-02 -0.35177122851E-01  0.46350386321E-01  0.51100000000E-03 0.  1.
</event>
<event>
 8    1  0.2824193E+004  0.1043930E+01  0.7957747E-01            NaN
         13   -1    0    0    0    0  0.00000000000E+00  0.00000000000E+00  0.74505805969E-08  0.10566000000E+00  0.10566000000E+00 0. -1.
     999900   -1    0    0    0    0 -0.00000000000E+00 -0.00000000000E+00 -0.74505805969E-08  0.93827000000E+00  0.93827000000E+00 0.  1.
     999902    2    1    2    0    0 -0.85870576115E-03 -0.13400837470E-01 -0.42611109927E-02  0.10298418175E+01  0.10297454501E+01 0.  0.
     999903    2    3    3    0    0 -0.31980801176E-01 -0.25080486558E-01 -0.12668675480E+00  0.14074506384E+00  0.45911182768E-01 0.  0.
         14    1    1    2    0    0  0.85870576115E-03  0.13400837470E-01  0.42611109927E-02  0.14088182543E-01  0.00000000000E+00 0. -1.
     999901    1    3    3    0    0  0.31122095415E-01  0.11679649088E-01  0.12242564381E+00  0.88909675361E+00  0.88000000000E+00 0. -1.
        -11    1    4    4    0    0 -0.22962956338E-01  0.93033938144E-02 -0.40033936456E-01  0.47083199651E-01  0.51100000000E-03 0.  1.
         11    1    4    4    0    0 -0.90178448383E-02 -0.34383880372E-01 -0.86652818348E-01  0.93661864190E-01  0.51100000000E-03 0. -1.
</event>
<event>
 8    1  0.2824193E+004  0.1043930E+01  0.7957747E-01            NaN
         13   -1    0    0    0    0  0.00000000000E+00  0.00000000000E+00  0.74505805969E-08  0.10566000000E+00  0.10566000000E+00 0. -1.
     999900   -1    0    0    0    0 -0.00000000000E+00 -0.00000000000E+00 -0.74505805969E-08  0.93827000000E+00  0.93827000000E+00 0. -1.
     999902    2    1    2    0    0  0.31733311586E-02 -0.12552733176E-01  0.61090146822E-02  0.10296135339E+01  0.10295139960E+01 0.  0.
     999903    2    3    3    0    0 -0.11400453467E+00  0.83118487934E-02 -0.65200735880E-01  0.13874257606E+00  0.43957316751E-01 0.  0.
         14    1    1    2    0    0 -0.31733311586E-02  0.12552733176E-01 -0.61090146822E-02  0.14316466087E-01  0.00000000000E+00 0.  1.
     999901    1    3    3    0    0  0.11717786583E+00 -0.20864581969E-01  0.71309750563E-01  0.89087095785E+00  0.88000000000E+00 0.  1.
        -11    1    4    4    0    0 -0.70110428386E-01  0.11276982556E-01 -0.62604320630E-01  0.94668920912E-01  0.51100000000E-03 0. -1.
         11    1    4    4    0    0 -0.43894106286E-01 -0.29651337628E-02 -0.25964152504E-02  0.44073655147E-01  0.51100000000E-03 0.  1.
</event>
<event>
 8    1  0.2824193E+004  0.1043930E+01  0.7957747E-01            NaN
         13   -1    0    0    0    0  0.00000000000E+00  0.00000000000E+00  0.74505805969E-08  0.10566000000E+00  0.10566000000E+00 0. -1.
     999900   -1    0    0    0    0 -0.00000000000E+00 -0.00000000000E+00 -0.74505805969E-08  0.93827000000E+00  0.93827000000E+00 0.  1.
     999902    2    1    2    0    0  0.90576533641E-02 -0.59201271517E-02 -0.40530265030E-02  0.10323750870E+01  0.10323104205E+01 0.  0.
     999903    2    3    3    0    0 -0.47375442970E-01 -0.36904920237E-01 -0.12094137425E+00  0.14231461852E+00  0.44946956571E-01 0.  0.
         14    1    1    2    0    0 -0.90576533641E-02  0.59201271517E-02  0.40530265030E-02  0.11554912972E-01  0.00000000000E+00 0. -1.
     999901    1    3    3    0    0  0.56433096334E-01  0.30984793085E-01  0.11688834774E+00  0.89006046851E+00  0.88000000000E+00 0. -1.
        -11    1    4    4    0    0 -0.30507557989E-01 -0.23096852639E-01 -0.29525304648E-01  0.48334050439E-01  0.51100000000E-03 0. -1.
         11    1    4    4    0    0 -0.16867884981E-01 -0.13808067598E-01 -0.91416069600E-01  0.93980568080E-01  0.51100000000E-03 0.  1.
</event>
<event>
 8    1  0.2824193E+004  0.1043930E+01  0.7957747E-01            NaN
         13   -1    0    0    0    0  0.00000000000E+00  0.00000000000E+00  0.74505805969E-08  0.10566000000E+00  0.10566000000E+00 0. -1.
     999900   -1    0    0    0    0 -0.00000000000E+00 -0.00000000000E+00 -0.74505805969E-08  0.93827000000E+00  0.93827000000E+00 0. -1.
     999902    2    1    2    0    0  0.11782318877E-01  0.39516786431E-03 -0.78139926248E-02  0.10297865324E+01  0.10296894020E+01 0.  0.
     999903    2    3    3    0    0 -0.39050629288E-01 -0.12088072605E+00 -0.35739615777E-01  0.13957775265E+00  0.45470070617E-01 0.  0.
         14    1    1    2    0    0 -0.11782318877E-01 -0.39516786431E-03  0.78139926248E-02  0.14143467626E-01  0.00000000000E+00 0.  1.
     999901    1    3    3    0    0  0.50832948165E-01  0.12127589391E+00  0.27925623153E-01  0.89020877972E+00  0.88000000000E+00 0.  1.
        -11    1    4    4    0    0  0.53362512752E-02 -0.54812646706E-01 -0.18844232404E-01  0.58208831224E-01  0.51100000000E-03 0. -1.
         11    1    4    4    0    0 -0.44386880563E-01 -0.66068079342E-01 -0.16895383373E-01  0.81368921428E-01  0.51100000000E-03 0.  1.
</event>
<event>
 8    1  0.2824193E+004  0.1043930E+01  0.7957747E-01            NaN
         13   -1    0    0    0    0  0.00000000000E+00  0.00000000000E+00  0.74505805969E-08  0.10566000000E+00  0.10566000000E+00 0. -1.
     999900   -1    0    0    0    0 -0.00000000000E+00 -0.00000000000E+00 -0.74505805969E-08  0.93827000000E+00  0.93827000000E+00 0. -1.
     999902    2    1    2    0    0 -0.29082041668E-02  0.56071374214E-02 -0.81955605167E-02  0.10335827852E+01  0.10335309909E+01 0.  0.
     999903    2    3    3    0    0 -0.63432208342E-01  0.11269221850E+00  0.41334512485E-01  0.14364818212E+00  0.46936948539E-01 0.  0.
         14    1    1    2    0    0  0.29082041668E-02 -0.56071374214E-02  0.81955605167E-02  0.10347214781E-01  0.00000000000E+00 0. -1.
     999901    1    3    3    0    0  0.60524004175E-01 -0.10708508107E+00 -0.49530073001E-01  0.88993460310E+00  0.88000000000E+00 0. -1.
        -11    1    4    4    0    0 -0.27332171700E-01  0.86945244354E-01  0.15870216847E-01  0.92512961413E-01  0.51100000000E-03 0.  1.
         11    1    4    4    0    0 -0.36100036642E-01  0.25746974141E-01  0.25464295638E-01  0.51135220702E-01  0.51100000000E-03 0. -1.
</event>
<event>
 8    1  0.2824193E+004  0.1043930E+01  0.7957747E-01            NaN
         13   -1    0    0    0    0  0.00000000000E+00  0.00000000000E+00  0.74505805969E-08  0.10566000000E+00  0.10566000000E+00 0. -1.
     999900   -1    0    0    0    0 -0.00000000000E+00 -0.00000000000E+00 -0.74505805969E-08  0.93827000000E+00  0.93827000000E+00 0.  1.
     999902    2    1    2    0    0  0.22368392434E-02  0.27582993456E-02  0.13826200221E-01  0.10296550052E+01  0.10295560471E+01 0.  0.
     999903    2    3    3    0    0  0.28706501451E-01  0.30713307174E-01  0.12714894381E+00  0.14155356406E+00  0.45860518131E-01 0.  0.
         14    1    1    2    0    0 -0.22368392434E-02 -0.27582993456E-02 -0.13826200221E-01  0.14274994838E-01  0.00000000000E+00 0.  1.
     999901    1    3    3    0    0 -0.26469662208E-01 -0.27955007828E-01 -0.11332274358E+00  0.88810144111E+00  0.88000000000E+00 0.  1.
        -11    1    4    4    0    0  0.20333360130E-01 -0.15237534824E-03  0.15956885209E-01  0.25852505855E-01  0.51100000000E-03 0. -1.
         11    1    4    4    0    0  0.83731413216E-02  0.30865682522E-01  0.11119205860E+00  0.11570105820E+00  0.51100000000E-03 0.  1.
</event>
<event>
 8    1  0.2824193E+004  0.1043930E+01  0.7957747E-01            NaN
         13   -1    0    0    0    0  0.00000000000E+00  0.00000000000E+00  0.74505805969E-08  0.10566000000E+00  0.10566000000E+00 0.  1.
     999900   -1    0    0    0    0 -0.00000000000E+00 -0.00000000000E+00 -0.74505805969E-08  0.93827000000E+00  0.93827000000E+00 0.  1.
     999902    2    1    2    0    0 -0.10717315287E-01  0.14651782525E-01  0.26948760831E-02  0.10255779447E+01  0.10254137324E+01 0.  0.
     999903    2    3    3    0    0 -0.85084745044E-01  0.44880709168E-01 -0.87351819646E-01  0.13734784495E+00  0.44501665394E-01 0.  0.
         14    1    1    2    0    0  0.10717315287E-01 -0.14651782525E-01 -0.26948760831E-02  0.18352055341E-01  0.00000000000E+00 0. -1.
     999901    1    3    3    0    0  0.74367429756E-01 -0.30228926643E-01  0.90046695729E-01  0.88823009971E+00  0.88000000000E+00 0. -1.
        -11    1    4    4    0    0  0.29867258620E-02  0.99389499831E-02 -0.39392841509E-02  0.11112260740E-01  0.51100000000E-03 0. -1.
         11    1    4    4    0    0 -0.88071470906E-01  0.34941759185E-01 -0.83412535495E-01  0.12623558421E+00  0.51100000000E-03 0.  1.
</event>
<event>
 8    1  0.2824193E+004  0.1043930E+01  0.7957747E-01            NaN
         13   -1    0    0    0    0  0.00000000000E+00  0.00000000000E+00  0.74505805969E-08  0.10566000000E+00  0.10566000000E+00 0. -1.
     999900   -1    0    0    0    0 -0.00000000000E+00 -0.00000000000E+00 -0.74505805969E-08  0.93827000000E+00  0.93827000000E+00 0. -1.
     999902    2    1    2    0    0  0.35154916161E-02  0.78489913221E-02  0.11987439287E-01  0.10291765581E+01  0.10290708060E+01 0.  0.
     999903    2    3    3    0    0 -0.30376778056E-01 -0.11935511116E+00  0.46249894457E-01  0.13872527622E+00  0.44014296762E-01 0.  0.
         14    1    1    2    0    0 -0.35154916161E-02 -0.78489913221E-02 -0.11987439287E-01  0.14753441861E-01  0.00000000000E+00 0.  1.
     999901    1    3    3    0    0  0.33892269672E-01  0.12720410249E+00 -0.34262455170E-01  0.89045128192E+00  0.88000000000E+00 0.  1.
        -11    1    4    4    0    0 -0.86413666524E-02 -0.56836129617E-01  0.44171721153E-01  0.72501178736E-01  0.51100000000E-03 0. -1.
         11    1    4    4    0    0 -0.21735411403E-01 -0.62518981548E-01  0.20781733043E-02  0.66224097487E-01  0.51100000000E-03 0.  1.
</event>
<event>
 8    1  0.2824193E+004  0.1043930E+01  0.7957747E-01            NaN
         13   -1    0    0    0    0  0.00000000000E+00  0.00000000000E+00  0.74505805969E-08  0.10566000000E+00  0.10566000000E+00 0. -1.
     999900   -1    0    0    0    0 -0.00000000000E+00 -0.00000000000E+00 -0.74505805969E-08  0.93827000000E+00  0.93827000000E+00 0.  1.
     999902    2    1    2    0    0 -0.30958661667E-02  0.12162481219E-01 -0.55732327146E-02  0.10301978749E+01  0.10301063490E+01 0.  0.
     999903    2    3    3    0    0 -0.15462243351E-01 -0.33212437693E-01  0.12649421697E+00  0.13910101046E+00  0.44790146233E-01 0.  0.
         14    1    1    2    0    0  0.30958661667E-02 -0.12162481219E-01  0.55732327146E-02  0.13732125094E-01  0.00000000000E+00 0.  1.
     999901    1    3    3    0    0  0.12366377184E-01  0.45374918912E-01 -0.13206744968E+00  0.89109686444E+00  0.88000000000E+00 0.  1.
        -11    1    4    4    0    0  0.12239745617E-01 -0.18975275480E-01  0.80067475174E-01  0.83192151998E-01  0.51100000000E-03 0.  1.
         11    1    4    4    0    0 -0.27701988968E-01 -0.14237162213E-01  0.46426741792E-01  0.55908858467E-01  0.51100000000E-03 0. -1.
</event>
<event>
 8    1  0.2824193E+004  0.1043930E+01  0.7957747E-01            NaN
         13   -1    0    0    0    0  0.00000000000E+00  0.00000000000E+00  0.74505805969E-08  0.10566000000E+00  0.10566000000E+00 0. -1.
     999900   -1    0    0    0    0 -0.00000000000E+00 -0.00000000000E+00 -0.74505805969E-08  0.93827000000E+00  0.93827000000E+00 0. -1.
     999902    2    1    2    0    0  0.32904425982E-02  0.10144142286E-01 -0.46150393697E-02  0.10323097924E+01  0.10322443889E+01 0.  0.
     999903    2    3    3    0    0  0.21776844556E-01 -0.27670516141E-01  0.12899639409E+00  0.14122971153E+00  0.45451879034E-01 0.  0.
         14    1    1    2    0    0 -0.32904425982E-02 -0.10144142286E-01  0.46150393697E-02  0.11620207554E-01  0.00000000000E+00 0. -1.
     999901    1    3    3    0    0 -0.18486401957E-01  0.37814658427E-01 -0.13361143346E+00  0.89108008091E+00  0.88000000000E+00 0. -1.
        -11    1    4    4    0    0 -0.83943417102E-02 -0.22761961923E-01  0.36657669785E-01  0.43961548635E-01  0.51100000000E-03 0. -1.
         11    1    4    4    0    0  0.30171186266E-01 -0.49085542177E-02  0.92338724310E-01  0.97268162897E-01  0.51100000000E-03 0.  1.
</event>
<event>
 8    1  0.2824193E+004  0.1043930E+01  0.7957747E-01            NaN
         13   -1    0    0    0    0  0.00000000000E+00  0.00000000000E+00  0.74505805969E-08  0.10566000000E+00  0.10566000000E+00 0. -1.
     999900   -1    0    0    0    0 -0.00000000000E+00 -0.00000000000E+00 -0.74505805969E-08  0.93827000000E+00  0.93827000000E+00 0.  1.
     999902    2    1    2    0    0 -0.72895543377E-02 -0.77230312249E-02 -0.72461053723E-02  0.10310735286E+01  0.10309933717E+01 0.  0.
     999903    2    3    3    0    0  0.80895267894E-01 -0.29368638590E-01 -0.10279495219E+00  0.14125631292E+00  0.44496993657E-01 0.  0.
         14    1    1    2    0    0  0.72895543377E-02  0.77230312249E-02  0.72461053723E-02  0.12856471398E-01  0.00000000000E+00 0. -1.
     999901    1    3    3    0    0 -0.88184822232E-01  0.21645607365E-01  0.95548846818E-01  0.88981721568E+00  0.88000000000E+00 0.  1.
        -11    1    4    4    0    0  0.43501659344E-01 -0.17580999004E-01 -0.22801273958E-01  0.52169388599E-01  0.51100000000E-03 0.  1.
         11    1    4    4    0    0  0.37393608550E-01 -0.11787639585E-01 -0.79993678233E-01  0.89086924324E-01  0.51100000000E-03 0. -1.
</event>
<event>
 8    1  0.2824193E+004  0.1043930E+01  0.7957747E-01            NaN
         13   -1    0    0    0    0  0.00000000000E+00  0.00000000000E+00  0.74505805969E-08  0.10566000000E+00  0.10566000000E+00 0.  1.
     999900   -1    0    0    0    0 -0.00000000000E+00 -0.00000000000E+00 -0.74505805969E-08  0.93827000000E+00  0.93827000000E+00 0.  1.
     999902    2    1    2    0    0 -0.12362500694E-01 -0.11835423526E-01  0.12502979023E-01  0.10227348789E+01  0.10225152319E+01 0.  0.
     999903    2    3    3    0    0 -0.70838196401E-01  0.36297266107E-01  0.99438922163E-01  0.13521359973E+00  0.45377050517E-01 0.  0.
         14    1    1    2    0    0  0.12362500694E-01  0.11835423526E-01 -0.12502979023E-01  0.21195121087E-01  0.00000000000E+00 0. -1.
     999901    1    3    3    0    0  0.58475695707E-01 -0.48132689633E-01 -0.86935943140E-01  0.88752127919E+00  0.88000000000E+00 0. -1.
        -11    1    4    4    0    0 -0.14423947404E-01 -0.10170424048E-01  0.12499120935E-01  0.21632774421E-01  0.51100000000E-03 0. -1.
         11    1    4    4    0    0 -0.56414248997E-01  0.46467690155E-01  0.86939801228E-01  0.11358082530E+00  0.51100000000E-03 0.  1.
</event>
<event>
 8    1  0.2824193E+004  0.1043930E+01  0.7957747E-01            NaN
         13   -1    0    0    0    0  0.00000000000E+00  0.00000000000E+00  0.74505805969E-08  0.10566000000E+00  0.10566000000E+00 0. -1.
     999900   -1    0    0    0    0 -0.00000000000E+00 -0.00000000000E+00 -0.74505805969E-08  0.93827000000E+00  0.93827000000E+00 0.  1.
     999902    2    1    2    0    0 -0.30784297925E-02  0.83256207959E-02  0.11258387748E-01  0.10295931947E+01  0.10294933718E+01 0.  0.
     999903    2    3    3    0    0  0.79416027145E-02 -0.12953506010E+00  0.19308792174E-01  0.13875548924E+00  0.45142612780E-01 0.  0.
         14    1    1    2    0    0  0.30784297925E-02 -0.83256207959E-02 -0.11258387748E-01  0.14336805304E-01  0.00000000000E+00 0.  1.
     999901    1    3    3    0    0 -0.11020032507E-01  0.13786068090E+00 -0.80504044256E-02  0.89083770546E+00  0.88000000000E+00 0.  1.
        -11    1    4    4    0    0  0.24286679390E-01 -0.84851476731E-01  0.25126339708E-02  0.88296038131E-01  0.51100000000E-03 0. -1.
         11    1    4    4    0    0 -0.16345076675E-01 -0.44683583373E-01  0.16796158203E-01  0.50459451107E-01  0.51100000000E-03 0.  1.
</event>
<event>
 7    1  0.2824193E+004  0.1043930E+01  0.7957747E-01            NaN
         13   -1    0    0    0    0  0.00000000000E+00  0.00000000000E+00  0.74505805969E-08  0.10566000000E+00  0.10566000000E+00 0. -1.
     999900   -1    0    0    0    0 -0.00000000000E+00 -0.00000000000E+00 -0.74505805969E-08  0.93827000000E+00  0.93827000000E+00 0.  1.
     999902    2    1    2    0    0  0.44789234419E-02  0.13042782527E-01 -0.25027483900E-02  0.10299143416E+01  0.10298189707E+01 0.  0.
         14    1    1    2    0    0 -0.44789234419E-02 -0.13042782527E-01  0.25027483900E-02  0.14015658413E-01  0.00000000000E+00 0. -1.
     999901    1    3    3    0    0 -0.74219628483E-02  0.11311755265E+00  0.36577448769E-02  0.88727901212E+00  0.88000000000E+00 0.  1.
        -11    1    3    3    0    0  0.92574943175E-02 -0.39471326801E-01 -0.52474319400E-01  0.66313664941E-01  0.51100000000E-03 0.  1.
         11    1    3    3    0    0  0.26433919726E-02 -0.60603443324E-01  0.46313826133E-01  0.76321664526E-01  0.51100000000E-03 0. -1.
</event>
<event>
 8    1  0.2824193E+004  0.1043930E+01  0.7957747E-01            NaN
         13   -1    0    0    0    0  0.00000000000E+00  0.00000000000E+00  0.74505805969E-08  0.10566000000E+00  0.10566000000E+00 0. -1.
     999900   -1    0    0    0    0 -0.00000000000E+00 -0.00000000000E+00 -0.74505805969E-08  0.93827000000E+00  0.93827000000E+00 0. -1.
     999902    2    1    2    0    0 -0.10760963966E-01  0.12958721138E-01 -0.16640208826E-02  0.10270038142E+01  0.10268643234E+01 0.  0.
     999903    2    3    3    0    0  0.76899052409E-01  0.10212798187E+00 -0.25121637124E-01  0.13785495421E+00  0.45047783574E-01 0.  0.
         14    1    1    2    0    0  0.10760963966E-01 -0.12958721138E-01  0.16640208826E-02  0.16926185763E-01  0.00000000000E+00 0. -1.
     999901    1    3    3    0    0 -0.87660016375E-01 -0.89169260736E-01  0.23457616241E-01  0.88914886003E+00  0.88000000000E+00 0. -1.
        -11    1    4    4    0    0  0.50364998119E-01  0.36747777235E-01 -0.25320215982E-01  0.67293436720E-01  0.51100000000E-03 0. -1.
         11    1    4    4    0    0  0.26534054290E-01  0.65380204638E-01  0.19857885775E-03  0.70561517488E-01  0.51100000000E-03 0.  1.
</event>
<event>
 8    1  0.2824193E+004  0.1043930E+01  0.7957747E-01            NaN
         13   -1    0    0    0    0  0.00000000000E+00  0.00000000000E+00  0.74505805969E-08  0.10566000000E+00  0.10566000000E+00 0. -1.
     999900   -1    0    0    0    0 -0.00000000000E+00 -0.00000000000E+00 -0.74505805969E-08  0.93827000000E+00  0.93827000000E+00 0.  1.
     999902    2    1    2    0    0 -0.33933158490E-02  0.46326696805E-02 -0.14294857627E-01  0.10285248328E+01  0.10284094576E+01 0.  0.
     999903    2    3    3    0    0  0.10970390484E+00  0.65254763773E-01 -0.31371606066E-01  0.13905440895E+00  0.45374222308E-01 0.  0.
         14    1    1    2    0    0  0.33933158490E-02 -0.46326696805E-02  0.14294857627E-01  0.15405167166E-01  0.00000000000E+00 0. -1.
     999901    1    3    3    0    0 -0.11309722069E+00 -0.60622094092E-01  0.17076748438E-01  0.88947042388E+00  0.88000000000E+00 0. -1.
        -11    1    4    4    0    0  0.24722286594E-01  0.33059987572E-02 -0.22363396698E-01  0.33503786578E-01  0.51100000000E-03 0. -1.
         11    1    4    4    0    0  0.84981618248E-01  0.61948765015E-01 -0.90082093674E-02  0.10555062238E+00  0.51100000000E-03 0.  1.
</event>
<event>
 8    1  0.2824193E+004  0.1043930E+01  0.7957747E-01            NaN
         13   -1    0    0    0    0  0.00000000000E+00  0.00000000000E+00  0.74505805969E-08  0.10566000000E+00  0.10566000000E+00 0. -1.
     999900   -1    0    0    0    0 -0.00000000000E+00 -0.00000000000E+00 -0.74505805969E-08  0.93827000000E+00  0.93827000000E+00 0. -1.
     999902    2    1    2    0    0  0.10431557746E-01  0.49662910671E-02  0.67902184091E-02  0.10305289362E+01  0.10304417984E+01 0.  0.
     999903    2    3    3    0    0  0.11870668976E+00 -0.48621077276E-02  0.63686576527E-01  0.14201484113E+00  0.44691350242E-01 0.  0.
         14    1    1    2    0    0 -0.10431557746E-01 -0.49662910671E-02 -0.67902184091E-02  0.13401063764E-01  0.00000000000E+00 0.  1.
     999901    1    3    3    0    0 -0.10827513201E+00  0.98283987947E-02 -0.56896358117E-01  0.88851409511E+00  0.88000000000E+00 0. -1.
        -11    1    4    4    0    0  0.79239732771E-01 -0.23905110892E-01  0.46540117447E-01  0.94955954155E-01  0.51100000000E-03 0.  1.
         11    1    4    4    0    0  0.39466956987E-01  0.19043003165E-01  0.17146459080E-01  0.47058886975E-01  0.51100000000E-03 0. -1.
</event>
<event>
 8    1  0.2824193E+004  0.1043930E+01  0.7957747E-01            NaN
         13   -1    0    0    0    0  0.00000000000E+00  0.00000000000E+00  0.74505805969E-08  0.10566000000E+00  0.10566000000E+00 0. -1.
     999900   -1    0    0    0    0 -0.00000000000E+00 -0.00000000000E+00 -0.74505805969E-08  0.93827000000E+00  0.93827000000E+00 0. -1.
     999902    2    1    2    0    0 -0.58327872416E-02  0.20561237525E-01 -0.14685723802E-01  0.10179982361E+01  0.10176678988E+01 0.  0.
     999903    2    3    3    0    0 -0.77092252404E-02 -0.11798291193E+00 -0.81394671001E-02  0.12713300732E+00  0.46012508765E-01 0.  0.
         14    1    1    2    0    0  0.58327872416E-02 -0.20561237525E-01  0.14685723802E-01  0.25931763904E-01  0.00000000000E+00 0. -1.
     999901    1    3    3    0    0  0.18764379988E-02  0.13854414946E+00 -0.65462567015E-02  0.89086522878E+00  0.88000000000E+00 0. -1.
        -11    1    4    4    0    0 -0.16252411136E-01 -0.14502328729E-01 -0.82538512481E-02  0.23299046927E-01  0.51100000000E-03 0. -1.
         11    1    4    4    0    0  0.85431858954E-02 -0.10348058321E+00  0.11438414800E-03  0.10383396039E+00  0.51100000000E-03 0.  1.
</event>
<event>
 8    1  0.2824193E+004  0.1043930E+01  0.7957747E-01            NaN
         13   -1    0    0    0    0  0.00000000000E+00  0.00000000000E+00  0.74505805969E-08  0.10566000000E+00  0.10566000000E+00 0.  1.
     999900   -1    0    0    0    0 -0.00000000000E+00 -0.00000000000E+00 -0.74505805969E-08  0.93827000000E+00  0.93827000000E+00 0.  1.
     999902    2    1    2    0    0  0.57234109622E-02 -0.41210270928E-02 -0.11785761599E-01  0.10301952094E+01  0.10301036477E+01 0.  0.
     999903    2    3    3    0    0 -0.57846081476E-01  0.44488778587E-01 -0.11191438670E+00  0.14090912764E+00  0.44778697385E-01 0.  0.
         14    1    1    2    0    0 -0.57234109622E-02  0.41210270928E-02  0.11785761599E-01  0.13734790636E-01  0.00000000000E+00 0.  1.
     999901    1    3    3    0    0  0.63569492438E-01 -0.48609805680E-01  0.10012862511E+00  0.88928608172E+00  0.88000000000E+00 0. -1.
        -11    1    4    4    0    0 -0.29728596213E-01 -0.61509494989E-04 -0.59906859233E-01  0.66879639057E-01  0.51100000000E-03 0.  1.
         11    1    4    4    0    0 -0.28117485262E-01  0.44550288082E-01 -0.52007527472E-01  0.74029488587E-01  0.51100000000E-03 0. -1.
</event>
<event>
 8    1  0.2824193E+004  0.1043930E+01  0.7957747E-01            NaN
         13   -1    0    0    0    0  0.00000000000E+00  0.00000000000E+00  0.74505805969E-08  0.10566000000E+00  0.10566000000E+00 0.  1.
     999900   -1    0    0    0    0 -0.00000000000E+00 -0.00000000000E+00 -0.74505805969E-08  0.93827000000E+00  0.93827000000E+00 0. -1.
     999902    2    1    2    0    0  0.12702250640E-01  0.40856202217E-02 -0.26263221868E-02  0.10303308444E+01  0.10302410941E+01 0.  0.
     999903    2    3    3    0    0 -0.90613682926E-02  0.96180290078E-02 -0.13259256666E+00  0.14050193540E+00  0.44557718076E-01 0.  0.
         14    1    1    2    0    0 -0.12702250640E-01 -0.40856202217E-02  0.26263221868E-02  0.13599155567E-01  0.00000000000E+00 0. -1.
     999901    1    3    3    0    0  0.21763618932E-01 -0.55324087861E-02  0.12996624447E+00  0.88982890904E+00  0.88000000000E+00 0.  1.
        -11    1    4    4    0    0 -0.27239430387E-01  0.51315266929E-02 -0.81241985292E-01  0.85841950288E-01  0.51100000000E-03 0.  1.
         11    1    4    4    0    0  0.18178062095E-01  0.44865023149E-02 -0.51350581365E-01  0.54659985108E-01  0.51100000000E-03 0. -1.
</event>
<event>
 8    1  0.2824193E+004  0.1043930E+01  0.7957747E-01            NaN
         13   -1    0    0    0    0  0.00000000000E+00  0.00000000000E+00  0.74505805969E-08  0.10566000000E+00  0.10566000000E+00 0. -1.
     999900   -1    0    0    0    0 -0.00000000000E+00 -0.00000000000E+00 -0.74505805969E-08  0.93827000000E+00  0.93827000000E+00 0. -1.
     999902    2    1    2    0    0 -0.96789635022E-02  0.26514077939E-02 -0.98295626833E-02  0.10298824878E+01  0.10297866798E+01 0.  0.
     999903    2    3    3    0    0  0.13923181494E-01 -0.55746069538E-01 -0.12055066977E+00  0.14071068761E+00  0.44334573134E-01 0.  0.
         14    1    1    2    0    0  0.96789635022E-02 -0.26514077939E-02  0.98295626833E-02  0.14047512246E-01  0.00000000000E+00 0. -1.
     999901    1    3    3    0    0 -0.23602144996E-01  0.58397477332E-01  0.11072110709E+00  0.88917180014E+00  0.88000000000E+00 0.  1.
        -11    1    4    4    0    0 -0.46020331479E-02  0.38023768873E-02 -0.31059620928E-01  0.31632229645E-01  0.51100000000E-03 0. -1.
         11    1    4    4    0    0  0.18525214641E-01 -0.59548446425E-01 -0.89491048843E-01  0.10907845797E+00  0.51100000000E-03 0.  1.
</event>
<event>
 8    1  0.2824193E+004  0.1043930E+01  0.7957747E-01            NaN
         13   -1    0    0    0    0  0.00000000000E+00  0.00000000000E+00  0.74505805969E-08  0.10566000000E+00  0.10566000000E+00 0.  1.
     999900   -1    0    0    0    0 -0.00000000000E+00 -0.00000000000E+00 -0.74505805969E-08  0.93827000000E+00  0.93827000000E+00 0.  1.
     999902    2    1    2    0    0  0.10041264681E-01 -0.77121341007E-02 -0.64723118859E-02  0.10297104772E+01  0.10296122920E+01 0.  0.
     999903    2    3    3    0    0 -0.92675345527E-02  0.12669599177E+00  0.32234970700E-01  0.13845483047E+00  0.44641742970E-01 0.  0.
         14    1    1    2    0    0 -0.10041264681E-01  0.77121341007E-02  0.64723118859E-02  0.14219522844E-01  0.00000000000E+00 0.  1.
     999901    1    3    3    0    0  0.19308799233E-01 -0.13440812587E+00 -0.38707282585E-01  0.89125564669E+00  0.88000000000E+00 0.  1.
        -11    1    4    4    0    0  0.55653828231E-02  0.41683574549E-01 -0.86890966167E-02  0.42944794727E-01  0.51100000000E-03 0. -1.
         11    1    4    4    0    0 -0.14832917376E-01  0.85012417225E-01  0.40924067316E-01  0.95510035740E-01  0.51100000000E-03 0.  1.
</event>
<event>
 8    1  0.2824193E+004  0.1043930E+01  0.7957747E-01            NaN
         13   -1    0    0    0    0  0.00000000000E+00  0.00000000000E+00  0.74505805969E-08  0.10566000000E+00  0.10566000000E+00 0. -1.
     999900   -1    0    0    0    0 -0.00000000000E+00 -0.00000000000E+00 -0.74505805969E-08  0.93827000000E+00  0.93827000000E+00 0.  1.
     999902    2    1    2    0    0  0.82983356083E-02 -0.26632104880E-02  0.10840008535E-01  0.10300209796E+01  0.10299270642E+01 0.  0.
     999903    2    3    3    0    0  0.70563240785E-01  0.89133474148E-01 -0.67023558245E-01  0.13964674098E+00  0.45662980016E-01 0.  0.
         14    1    1    2    0    0 -0.82983356083E-02  0.26632104880E-02 -0.10840008535E-01  0.13909020418E-01  0.00000000000E+00 0.  1.
     999901    1    3    3    0    0 -0.62264905176E-01 -0.91796684636E-01  0.77863566780E-01  0.89037423860E+00  0.88000000000E+00 0. -1.
        -11    1    4    4    0    0  0.73916115912E-01  0.67395931141E-01 -0.50009052890E-01  0.11183456629E+00  0.51100000000E-03 0.  1.
         11    1    4    4    0    0 -0.33528751271E-02  0.21737543007E-01 -0.17014505356E-01  0.27812174692E-01  0.51100000000E-03 0. -1.
</event>
<event>
 8    1  0.2824193E+004  0.1043930E+01  0.7957747E-01            NaN
         13   -1    0    0    0    0  0.00000000000E+00  0.00000000000E+00  0.74505805969E-08  0.10566000000E+00  0.10566000000E+00 0. -1.
     999900   -1    0    0    0    0 -0.00000000000E+00 -0.00000000000E+00 -0.74505805969E-08  0.93827000000E+00  0.93827000000E+00 0. -1.
     999902    2    1    2    0    0  0.97588333080E-02  0.10059271886E-01  0.49440167884E-02  0.10290684025E+01  0.10289610828E+01 0.  0.
     999903    2    3    3    0    0 -0.55768339287E-01 -0.10729764565E+00  0.51742997332E-01  0.13763326687E+00  0.40530062284E-01 0.  0.
         14    1    1    2    0    0 -0.97588333080E-02 -0.10059271886E-01 -0.49440167884E-02  0.14861597505E-01  0.00000000000E+00 0.  1.
     999901    1    3    3    0    0  0.65527172596E-01  0.11735691753E+00 -0.46798980544E-01  0.89143513562E+00  0.88000000000E+00 0. -1.
        -11    1    4    4    0    0  0.63217641830E-02 -0.64935853355E-02  0.25627177195E-02  0.94318606862E-02  0.51100000000E-03 0. -1.
         11    1    4    4    0    0 -0.62090103470E-01 -0.10080406031E+00  0.49180279612E-01  0.12820140619E+00  0.51100000000E-03 0.  1.
</event>
<event>
 8    1  0.2824193E+004  0.1043930E+01  0.7957747E-01            NaN
         13   -1    0    0    0    0  0.00000000000E+00  0.00000000000E+00  0.74505805969E-08  0.10566000000E+00  0.10566000000E+00 0.  1.
     999900   -1    0    0    0    0 -0.00000000000E+00 -0.00000000000E+00 -0.74505805969E-08  0.93827000000E+00  0.93827000000E+00 0. -1.
     999902    2    1    2    0    0  0.10126903511E-01  0.85544120453E-02  0.30586153436E-02  0.10303253218E+01  0.10302354981E+01 0.  0.
     999903    2    3    3    0    0  0.67924396850E-01  0.10649738619E+00  0.46457351833E-01  0.14194655872E+00  0.45112338017E-01 0.  0.
         14    1    1    2    0    0 -0.10126903511E-01 -0.85544120453E-02 -0.30586153436E-02  0.13604678165E-01  0.00000000000E+00 0. -1.
     999901    1    3    3    0    0 -0.57797493339E-01 -0.97942974143E-01 -0.43398736489E-01  0.88837876311E+00  0.88000000000E+00 0. -1.
        -11    1    4    4    0    0  0.49760463199E-01  0.38466434733E-01  0.29738649788E-01  0.69573117733E-01  0.51100000000E-03 0. -1.
         11    1    4    4    0    0  0.18163933651E-01  0.68030951455E-01  0.16718702045E-01  0.72373440989E-01  0.51100000000E-03 0.  1.
</event>
<event>
 8    1  0.2824193E+004  0.1043930E+01  0.7957747E-01            NaN
         13   -1    0    0    0    0  0.00000000000E+00  0.00000000000E+00  0.74505805969E-08  0.10566000000E+00  0.10566000000E+00 0. -1.
     999900   -1    0    0    0    0 -0.00000000000E+00 -0.00000000000E+00 -0.74505805969E-08  0.93827000000E+00  0.93827000000E+00 0.  1.
     999902    2    1    2    0    0  0.68578072133E-02  0.12907274851E-01 -0.28872723285E-02  0.10290315569E+01  0.10289237006E+01 0.  0.
     999903    2    3    3    0    0  0.77636466949E-01  0.53157422402E-01 -0.94232833569E-01  0.14056450375E+00  0.45004669052E-01 0.  0.
         14    1    1    2    0    0 -0.68578072133E-02 -0.12907274851E-01  0.28872723285E-02  0.14898443052E-01  0.00000000000E+00 0.  1.
     999901    1    3    3    0    0 -0.70778659736E-01 -0.40250147551E-01  0.91345561241E-01  0.88846705319E+00  0.88000000000E+00 0. -1.
        -11    1    4    4    0    0  0.79466249492E-01  0.36477242887E-01 -0.77084535409E-01  0.11656655085E+00  0.51100000000E-03 0. -1.
         11    1    4    4    0    0 -0.18297825423E-02  0.16680179515E-01 -0.17148298160E-01  0.23997952904E-01  0.51100000000E-03 0.  1.
</event>
<event>
 8    1  0.2824193E+004  0.1043930E+01  0.7957747E-01            NaN
         13   -1    0    0    0    0  0.00000000000E+00  0.00000000000E+00  0.74505805969E-08  0.10566000000E+00  0.10566000000E+00 0. -1.
     999900   -1    0    0    0    0 -0.00000000000E+00 -0.00000000000E+00 -0.74505805969E-08  0.93827000000E+00  0.93827000000E+00 0. -1.
     999902    2    1    2    0    0 -0.13662538390E-02  0.72491029687E-02 -0.86563109633E-02  0.10325568798E+01  0.10324942432E+01 0.  0.
     999903    2    3    3    0    0  0.76164980859E-01 -0.16638722531E-01 -0.11100544895E+00  0.14291815167E+00  0.45004855113E-01 0.  0.
         14    1    1    2    0    0  0.13662538390E-02 -0.72491029687E-02  0.86563109633E-02  0.11373120192E-01  0.00000000000E+00 0. -1.
     999901    1    3    3    0    0 -0.77531234698E-01  0.23887825500E-01  0.10234913798E+00  0.88963872814E+00  0.88000000000E+00 0.  1.
        -11    1    4    4    0    0  0.32124065298E-01 -0.14390416153E-01 -0.84315051534E-01  0.91369188924E-01  0.51100000000E-03 0. -1.
         11    1    4    4    0    0  0.44040915561E-01 -0.22483063781E-02 -0.26690397412E-01  0.51548962744E-01  0.51100000000E-03 0.  1.
</event>
<event>
 8    1  0.2824193E+004  0.1043930E+01  0.7957747E-01            NaN
         13   -1    0    0    0    0  0.00000000000E+00  0.00000000000E+00  0.74505805969E-08  0.10566000000E+00  0.10566000000E+00 0.  1.
     999900   -1    0    0    0    0 -0.00000000000E+00 -0.00000000000E+00 -0.74505805969E-08  0.93827000000E+00  0.93827000000E+00 0. -1.
     999902    2    1    2    0    0  0.10285809368E-01 -0.17703052746E-02  0.85884045766E-02  0.10304136193E+01  0.10303249653E+01 0.  0.
     999903    2    3    3    0    0  0.12967608656E+00  0.31731838403E-01  0.10856586394E-01  0.14171705880E+00  0.46293220804E-01 0.  0.
         14    1    1    2    0    0 -0.10285809368E-01  0.17703052746E-02 -0.85884045766E-02  0.13516380740E-01  0.00000000000E+00 0. -1.
     999901    1    3    3    0    0 -0.11939027720E+00 -0.33502143678E-01 -0.22681818171E-02  0.88869656046E+00  0.88000000000E+00 0.  1.
        -11    1    4    4    0    0  0.71316075195E-01  0.38743338387E-02 -0.13359821803E-01  0.72661812554E-01  0.51100000000E-03 0. -1.
         11    1    4    4    0    0  0.58360011369E-01  0.27857504564E-01  0.24216408197E-01  0.69055246249E-01  0.51100000000E-03 0.  1.
</event>
<event>
 8    1  0.2824193E+004  0.1043930E+01  0.7957747E-01            NaN
         13   -1    0    0    0    0  0.00000000000E+00  0.00000000000E+00  0.74505805969E-08  0.10566000000E+00  0.10566000000E+00 0. -1.
     999900   -1    0    0    0    0 -0.00000000000E+00 -0.00000000000E+00 -0.74505805969E-08  0.93827000000E+00  0.93827000000E+00 0. -1.
     999902    2    1    2    0    0  0.66403983965E-02 -0.10431317471E-01  0.63735407421E-02  0.10300185193E+01  0.10299245704E+01 0.  0.
     999903    2    3    3    0    0 -0.44427086423E-01  0.84009844055E-01 -0.89760545488E-01  0.13829615016E+00  0.45138118230E-01 0.  0.
         14    1    1    2    0    0 -0.66403983965E-02  0.10431317471E-01 -0.63735407421E-02  0.13911480749E-01  0.00000000000E+00 0.  1.
     999901    1    3    3    0    0  0.51067484820E-01 -0.94441161526E-01  0.96134086230E-01  0.89172236909E+00  0.88000000000E+00 0.  1.
        -11    1    4    4    0    0 -0.53293489303E-01  0.70970186234E-01 -0.70163991337E-01  0.11313801367E+00  0.51100000000E-03 0.  1.
         11    1    4    4    0    0  0.88664028798E-02  0.13039657822E-01 -0.19596554152E-01  0.25158136492E-01  0.51100000000E-03 0. -1.
</event>
<event>
 8    1  0.2824193E+004  0.1043930E+01  0.7957747E-01            NaN
         13   -1    0    0    0    0  0.00000000000E+00  0.00000000000E+00  0.74505805969E-08  0.10566000000E+00  0.10566000000E+00 0.  1.
     999900   -1    0    0    0    0 -0.00000000000E+00 -0.00000000000E+00 -0.74505805969E-08  0.93827000000E+00  0.93827000000E+00 0. -1.
     999902    2    1    2    0    0  0.48105347946E-02 -0.57386091996E-02 -0.11217557806E-01  0.10304427288E+01  0.10303544589E+01 0.  0.
     999903    2    3    3    0    0  0.13815876615E-01 -0.25055047283E-01  0.12794039282E+00  0.13925298686E+00  0.46946952992E-01 0.  0.
         14    1    1    2    0    0 -0.48105347946E-02  0.57386091996E-02  0.11217557806E-01  0.13487271173E-01  0.00000000000E+00 0.  1.
     999901    1    3    3    0    0 -0.90053418200E-02  0.19316438083E-01 -0.13915795062E+00  0.89118974196E+00  0.88000000000E+00 0. -1.
        -11    1    4    4    0    0 -0.13710713055E-01 -0.21465921927E-01  0.78746477929E-01  0.82764958550E-01  0.51100000000E-03 0.  1.
         11    1    4    4    0    0  0.27526589670E-01 -0.35891253563E-02  0.49193914887E-01  0.56488028312E-01  0.51100000000E-03 0. -1.
</event>
<event>
 8    1  0.2824193E+004  0.1043930E+01  0.7957747E-01            NaN
         13   -1    0    0    0    0  0.00000000000E+00  0.00000000000E+00  0.74505805969E-08  0.10566000000E+00  0.10566000000E+00 0. -1.
     999900   -1    0    0    0    0 -0.00000000000E+00 -0.00000000000E+00 -0.74505805969E-08  0.93827000000E+00  0.93827000000E+00 0. -1.
     999902    2    1    2    0    0 -0.10647706428E-01 -0.87045375494E-02 -0.53181007857E-02  0.10291846678E+01  0.10290790327E+01 0.  0.
     999903    2    3    3    0    0 -0.76213080451E-01 -0.18205547361E-01 -0.10800418897E+00  0.14074022936E+00  0.44755242582E-01 0.  0.
         14    1    1    2    0    0  0.10647706428E-01  0.87045375494E-02  0.53181007857E-02  0.14745332214E-01  0.00000000000E+00 0.  1.
     999901    1    3    3    0    0  0.65565374023E-01  0.95010098118E-02  0.10268608819E+00  0.88844443842E+00  0.88000000000E+00 0. -1.
        -11    1    4    4    0    0 -0.49160552605E-01  0.10998879936E-01 -0.62589014826E-01  0.80345386863E-01  0.51100000000E-03 0.  1.
         11    1    4    4    0    0 -0.27052527846E-01 -0.29204427298E-01 -0.45415174149E-01  0.60394842500E-01  0.51100000000E-03 0. -1.
</event>
<event>
 8    1  0.2824193E+004  0.1043930E+01  0.7957747E-01            NaN
         13   -1    0    0    0    0  0.00000000000E+00  0.00000000000E+00  0.74505805969E-08  0.10566000000E+00  0.10566000000E+00 0. -1.
     999900   -1    0    0    0    0 -0.00000000000E+00 -0.00000000000E+00 -0.74505805969E-08  0.93827000000E+00  0.93827000000E+00 0. -1.
     999902    2    1    2    0    0 -0.10257525025E-01  0.39600908288E-02 -0.50604024762E-02  0.10318260002E+01  0.10317550038E+01 0.  0.
     999903    2    3    3    0    0 -0.10365804581E+00 -0.83549224332E-01  0.21652330230E-01  0.14216589224E+00  0.44909399515E-01 0.  0.
         14    1    1    2    0    0  0.10257525025E-01 -0.39600908288E-02  0.50604024762E-02  0.12103999844E-01  0.00000000000E+00 0. -1.
     999901    1    3    3    0    0  0.93400520787E-01  0.87509315161E-01 -0.26712732706E-01  0.88966010791E+00  0.88000000000E+00 0.  1.
        -11    1    4    4    0    0 -0.57166744653E-01 -0.60071928275E-01  0.32313636476E-01  0.89000592606E-01  0.51100000000E-03 0. -1.
         11    1    4    4    0    0 -0.46491301159E-01 -0.23477296057E-01 -0.10661306246E-01  0.53165299637E-01  0.51100000000E-03 0.  1.
</event>
<event>
 7    1  0.2824193E+004  0.1043930E+01  0.7957747E-01            NaN
         13   -1    0    0    0    0  0.00000000000E+00  0.00000000000E+00  0.74505805969E-08  0.10566000000E+00  0.10566000000E+00 0.  1.
     999900   -1    0    0    0    0 -0.00000000000E+00 -0.00000000000E+00 -0.74505805969E-08  0.93827000000E+00  0.93827000000E+00 0.  1.
     999902    2    1    2    0    0  0.12167172981E-01  0.53020209991E-02  0.25929032075E-02  0.10304068838E+01  0.10303181409E+01 0.  0.
         14    1    1    2    0    0 -0.12167172981E-01 -0.53020209991E-02 -0.25929032075E-02  0.13523116211E-01  0.00000000000E+00 0.  1.
     999901    1    3    3    0    0 -0.50294421772E-01 -0.89836952949E-01 -0.27431391201E-01  0.88642692209E+00  0.88000000000E+00 0.  1.
        -11    1    3    3    0    0 -0.89542617915E-02  0.60382415553E-01  0.18041129410E-01  0.63654994962E-01  0.51100000000E-03 0.  1.
         11    1    3    3    0    0  0.71415856544E-01  0.34756558395E-01  0.11983164999E-01  0.80324966740E-01  0.51100000000E-03 0. -1.
</event>
<event>
 8    1  0.2824193E+004  0.1043930E+01  0.7957747E-01            NaN
         13   -1    0    0    0    0  0.00000000000E+00  0.00000000000E+00  0.74505805969E-08  0.10566000000E+00  0.10566000000E+00 0. -1.
     999900   -1    0    0    0    0 -0.00000000000E+00 -0.00000000000E+00 -0.74505805969E-08  0.93827000000E+00  0.93827000000E+00 0.  1.
     999902    2    1    2    0    0  0.59463605364E-02  0.62774609836E-02  0.10105735592E-01  0.10306299394E+01  0.10305441186E+01 0.  0.
     999903    2    3    3    0    0 -0.15296287738E-01 -0.12448857671E+00  0.43831840986E-01  0.14007479967E+00  0.44365944906E-01 0.  0.
         14    1    1    2    0    0 -0.59463605364E-02 -0.62774609836E-02 -0.10105735592E-01  0.13300060597E-01  0.00000000000E+00 0.  1.
     999901    1    3    3    0    0  0.21242648274E-01  0.13076603770E+00 -0.33726105394E-01  0.89055513973E+00  0.88000000000E+00 0.  1.
        -11    1    4    4    0    0 -0.11410403359E-01 -0.69863144025E-01  0.14168827897E-02  0.70804836528E-01  0.51100000000E-03 0.  1.
         11    1    4    4    0    0 -0.38858843788E-02 -0.54625432688E-01  0.42414958196E-01  0.69269963141E-01  0.51100000000E-03 0. -1.
</event>
<event>
 8    1  0.2824193E+004  0.1043930E+01  0.7957747E-01            NaN
         13   -1    0    0    0    0  0.00000000000E+00  0.00000000000E+00  0.74505805969E-08  0.10566000000E+00  0.10566000000E+00 0.  1.
     999900   -1    0    0    0    0 -0.00000000000E+00 -0.00000000000E+00 -0.74505805969E-08  0.93827000000E+00  0.93827000000E+00 0. -1.
     999902    2    1    2    0    0  0.86191730841E-02  0.72931011556E-02  0.74573316571E-02  0.10303988779E+01  0.10303100292E+01 0.  0.
     999903    2    3    3    0    0  0.19900471948E-02  0.12948365879E+00  0.35123450599E-01  0.14150074438E+00  0.44931344273E-01 0.  0.
         14    1    1    2    0    0 -0.86191730841E-02 -0.72931011556E-02 -0.74573316571E-02  0.13531122073E-01  0.00000000000E+00 0.  1.
     999901    1    3    3    0    0  0.66291258893E-02 -0.12219055763E+00 -0.27666118942E-01  0.88889813355E+00  0.88000000000E+00 0. -1.
        -11    1    4    4    0    0  0.21111944529E-01  0.56009018774E-01  0.59044789093E-02  0.60148552585E-01  0.51100000000E-03 0. -1.
         11    1    4    4    0    0 -0.19121897335E-01  0.73474640011E-01  0.29218971690E-01  0.81352191796E-01  0.51100000000E-03 0.  1.
</event>
<event>
 8    1  0.2824193E+004  0.1043930E+01  0.7957747E-01            NaN
         13   -1    0    0    0    0  0.00000000000E+00  0.00000000000E+00  0.74505805969E-08  0.10566000000E+00  0.10566000000E+00 0.  1.
     999900   -1    0    0    0    0 -0.00000000000E+00 -0.00000000000E+00 -0.74505805969E-08  0.93827000000E+00  0.93827000000E+00 0. -1.
     999902    2    1    2    0    0 -0.45563843480E-02 -0.12442581102E-01  0.53542301819E-02  0.10296385255E+01  0.10295393372E+01 0.  0.
     999903    2    3    3    0    0 -0.81905791329E-02  0.72808072897E-01  0.10918193186E+00  0.13943569859E+00  0.46406020426E-01 0.  0.
         14    1    1    2    0    0  0.45563843480E-02  0.12442581102E-01 -0.53542301819E-02  0.14291474509E-01  0.00000000000E+00 0.  1.
     999901    1    3    3    0    0  0.36341947849E-02 -0.85250653999E-01 -0.10382770168E+00  0.89020282690E+00  0.88000000000E+00 0. -1.
        -11    1    4    4    0    0 -0.16555286102E-01  0.35199578116E-02  0.21601600214E-01  0.27447365151E-01  0.51100000000E-03 0.  1.
         11    1    4    4    0    0  0.83647069693E-02  0.69288115085E-01  0.87580331649E-01  0.11198833344E+00  0.51100000000E-03 0. -1.
</event>
<event>
 8    1  0.2824193E+004  0.1043930E+01  0.7957747E-01            NaN
         13   -1    0    0    0    0  0.00000000000E+00  0.00000000000E+00  0.74505805969E-08  0.10566000000E+00  0.10566000000E+00 0.  1.
     999900   -1    0    0    0    0 -0.00000000000E+00 -0.00000000000E+00 -0.74505805969E-08  0.93827000000E+00  0.93827000000E+00 0.  1.
     999902    2    1    2    0    0  0.36334999810E-02 -0.39406016861E-03 -0.14013627377E-01  0.10294476191E+01  0.10293457442E+01 0.  0.
     999903    2    3    3    0    0 -0.32809134406E-01  0.12177043934E+00 -0.42409057363E-01  0.13980806790E+00  0.42933535903E-01 0.  0.
         14    1    1    2    0    0 -0.36334999810E-02  0.39406016861E-03  0.14013627377E-01  0.14482380943E-01  0.00000000000E+00 0.  1.
     999901    1    3    3    0    0  0.36442634387E-01 -0.12216449951E+00  0.28395429986E-01  0.88963955116E+00  0.88000000000E+00 0. -1.
        -11    1    4    4    0    0 -0.33276507587E-01  0.63876964412E-01 -0.38764824794E-01  0.81795875825E-01  0.51100000000E-03 0.  1.
         11    1    4    4    0    0  0.46737318085E-03  0.57893474929E-01 -0.36442325683E-02  0.58012192073E-01  0.51100000000E-03 0. -1.
</event>
<event>
 8    1  0.2824193E+004  0.1043930E+01  0.7957747E-01            NaN
         13   -1    0    0    0    0  0.00000000000E+00  0.00000000000E+00  0.74505805969E-08  0.10566000000E+00  0.10566000000E+00 0. -1.
     999900   -1    0    0    0    0 -0.00000000000E+00 -0.00000000000E+00 -0.74505805969E-08  0.93827000000E+00  0.93827000000E+00 0.  1.
     999902    2    1    2    0    0  0.12178203702E-01 -0.75976020915E-02  0.91324363352E-03  0.10295471555E+01  0.10294466859E+01 0.  0.
     999903    2    3    3    0    0  0.13270198545E+00 -0.13269119620E-01  0.11797622756E-01  0.14124730869E+00  0.45008130721E-01 0.  0.
         14    1    1    2    0    0 -0.12178203702E-01  0.75976020915E-02 -0.91324363352E-03  0.14382844533E-01  0.00000000000E+00 0.  1.
     999901    1    3    3    0    0 -0.12052378175E+00  0.56715175282E-02 -0.10884379122E-01  0.88829984678E+00  0.88000000000E+00 0.  1.
        -11    1    4    4    0    0  0.68087213650E-02  0.77426814897E-02 -0.66582330967E-02  0.12284176499E-01  0.51100000000E-03 0. -1.
         11    1    4    4    0    0  0.12589326409E+00 -0.21011801109E-01  0.18455855853E-01  0.12896313219E+00  0.51100000000E-03 0.  1.
</event>
<event>
 8    1  0.2824193E+004  0.1043930E+01  0.7957747E-01            NaN
         13   -1    0    0    0    0  0.00000000000E+00  0.00000000000E+00  0.74505805969E-08  0.10566000000E+00  0.10566000000E+00 0. -1.
     999900   -1    0    0    0    0 -0.00000000000E+00 -0.00000000000E+00 -0.74505805969E-08  0.93827000000E+00  0.93827000000E+00 0.  1.
     999902    2    1    2    0    0 -0.91850767225E-02 -0.98295212696E-02 -0.68532918059E-02  0.10288318964E+01  0.10287211082E+01 0.  0.
     999903    2    3    3    0    0  0.36009478781E-01  0.37378705815E-02  0.12520272407E+00  0.13772841574E+00  0.44527970415E-01 0.  0.
         14    1    1    2    0    0  0.91850767225E-02  0.98295212696E-02  0.68532918059E-02  0.15098103569E-01  0.00000000000E+00 0.  1.
     999901    1    3    3    0    0 -0.45194555503E-01 -0.13567391851E-01 -0.13205601588E+00  0.89110348069E+00  0.88000000000E+00 0.  1.
        -11    1    4    4    0    0  0.14442671106E-01  0.12756266342E-01  0.10521910446E+00  0.10697024887E+00  0.51100000000E-03 0. -1.
         11    1    4    4    0    0  0.21566807675E-01 -0.90183957608E-02  0.19983619615E-01  0.30758166872E-01  0.51100000000E-03 0.  1.
</event>
<event>
 8    1  0.2824193E+004  0.1043930E+01  0.7957747E-01            NaN
         13   -1    0    0    0    0  0.00000000000E+00  0.00000000000E+00  0.74505805969E-08  0.10566000000E+00  0.10566000000E+00 0.  1.
     999900   -1    0    0    0    0 -0.00000000000E+00 -0.00000000000E+00 -0.74505805969E-08  0.93827000000E+00  0.93827000000E+00 0. -1.
     999902    2    1    2    0    0  0.11765006891E-01 -0.76824450662E-02  0.16364893993E-02  0.10297838540E+01  0.10296866866E+01 0.  0.
     999903    2    3    3    0    0 -0.11445780118E+00 -0.34514012963E-01 -0.53659634809E-01  0.13865547286E+00  0.45323044938E-01 0.  0.
         14    1    1    2    0    0 -0.11765006891E-01  0.76824450662E-02 -0.16364893993E-02  0.14146146009E-01  0.00000000000E+00 0. -1.
     999901    1    3    3    0    0  0.12622280807E+00  0.26831567896E-01  0.55296124208E-01  0.89112838114E+00  0.88000000000E+00 0. -1.
        -11    1    4    4    0    0 -0.53016933647E-02 -0.14959405996E-01 -0.10500472415E-02  0.15914003283E-01  0.51100000000E-03 0.  1.
         11    1    4    4    0    0 -0.10915610782E+00 -0.19554606967E-01 -0.52609587568E-01  0.12274146957E+00  0.51100000000E-03 0. -1.
</event>
<event>
 8    1  0.2824193E+004  0.1043930E+01  0.7957747E-01            NaN
         13   -1    0    0    0    0  0.00000000000E+00  0.00000000000E+00  0.74505805969E-08  0.10566000000E+00  0.10566000000E+00 0.  1.
     999900   -1    0    0    0    0 -0.00000000000E+00 -0.00000000000E+00 -0.74505805969E-08  0.93827000000E+00  0.93827000000E+00 0. -1.
     999902    2    1    2    0    0 -0.39588743327E-02  0.58335188732E-02  0.12102797248E-01  0.10299235611E+01  0.10298283165E+01 0.  0.
     999903    2    3    3    0    0  0.62849832902E-01  0.38948124773E-01 -0.10872989182E+00  0.13854231877E+00  0.43643175843E-01 0.  0.
         14    1    1    2    0    0  0.39588743327E-02 -0.58335188732E-02 -0.12102797248E-01  0.14006438864E-01  0.00000000000E+00 0. -1.
     999901    1    3    3    0    0 -0.66808707235E-01 -0.33114605900E-01  0.12083268907E+00  0.89138124236E+00  0.88000000000E+00 0.  1.
        -11    1    4    4    0    0  0.20608583125E-01  0.51199041801E-02 -0.66754288864E-01  0.70052289898E-01  0.51100000000E-03 0. -1.
         11    1    4    4    0    0  0.42241249777E-01  0.33828220593E-01 -0.41975602954E-01  0.68490028877E-01  0.51100000000E-03 0.  1.
</event>
<event>
 8    1  0.2824193E+004  0.1043930E+01  0.7957747E-01            NaN
         13   -1    0    0    0    0  0.00000000000E+00  0.00000000000E+00  0.74505805969E-08  0.10566000000E+00  0.10566000000E+00 0. -1.
     999900   -1    0    0    0    0 -0.00000000000E+00 -0.00000000000E+00 -0.74505805969E-08  0.93827000000E+00  0.93827000000E+00 0.  1.
     999902    2    1    2    0    0 -0.57034917124E-02  0.91209613703E-02 -0.92286891172E-02  0.10297564169E+01  0.10296588696E+01 0.  0.
     999903    2    3    3    0    0 -0.67788770939E-01  0.82372392978E-01  0.78188746002E-01  0.14022723693E+00  0.46579710003E-01 0.  0.
         14    1    1    2    0    0  0.57034917124E-02 -0.91209613703E-02  0.92286891172E-02  0.14173583063E-01  0.00000000000E+00 0. -1.
     999901    1    3    3    0    0  0.62085279227E-01 -0.73251431607E-01 -0.87417435119E-01  0.88952918001E+00  0.88000000000E+00 0.  1.
        -11    1    4    4    0    0 -0.59758664186E-01  0.52815176423E-01  0.34565476590E-01  0.86922805401E-01  0.51100000000E-03 0. -1.
         11    1    4    4    0    0 -0.80301067533E-02  0.29557216554E-01  0.43623269412E-01  0.53304431524E-01  0.51100000000E-03 0.  1.
</event>
<event>
 8    1  0.2824193E+004  0.1043930E+01  0.7957747E-01            NaN
         13   -1    0    0    0    0  0.00000000000E+00  0.00000000000E+00  0.74505805969E-08  0.10566000000E+00  0.10566000000E+00 0.  1.
     999900   -1    0    0    0    0 -0.00000000000E+00 -0.00000000000E+00 -0.74505805969E-08  0.93827000000E+00  0.93827000000E+00 0.  1.
     999902    2    1    2    0    0 -0.10168489158E-02  0.12074064796E-01  0.53939196947E-02  0.10306668408E+01  0.10305814986E+01 0.  0.
     999903    2    3    3    0    0  0.11840899968E+00  0.94006169829E-02 -0.59432050439E-01  0.14023318968E+00  0.44990177408E-01 0.  0.
         14    1    1    2    0    0  0.10168489158E-02 -0.12074064796E-01 -0.53939196947E-02  0.13263159205E-01  0.00000000000E+00 0. -1.
     999901    1    3    3    0    0 -0.11942584860E+00  0.26734478131E-02  0.64825970134E-01  0.89043365112E+00  0.88000000000E+00 0. -1.
        -11    1    4    4    0    0  0.16285911023E-01  0.16879640592E-01 -0.18816393893E-01  0.30074423760E-01  0.51100000000E-03 0.  1.
         11    1    4    4    0    0  0.10212308866E+00 -0.74790236094E-02 -0.40615656546E-01  0.11015876592E+00  0.51100000000E-03 0. -1.
</event>
<event>
 8    1  0.2824193E+004  0.1043930E+01  0.7957747E-01            NaN
         13   -1    0    0    0    0  0.00000000000E+00  0.00000000000E+00  0.74505805969E-08  0.10566000000E+00  0.10566000000E+00 0.  1.
     999900   -1    0    0    0    0 -0.00000000000E+00 -0.00000000000E+00 -0.74505805969E-08  0.93827000000E+00  0.93827000000E+00 0.  1.
     999902    2    1    2    0    0 -0.10570454655E-02 -0.13791581778E-01 -0.41626242795E-02  0.10294851908E+01  0.10293838475E+01 0.  0.
     999903    2    3    3    0    0  0.37282321732E-01 -0.12506799830E+00  0.29452970893E-01  0.14101326876E+00  0.44556579303E-01 0.  0.
         14    1    1    2    0    0  0.10570454655E-02  0.13791581778E-01  0.41626242795E-02  0.14444809239E-01  0.00000000000E+00 0.  1.
     999901    1    3    3    0    0 -0.38339367198E-01  0.11127641652E+00 -0.33615595172E-01  0.88847192200E+00  0.88000000000E+00 0. -1.
        -11    1    4    4    0    0  0.20342251688E-01 -0.12107600707E-01  0.49916361344E-02  0.24198734490E-01  0.51100000000E-03 0.  1.
         11    1    4    4    0    0  0.16940070045E-01 -0.11296039759E+00  0.24461334758E-01  0.11681453427E+00  0.51100000000E-03 0. -1.
</event>
<event>
 8    1  0.2824193E+004  0.1043930E+01  0.7957747E-01            NaN
         13   -1    0    0    0    0  0.00000000000E+00  0.00000000000E+00  0.74505805969E-08  0.10566000000E+00  0.10566000000E+00 0.  1.
     999900   -1    0    0    0    0 -0.00000000000E+00 -0.00000000000E+00 -0.74505805969E-08  0.93827000000E+00  0.93827000000E+00 0. -1.
     999902    2    1    2    0    0  0.80551420845E-02  0.11495055770E-01  0.62201736724E-02  0.10285770791E+01  0.10284624910E+01 0.  0.
     999903    2    3    3    0    0  0.32370222987E-01  0.99112563859E-01 -0.80758586565E-01  0.13962637422E+00  0.45852409134E-01 0.  0.
         14    1    1    2    0    0 -0.80551420845E-02 -0.11495055770E-01 -0.62201736724E-02  0.15352920949E-01  0.00000000000E+00 0. -1.
     999901    1    3    3    0    0 -0.24315080902E-01 -0.87617508089E-01  0.86978760238E-01  0.88895070483E+00  0.88000000000E+00 0.  1.
        -11    1    4    4    0    0  0.24883018906E-01  0.79284114674E-01 -0.84023835311E-01  0.11817529983E+00  0.51100000000E-03 0. -1.
         11    1    4    4    0    0  0.74872040806E-02  0.19828449185E-01  0.32652487452E-02  0.21451074388E-01  0.51100000000E-03 0.  1.
</event>
<event>
 8    1  0.2824193E+004  0.1043930E+01  0.7957747E-01            NaN
         13   -1    0    0    0    0  0.00000000000E+00  0.00000000000E+00  0.74505805969E-08  0.10566000000E+00  0.10566000000E+00 0.  1.
     999900   -1    0    0    0    0 -0.00000000000E+00 -0.00000000000E+00 -0.74505805969E-08  0.93827000000E+00  0.93827000000E+00 0. -1.
     999902    2    1    2    0    0 -0.84984843737E-03 -0.64534398932E-02  0.10913313780E-01  0.10312229332E+01  0.10311446399E+01 0.  0.
     999903    2    3    3    0    0  0.40306367443E-01 -0.18225521402E-01  0.12770330953E+00  0.14247532049E+00  0.45103312459E-01 0.  0.
         14    1    1    2    0    0  0.84984843737E-03  0.64534398932E-02 -0.10913313780E-01  0.12707066793E-01  0.00000000000E+00 0. -1.
     999901    1    3    3    0    0 -0.41156215880E-01  0.11772081509E-01 -0.11678999575E+00  0.88874761272E+00  0.88000000000E+00 0. -1.
        -11    1    4    4    0    0  0.67577993360E-02  0.80419628492E-02  0.33711781519E-02  0.11043866237E-01  0.51100000000E-03 0.  1.
         11    1    4    4    0    0  0.33548568107E-01 -0.26267484251E-01  0.12433213138E+00  0.13143145425E+00  0.51100000000E-03 0. -1.
</event>
<event>
 8    1  0.2824193E+004  0.1043930E+01  0.7957747E-01            NaN
         13   -1    0    0    0    0  0.00000000000E+00  0.00000000000E+00  0.74505805969E-08  0.10566000000E+00  0.10566000000E+00 0.  1.
     999900   -1    0    0    0    0 -0.00000000000E+00 -0.00000000000E+00 -0.74505805969E-08  0.93827000000E+00  0.93827000000E+00 0.  1.
     999902    2    1    2    0    0  0.98799865750E-02 -0.60033680918E-02  0.80229847834E-02  0.10298579409E+01  0.10297617955E+01 0.  0.
     999903    2    3    3    0    0  0.55116404281E-02 -0.11785121897E+00 -0.60588352395E-01  0.14011834988E+00  0.45198623155E-01 0.  0.
         14    1    1    2    0    0 -0.98799865750E-02  0.60033680918E-02 -0.80229847834E-02  0.14072059124E-01  0.00000000000E+00 0.  1.
     999901    1    3    3    0    0  0.43683461469E-02  0.11184785088E+00  0.68611337178E-01  0.88973959099E+00  0.88000000000E+00 0. -1.
        -11    1    4    4    0    0  0.23048473589E-01 -0.43547828959E-01 -0.31141520930E-01  0.58289801755E-01  0.51100000000E-03 0.  1.
         11    1    4    4    0    0 -0.17536833160E-01 -0.74303390009E-01 -0.29446831465E-01  0.81828548126E-01  0.51100000000E-03 0. -1.
</event>
<event>
 8    1  0.2824193E+004  0.1043930E+01  0.7957747E-01            NaN
         13   -1    0    0    0    0  0.00000000000E+00  0.00000000000E+00  0.74505805969E-08  0.10566000000E+00  0.10566000000E+00 0. -1.
     999900   -1    0    0    0    0 -0.00000000000E+00 -0.00000000000E+00 -0.74505805969E-08  0.93827000000E+00  0.93827000000E+00 0. -1.
     999902    2    1    2    0    0  0.80955670271E-02  0.48490924893E-02 -0.92497834180E-02  0.10307159773E+01  0.10306312703E+01 0.  0.
     999903    2    3    3    0    0 -0.83716128897E-01 -0.14544726718E-01  0.10150124427E+00  0.13882400070E+00  0.41828952539E-01 0.  0.
         14    1    1    2    0    0 -0.80955670271E-02 -0.48490924893E-02  0.92497834180E-02  0.13214022731E-01  0.00000000000E+00 0.  1.
     999901    1    3    3    0    0  0.91811695924E-01  0.19393819208E-01 -0.11075102768E+00  0.89189197657E+00  0.88000000000E+00 0. -1.
        -11    1    4    4    0    0 -0.22139361252E-01  0.14574849439E-01  0.25912120263E-01  0.37071237508E-01  0.51100000000E-03 0. -1.
         11    1    4    4    0    0 -0.61576767645E-01 -0.29119576157E-01  0.75589124002E-01  0.10175276319E+00  0.51100000000E-03 0.  1.
</event>
<event>
 8    1  0.2824193E+004  0.1043930E+01  0.7957747E-01            NaN
         13   -1    0    0    0    0  0.00000000000E+00  0.00000000000E+00  0.74505805969E-08  0.10566000000E+00  0.10566000000E+00 0. -1.
     999900   -1    0    0    0    0 -0.00000000000E+00 -0.00000000000E+00 -0.74505805969E-08  0.93827000000E+00  0.93827000000E+00 0. -1.
     999902    2    1    2    0    0  0.20692749076E-02  0.13800644634E-01 -0.26471249395E-02  0.10297262343E+01  0.10296282681E+01 0.  0.
     999903    2    3    3    0    0  0.13188968858E+00  0.49272558798E-02  0.12932746216E-01  0.14002133418E+00  0.44939406952E-01 0.  0.
         14    1    1    2    0    0 -0.20692749076E-02 -0.13800644634E-01  0.26471249395E-02  0.14203765747E-01  0.00000000000E+00 0. -1.
     999901    1    3    3    0    0 -0.12982041367E+00  0.88733887543E-02 -0.15579871156E-01  0.88970490008E+00  0.88000000000E+00 0.  1.
        -11    1    4    4    0    0  0.93463315661E-01  0.23841976618E-01  0.11769895174E-01  0.97173158726E-01  0.51100000000E-03 0.  1.
         11    1    4    4    0    0  0.38426372914E-01 -0.18914720738E-01  0.11628510427E-02  0.42848175451E-01  0.51100000000E-03 0. -1.
</event>
<event>
 8    1  0.2824193E+004  0.1043930E+01  0.7957747E-01            NaN
         13   -1    0    0    0    0  0.00000000000E+00  0.00000000000E+00  0.74505805969E-08  0.10566000000E+00  0.10566000000E+00 0.  1.
     999900   -1    0    0    0    0 -0.00000000000E+00 -0.00000000000E+00 -0.74505805969E-08  0.93827000000E+00  0.93827000000E+00 0. -1.
     999902    2    1    2    0    0 -0.88681883617E-02 -0.68527812193E-02  0.64917194556E-02  0.10309782512E+01  0.10308968943E+01 0.  0.
     999903    2    3    3    0    0  0.29465741458E-01  0.11324191131E+00  0.62769763224E-01  0.14021484628E+00  0.45035536479E-01 0.  0.
         14    1    1    2    0    0  0.88681883617E-02  0.68527812193E-02 -0.64917194556E-02  0.12951748791E-01  0.00000000000E+00 0. -1.
     999901    1    3    3    0    0 -0.38333929820E-01 -0.12009469253E+00 -0.56278043769E-01  0.89076340493E+00  0.88000000000E+00 0. -1.
        -11    1    4    4    0    0  0.25509672639E-01  0.77551143630E-01  0.19414559091E-01  0.83917277733E-01  0.51100000000E-03 0. -1.
         11    1    4    4    0    0  0.39560688186E-02  0.35690767678E-01  0.43355204133E-01  0.56297568548E-01  0.51100000000E-03 0.  1.
</event>
<event>
 7    1  0.2824193E+004  0.1043930E+01  0.7957747E-01            NaN
         13   -1    0    0    0    0  0.00000000000E+00  0.00000000000E+00  0.74505805969E-08  0.10566000000E+00  0.10566000000E+00 0.  1.
     999900   -1    0    0    0    0 -0.00000000000E+00 -0.00000000000E+00 -0.74505805969E-08  0.93827000000E+00  0.93827000000E+00 0. -1.
     999903    2    1    2    0    0 -0.13769314199E-01 -0.61890502073E-01  0.25521382516E-01  0.82876779979E-01  0.46874208620E-01 0.  0.
         14    1    1    2    0    0  0.48856234481E-01  0.62992830805E-01  0.44605823625E-02  0.79843128543E-01  0.00000000000E+00 0. -1.
     999901    1    1    2    0    0 -0.35086920283E-01 -0.11023287321E-02 -0.29981964879E-01  0.88121009148E+00  0.88000000000E+00 0. -1.
        -11    1    3    3    0    0  0.12477416901E-01 -0.35206958272E-01 -0.37834477109E-03  0.37357999264E-01  0.51100000000E-03 0. -1.
         11    1    3    3    0    0 -0.26246731099E-01 -0.26683543802E-01  0.25899727287E-01  0.45518780715E-01  0.51100000000E-03 0.  1.
</event>
<event>
 8    1  0.2824193E+004  0.1043930E+01  0.7957747E-01            NaN
         13   -1    0    0    0    0  0.00000000000E+00  0.00000000000E+00  0.74505805969E-08  0.10566000000E+00  0.10566000000E+00 0.  1.
     999900   -1    0    0    0    0 -0.00000000000E+00 -0.00000000000E+00 -0.74505805969E-08  0.93827000000E+00  0.93827000000E+00 0. -1.
     999902    2    1    2    0    0 -0.29057918735E-03 -0.13837251620E-01 -0.44909596554E-03  0.10300824134E+01  0.10299893313E+01 0.  0.
     999903    2    3    3    0    0 -0.75454169330E-01 -0.27795873731E-01 -0.10566004188E+00  0.14052423563E+00  0.46011673358E-01 0.  0.
         14    1    1    2    0    0  0.29057918735E-03  0.13837251620E-01  0.44909596554E-03  0.13847586643E-01  0.00000000000E+00 0.  1.
     999901    1    3    3    0    0  0.75163590142E-01  0.13958622112E-01  0.10521094591E+00  0.88955817772E+00  0.88000000000E+00 0.  1.
        -11    1    4    4    0    0 -0.51217056001E-01 -0.27099815585E-01 -0.39686991350E-01  0.70234644112E-01  0.51100000000E-03 0.  1.
         11    1    4    4    0    0 -0.24237113329E-01 -0.69605814695E-03 -0.65973050527E-01  0.70289591522E-01  0.51100000000E-03 0. -1.
</event>
<event>
 8    1  0.2824193E+004  0.1043930E+01  0.7957747E-01            NaN
         13   -1    0    0    0    0  0.00000000000E+00  0.00000000000E+00  0.74505805969E-08  0.10566000000E+00  0.10566000000E+00 0. -1.
     999900   -1    0    0    0    0 -0.00000000000E+00 -0.00000000000E+00 -0.74505805969E-08  0.93827000000E+00  0.93827000000E+00 0. -1.
     999902    2    1    2    0    0  0.62200736641E-02  0.32385703077E-02 -0.16542116355E-01  0.10259628281E+01  0.10258054910E+01 0.  0.
     999903    2    3    3    0    0  0.78572438663E-01  0.24306923228E-01 -0.10136071224E+00  0.13867880678E+00  0.46833351663E-01 0.  0.
         14    1    1    2    0    0 -0.62200736641E-02 -0.32385703077E-02  0.16542116355E-01  0.17967171941E-01  0.00000000000E+00 0. -1.
     999901    1    3    3    0    0 -0.72352364999E-01 -0.21068352920E-01  0.84818595889E-01  0.88728402128E+00  0.88000000000E+00 0.  1.
        -11    1    4    4    0    0  0.42917692979E-01  0.35177754487E-01 -0.73709135994E-01  0.92264297707E-01  0.51100000000E-03 0. -1.
         11    1    4    4    0    0  0.35654745684E-01 -0.10870831258E-01 -0.27651576250E-01  0.46414509069E-01  0.51100000000E-03 0.  1.
</event>
<event>
 8    1  0.2824193E+004  0.1043930E+01  0.7957747E-01            NaN
         13   -1    0    0    0    0  0.00000000000E+00  0.00000000000E+00  0.74505805969E-08  0.10566000000E+00  0.10566000000E+00 0.  1.
     999900   -1    0    0    0    0 -0.00000000000E+00 -0.00000000000E+00 -0.74505805969E-08  0.93827000000E+00  0.93827000000E+00 0.  1.
     999902    2    1    2    0    0 -0.15395365388E-03 -0.10792233159E-01 -0.11576534579E-01  0.10281024243E+01  0.10279805848E+01 0.  0.
     999903    2    3    3    0    0  0.42348555961E-01 -0.91947596131E-01 -0.86080914619E-01  0.14021529249E+00  0.44750907934E-01 0.  0.
         14    1    1    2    0    0  0.15395365388E-03  0.10792233159E-01  0.11576534579E-01  0.15827575655E-01  0.00000000000E+00 0. -1.
     999901    1    3    3    0    0 -0.42502509615E-01  0.81155362972E-01  0.74504380041E-01  0.88788713185E+00  0.88000000000E+00 0.  1.
        -11    1    4    4    0    0  0.26643326172E-01 -0.24761618896E-01 -0.10469391881E-01  0.37853320690E-01  0.51100000000E-03 0. -1.
         11    1    4    4    0    0  0.15705229790E-01 -0.67185977234E-01 -0.75611522738E-01  0.10236197180E+00  0.51100000000E-03 0.  1.
</event>
<event>
 8    1  0.2824193E+004  0.1043930E+01  0.7957747E-01            NaN
         13   -1    0    0    0    0  0.00000000000E+00  0.00000000000E+00  0.74505805969E-08  0.10566000000E+00  0.10566000000E+00 0. -1.
     999900   -1    0    0    0    0 -0.00000000000E+00 -0.00000000000E+00 -0.74505805969E-08  0.93827000000E+00  0.93827000000E+00 0.  1.
     999902    2    1    2    0    0 -0.31431864886E-02 -0.11855345186E-01 -0.57957117828E-02  0.10303646358E+01  0.10302753339E+01 0.  0.
     999903    2    3    3    0    0  0.12860262192E+00 -0.17854037754E-01  0.25147957342E-01  0.13999928775E+00  0.45934516273E-01 0.  0.
         14    1    1    2    0    0  0.31431864886E-02  0.11855345186E-01  0.57957117828E-02  0.13565364199E-01  0.00000000000E+00 0.  1.
     999901    1    3    3    0    0 -0.13174580840E+00  0.59986925683E-02 -0.30943669125E-01  0.89036534805E+00  0.88000000000E+00 0.  1.
        -11    1    4    4    0    0  0.49984583966E-01 -0.29174124832E-01  0.15967244971E-01  0.60040005221E-01  0.51100000000E-03 0. -1.
         11    1    4    4    0    0  0.78618037949E-01  0.11320087077E-01  0.91807123717E-02  0.79959282532E-01  0.51100000000E-03 0.  1.
</event>
<event>
 8    1  0.2824193E+004  0.1043930E+01  0.7957747E-01            NaN
         13   -1    0    0    0    0  0.00000000000E+00  0.00000000000E+00  0.74505805969E-08  0.10566000000E+00  0.10566000000E+00 0.  1.
     999900   -1    0    0    0    0 -0.00000000000E+00 -0.00000000000E+00 -0.74505805969E-08  0.93827000000E+00  0.93827000000E+00 0. -1.
     999902    2    1    2    0    0  0.93013089721E-02 -0.10040531635E-01 -0.14598626801E-02  0.10301656321E+01  0.10300736730E+01 0.  0.
     999903    2    3    3    0    0 -0.97624584693E-01 -0.77163663604E-01  0.46323122739E-01  0.13987249204E+00  0.43973762758E-01 0.  0.
         14    1    1    2    0    0 -0.93013089721E-02  0.10040531635E-01  0.14598626801E-02  0.13764367881E-01  0.00000000000E+00 0.  1.
     999901    1    3    3    0    0  0.10692589367E+00  0.67123131969E-01 -0.47782985419E-01  0.89029314008E+00  0.88000000000E+00 0. -1.
        -11    1    4    4    0    0 -0.55907410303E-01 -0.59807033364E-01  0.11183862338E-01  0.82630863873E-01  0.51100000000E-03 0.  1.
         11    1    4    4    0    0 -0.41717174390E-01 -0.17356630241E-01  0.35139260401E-01  0.57241628165E-01  0.51100000000E-03 0. -1.
</event>
<event>
 8    1  0.2824193E+004  0.1043930E+01  0.7957747E-01            NaN
         13   -1    0    0    0    0  0.00000000000E+00  0.00000000000E+00  0.74505805969E-08  0.10566000000E+00  0.10566000000E+00 0.  1.
     999900   -1    0    0    0    0 -0.00000000000E+00 -0.00000000000E+00 -0.74505805969E-08  0.93827000000E+00  0.93827000000E+00 0. -1.
     999902    2    1    2    0    0  0.33507330009E-02 -0.30950411496E-02 -0.12539627169E-01  0.10305865019E+01  0.10305001160E+01 0.  0.
     999903    2    3    3    0    0 -0.81912098948E-01 -0.99474904770E-01  0.31604673672E-01  0.14013293889E+00  0.45094750592E-01 0.  0.
         14    1    1    2    0    0 -0.33507330009E-02  0.30950411496E-02  0.12539627169E-01  0.13343498075E-01  0.00000000000E+00 0.  1.
     999901    1    3    3    0    0  0.85262831949E-01  0.96379863621E-01 -0.44144300841E-01  0.89045356303E+00  0.88000000000E+00 0. -1.
        -11    1    4    4    0    0 -0.31092518559E-01 -0.37736404061E-01  0.34938320070E-01  0.60097655795E-01  0.51100000000E-03 0.  1.
         11    1    4    4    0    0 -0.50819580389E-01 -0.61738500709E-01 -0.33336463979E-02  0.80035283095E-01  0.51100000000E-03 0. -1.
</event>
<event>
 8    1  0.2824193E+004  0.1043930E+01  0.7957747E-01            NaN
         13   -1    0    0    0    0  0.00000000000E+00  0.00000000000E+00  0.74505805969E-08  0.10566000000E+00  0.10566000000E+00 0. -1.
     999900   -1    0    0    0    0 -0.00000000000E+00 -0.00000000000E+00 -0.74505805969E-08  0.93827000000E+00  0.93827000000E+00 0.  1.
     999902    2    1    2    0    0  0.15822303441E-02 -0.18932886470E-01  0.17936793646E-01  0.10178017354E+01  0.10174663073E+01 0.  0.
     999903    2    3    3    0    0 -0.42138288812E-01  0.79462970609E-01  0.80776191207E-01  0.12901491151E+00  0.45056134381E-01 0.  0.
         14    1    1    2    0    0 -0.15822303441E-02  0.18932886470E-01 -0.17936793646E-01  0.26128264566E-01  0.00000000000E+00 0.  1.
     999901    1    3    3    0    0  0.43720519156E-01 -0.98395857079E-01 -0.62839397561E-01  0.88878682392E+00  0.88000000000E+00 0. -1.
        -11    1    4    4    0    0 -0.17470853656E-01  0.45271838924E-02  0.30562921449E-01  0.35497597242E-01  0.51100000000E-03 0. -1.
         11    1    4    4    0    0 -0.24667435156E-01  0.74935786717E-01  0.50213269757E-01  0.93517314272E-01  0.51100000000E-03 0.  1.
</event>
<event>
 8    1  0.2824193E+004  0.1043930E+01  0.7957747E-01            NaN
         13   -1    0    0    0    0  0.00000000000E+00  0.00000000000E+00  0.74505805969E-08  0.10566000000E+00  0.10566000000E+00 0. -1.
     999900   -1    0    0    0    0 -0.00000000000E+00 -0.00000000000E+00 -0.74505805969E-08  0.93827000000E+00  0.93827000000E+00 0. -1.
     999902    2    1    2    0    0  0.13270518360E-01 -0.17605828917E-02 -0.43223927564E-02  0.10298626837E+01  0.10297666036E+01 0.  0.
     999903    2    3    3    0    0  0.95071414844E-01 -0.93415586318E-01  0.11975134787E-01  0.14117959295E+00  0.44980305973E-01 0.  0.
         14    1    1    2    0    0 -0.13270518360E-01  0.17605828917E-02  0.43223927564E-02  0.14067316333E-01  0.00000000000E+00 0. -1.
     999901    1    3    3    0    0 -0.81800896484E-01  0.91655003426E-01 -0.16297527543E-01  0.88868309071E+00  0.88000000000E+00 0. -1.
        -11    1    4    4    0    0  0.69742162268E-01 -0.49883514870E-01  0.24691908453E-01  0.89231640787E-01  0.51100000000E-03 0. -1.
         11    1    4    4    0    0  0.25329252577E-01 -0.43532071448E-01 -0.12716773667E-01  0.51947952165E-01  0.51100000000E-03 0.  1.
</event>
<event>
 8    1  0.2824193E+004  0.1043930E+01  0.7957747E-01            NaN
         13   -1    0    0    0    0  0.00000000000E+00  0.00000000000E+00  0.74505805969E-08  0.10566000000E+00  0.10566000000E+00 0.  1.
     999900   -1    0    0    0    0 -0.00000000000E+00 -0.00000000000E+00 -0.74505805969E-08  0.93827000000E+00  0.93827000000E+00 0. -1.
     999902    2    1    2    0    0  0.35346441671E-02 -0.67950827076E-02  0.11355676671E-01  0.10302326188E+01  0.10301415585E+01 0.  0.
     999903    2    3    3    0    0 -0.76883049641E-01  0.57336701048E-01 -0.89877342534E-01  0.13847703833E+00  0.43582712570E-01 0.  0.
         14    1    1    2    0    0 -0.35346441671E-02  0.67950827076E-02 -0.11355676671E-01  0.13697381175E-01  0.00000000000E+00 0. -1.
     999901    1    3    3    0    0  0.80417693808E-01 -0.64131783755E-01  0.10123301920E+00  0.89175558049E+00  0.88000000000E+00 0.  1.
        -11    1    4    4    0    0 -0.36664905198E-01  0.44527877011E-01 -0.72944521032E-01  0.92995759978E-01  0.51100000000E-03 0. -1.
         11    1    4    4    0    0 -0.40218144443E-01  0.12808824036E-01 -0.16932821501E-01  0.45481278353E-01  0.51100000000E-03 0.  1.
</event>
<event>
 7    1  0.2824193E+004  0.1043930E+01  0.7957747E-01            NaN
         13   -1    0    0    0    0  0.00000000000E+00  0.00000000000E+00  0.74505805969E-08  0.10566000000E+00  0.10566000000E+00 0. -1.
     999900   -1    0    0    0    0 -0.00000000000E+00 -0.00000000000E+00 -0.74505805969E-08  0.93827000000E+00  0.93827000000E+00 0. -1.
     999903    2    1    2    0    0 -0.26977725159E-02  0.10657488406E+00 -0.44081793434E-01  0.12385773801E+00  0.45078274831E-01 0.  0.
         14    1    1    2    0    0 -0.13129591420E-01 -0.29053104209E-01 -0.13556320374E-01  0.34644521314E-01  0.00000000000E+00 0.  1.
     999901    1    1    2    0    0  0.15827363935E-01 -0.77521779856E-01  0.57638113808E-01  0.88542774068E+00  0.88000000000E+00 0.  1.
        -11    1    3    3    0    0  0.13426342035E-01  0.80126888380E-01 -0.17664161629E-01  0.83143662590E-01  0.51100000000E-03 0. -1.
         11    1    3    3    0    0 -0.16124114551E-01  0.26447995685E-01 -0.26417631806E-01  0.40714075416E-01  0.51100000000E-03 0.  1.
</event>
<event>
 8    1  0.2824193E+004  0.1043930E+01  0.7957747E-01            NaN
         13   -1    0    0    0    0  0.00000000000E+00  0.00000000000E+00  0.74505805969E-08  0.10566000000E+00  0.10566000000E+00 0. -1.
     999900   -1    0    0    0    0 -0.00000000000E+00 -0.00000000000E+00 -0.74505805969E-08  0.93827000000E+00  0.93827000000E+00 0. -1.
     999902    2    1    2    0    0  0.32568418249E-02 -0.66970614520E-02 -0.11452529069E-01  0.10302691774E+01  0.10301786058E+01 0.  0.
     999903    2    3    3    0    0  0.61338547707E-01  0.93730809896E-02  0.11603543912E+00  0.13904254181E+00  0.44925863574E-01 0.  0.
         14    1    1    2    0    0 -0.32568418249E-02  0.66970614520E-02  0.11452529069E-01  0.13660822554E-01  0.00000000000E+00 0. -1.
     999901    1    3    3    0    0 -0.58081705882E-01 -0.16070142442E-01 -0.12748796819E+00  0.89122663564E+00  0.88000000000E+00 0. -1.
        -11    1    4    4    0    0  0.60543305040E-02  0.13866566585E-01  0.52794633666E-01  0.54922409376E-01  0.51100000000E-03 0.  1.
         11    1    4    4    0    0  0.55284217203E-01 -0.44934855954E-02  0.63240805458E-01  0.84120132433E-01  0.51100000000E-03 0. -1.
</event>
<event>
 7    1  0.2824193E+004  0.1043930E+01  0.7957747E-01            NaN
         13   -1    0    0    0    0  0.00000000000E+00  0.00000000000E+00  0.74505805969E-08  0.10566000000E+00  0.10566000000E+00 0.  1.
     999900   -1    0    0    0    0 -0.00000000000E+00 -0.00000000000E+00 -0.74505805969E-08  0.93827000000E+00  0.93827000000E+00 0.  1.
     999903    2    1    2    0    0 -0.10032718153E+00 -0.56989843939E-01  0.18840718515E-01  0.12502449231E+00  0.44303107539E-01 0.  0.
         14    1    1    2    0    0  0.10073443785E-01 -0.26079887150E-01 -0.11862271050E-01  0.30370186992E-01  0.00000000000E+00 0. -1.
     999901    1    1    2    0    0  0.90253737742E-01  0.83069731090E-01 -0.69784474653E-02  0.88853532070E+00  0.88000000000E+00 0.  1.
        -11    1    3    3    0    0 -0.54395629502E-01 -0.29660941852E-01 -0.12295752299E-01  0.63167259130E-01  0.51100000000E-03 0.  1.
         11    1    3    3    0    0 -0.45931552025E-01 -0.27328902088E-01  0.31136470815E-01  0.61857233179E-01  0.51100000000E-03 0. -1.
</event>
<event>
 8    1  0.2824193E+004  0.1043930E+01  0.7957747E-01            NaN
         13   -1    0    0    0    0  0.00000000000E+00  0.00000000000E+00  0.74505805969E-08  0.10566000000E+00  0.10566000000E+00 0.  1.
     999900   -1    0    0    0    0 -0.00000000000E+00 -0.00000000000E+00 -0.74505805969E-08  0.93827000000E+00  0.93827000000E+00 0.  1.
     999902    2    1    2    0    0 -0.10646951902E-01 -0.10861410408E-01 -0.98584470342E-02  0.10258049676E+01  0.10256448288E+01 0.  0.
     999903    2    3    3    0    0  0.71405139405E-01  0.10190523535E+00  0.22736353596E-01  0.13422699396E+00  0.44906271375E-01 0.  0.
         14    1    1    2    0    0  0.10646951902E-01  0.10861410408E-01  0.98584470342E-02  0.18125032380E-01  0.00000000000E+00 0.  1.
     999901    1    3    3    0    0 -0.82052091306E-01 -0.11276664576E+00 -0.32594800630E-01  0.89157797366E+00  0.88000000000E+00 0.  1.
        -11    1    4    4    0    0 -0.15147078580E-02  0.72710436856E-02  0.12200944412E-01  0.14292885703E-01  0.51100000000E-03 0.  1.
         11    1    4    4    0    0  0.72919847263E-01  0.94634191662E-01  0.10535409183E-01  0.11993410826E+00  0.51100000000E-03 0. -1.
</event>
<event>
 8    1  0.2824193E+004  0.1043930E+01  0.7957747E-01            NaN
         13   -1    0    0    0    0  0.00000000000E+00  0.00000000000E+00  0.74505805969E-08  0.10566000000E+00  0.10566000000E+00 0. -1.
     999900   -1    0    0    0    0 -0.00000000000E+00 -0.00000000000E+00 -0.74505805969E-08  0.93827000000E+00  0.93827000000E+00 0.  1.
     999902    2    1    2    0    0  0.60170545611E-02 -0.51067015608E-02  0.11485584165E-01  0.10299943626E+01  0.10299000849E+01 0.  0.
     999903    2    3    3    0    0 -0.62770951653E-01 -0.64611594537E-01 -0.99920732226E-01  0.13831953990E+00  0.32144857588E-01 0.  0.
         14    1    1    2    0    0 -0.60170545611E-02  0.51067015608E-02 -0.11485584165E-01  0.13935637411E-01  0.00000000000E+00 0.  1.
     999901    1    3    3    0    0  0.68788006214E-01  0.59504892977E-01  0.11140631639E+00  0.89167482269E+00  0.88000000000E+00 0. -1.
        -11    1    4    4    0    0 -0.64556976081E-01 -0.52013119323E-01 -0.86072493190E-01  0.11950607912E+00  0.51100000000E-03 0. -1.
         11    1    4    4    0    0  0.17860244279E-02 -0.12598475215E-01 -0.13848239036E-01  0.18813460777E-01  0.51100000000E-03 0.  1.
</event>
<event>
 8    1  0.2824193E+004  0.1043930E+01  0.7957747E-01            NaN
         13   -1    0    0    0    0  0.00000000000E+00  0.00000000000E+00  0.74505805969E-08  0.10566000000E+00  0.10566000000E+00 0. -1.
     999900   -1    0    0    0    0 -0.00000000000E+00 -0.00000000000E+00 -0.74505805969E-08  0.93827000000E+00  0.93827000000E+00 0. -1.
     999902    2    1    2    0    0  0.11036336107E-01  0.63071329769E-02  0.48546351302E-02  0.10303230855E+01  0.10302332320E+01 0.  0.
     999903    2    3    3    0    0 -0.11857286023E+00 -0.50673792589E-01  0.24917828798E-01  0.13878065720E+00  0.44853273927E-01 0.  0.
         14    1    1    2    0    0 -0.11036336107E-01 -0.63071329769E-02 -0.48546351302E-02  0.13606914540E-01  0.00000000000E+00 0.  1.
     999901    1    3    3    0    0  0.12960919634E+00  0.56980925566E-01 -0.20063193668E-01  0.89154242826E+00  0.88000000000E+00 0. -1.
        -11    1    4    4    0    0 -0.10999019678E+00 -0.31958444844E-01  0.13779809697E-01  0.11536606893E+00  0.51100000000E-03 0.  1.
         11    1    4    4    0    0 -0.85826634462E-02 -0.18715347744E-01  0.11138019101E-01  0.23414588263E-01  0.51100000000E-03 0. -1.
</event>
<event>
 8    1  0.2824193E+004  0.1043930E+01  0.7957747E-01            NaN
         13   -1    0    0    0    0  0.00000000000E+00  0.00000000000E+00  0.74505805969E-08  0.10566000000E+00  0.10566000000E+00 0. -1.
     999900   -1    0    0    0    0 -0.00000000000E+00 -0.00000000000E+00 -0.74505805969E-08  0.93827000000E+00  0.93827000000E+00 0. -1.
     999902    2    1    2    0    0 -0.29920354536E-02 -0.15344332794E-02  0.12886049458E-01  0.10306124540E+01  0.10305264059E+01 0.  0.
     999903    2    3    3    0    0 -0.36081033887E-01 -0.10586420947E+00 -0.70951567211E-01  0.13987774038E+00  0.44973164356E-01 0.  0.
         14    1    1    2    0    0  0.29920354536E-02  0.15344332794E-02 -0.12886049458E-01  0.13317546030E-01  0.00000000000E+00 0.  1.
     999901    1    3    3    0    0  0.33088998433E-01  0.10432977619E+00  0.83837616669E-01  0.89073471359E+00  0.88000000000E+00 0.  1.
        -11    1    4    4    0    0 -0.25321331344E-01 -0.80540606435E-01 -0.28160161257E-01  0.89001207346E-01  0.51100000000E-03 0. -1.
         11    1    4    4    0    0 -0.10759702543E-01 -0.25323603035E-01 -0.42791405954E-01  0.50876533038E-01  0.51100000000E-03 0.  1.
</event>
<event>
 8    1  0.2824193E+004  0.1043930E+01  0.7957747E-01            NaN
         13   -1    0    0    0    0  0.00000000000E+00  0.00000000000E+00  0.74505805969E-08  0.10566000000E+00  0.10566000000E+00 0.  1.
     999900   -1    0    0    0    0 -0.00000000000E+00 -0.00000000000E+00 -0.74505805969E-08  0.93827000000E+00  0.93827000000E+00 0.  1.
     999902    2    1    2    0    0  0.12878023434E-01 -0.53399450635E-02 -0.20084012713E-03  0.10299873016E+01  0.10298929278E+01 0.  0.
     999903    2    3    3    0    0 -0.76373201222E-01  0.86912613425E-01 -0.62000017913E-01  0.13853037389E+00  0.44271819845E-01 0.  0.
         14    1    1    2    0    0 -0.12878023434E-01  0.53399450635E-02  0.20084012713E-03  0.13942698362E-01  0.00000000000E+00 0.  1.
     999901    1    3    3    0    0  0.89251224656E-01 -0.92252558489E-01  0.61799177786E-01  0.89145692775E+00  0.88000000000E+00 0. -1.
        -11    1    4    4    0    0 -0.15770408336E-01  0.25027946588E-01 -0.38922303125E-01  0.48890803747E-01  0.51100000000E-03 0.  1.
         11    1    4    4    0    0 -0.60602792886E-01  0.61884666838E-01 -0.23077714788E-01  0.89639570146E-01  0.51100000000E-03 0. -1.
</event>
<event>
 8    1  0.2824193E+004  0.1043930E+01  0.7957747E-01            NaN
         13   -1    0    0    0    0  0.00000000000E+00  0.00000000000E+00  0.74505805969E-08  0.10566000000E+00  0.10566000000E+00 0. -1.
     999900   -1    0    0    0    0 -0.00000000000E+00 -0.00000000000E+00 -0.74505805969E-08  0.93827000000E+00  0.93827000000E+00 0. -1.
     999902    2    1    2    0    0  0.11960495191E-01  0.44460270808E-02  0.56268040961E-02  0.10299843366E+01  0.10298899224E+01 0.  0.
     999903    2    3    3    0    0  0.45205665010E-01  0.11598127312E+00 -0.48034847769E-01  0.14070095925E+00  0.44656527746E-01 0.  0.
         14    1    1    2    0    0 -0.11960495191E-01 -0.44460270808E-02 -0.56268040961E-02  0.13945663353E-01  0.00000000000E+00 0.  1.
     999901    1    3    3    0    0 -0.33245169819E-01 -0.11153524604E+00  0.53661651865E-01  0.88928337739E+00  0.88000000000E+00 0. -1.
        -11    1    4    4    0    0  0.36219822269E-01  0.46703043569E-01 -0.37638586598E-01  0.70071207538E-01  0.51100000000E-03 0.  1.
         11    1    4    4    0    0  0.89858427411E-02  0.69278229555E-01 -0.10396261171E-01  0.70629751716E-01  0.51100000000E-03 0. -1.
</event>
<event>
 8    1  0.2824193E+004  0.1043930E+01  0.7957747E-01            NaN
         13   -1    0    0    0    0  0.00000000000E+00  0.00000000000E+00  0.74505805969E-08  0.10566000000E+00  0.10566000000E+00 0.  1.
     999900   -1    0    0    0    0 -0.00000000000E+00 -0.00000000000E+00 -0.74505805969E-08  0.93827000000E+00  0.93827000000E+00 0.  1.
     999902    2    1    2    0    0 -0.27392317281E-02 -0.75934187494E-03  0.16382420726E-01  0.10273028024E+01  0.10271682356E+01 0.  0.
     999903    2    3    3    0    0 -0.24289300527E-01  0.12554914947E+00  0.24460549793E-01  0.13798649389E+00  0.45709899884E-01 0.  0.
         14    1    1    2    0    0  0.27392317281E-02  0.75934187494E-03 -0.16382420726E-01  0.16627197580E-01  0.00000000000E+00 0. -1.
     999901    1    3    3    0    0  0.21550068799E-01 -0.12630849134E+00 -0.80781290674E-02  0.88931630853E+00  0.88000000000E+00 0.  1.
        -11    1    4    4    0    0 -0.26512540716E-01  0.29518615114E-01  0.90707654509E-02  0.40703849454E-01  0.51100000000E-03 0.  1.
         11    1    4    4    0    0  0.22232401894E-02  0.96030534353E-01  0.15389784342E-01  0.97282644435E-01  0.51100000000E-03 0. -1.
</event>
<event>
 8    1  0.2824193E+004  0.1043930E+01  0.7957747E-01            NaN
         13   -1    0    0    0    0  0.00000000000E+00  0.00000000000E+00  0.74505805969E-08  0.10566000000E+00  0.10566000000E+00 0. -1.
     999900   -1    0    0    0    0 -0.00000000000E+00 -0.00000000000E+00 -0.74505805969E-08  0.93827000000E+00  0.93827000000E+00 0. -1.
     999902    2    1    2    0    0 -0.88940947364E-02  0.71303513666E-03  0.18869636859E-01  0.10230571340E+01  0.10228441831E+01 0.  0.
     999903    2    3    3    0    0  0.51879741865E-01  0.11287264705E+00  0.20532571151E-01  0.13385749211E+00  0.45436765385E-01 0.  0.
         14    1    1    2    0    0  0.88940947364E-02 -0.71303513666E-03 -0.18869636859E-01  0.20872866010E-01  0.00000000000E+00 0.  1.
     999901    1    3    3    0    0 -0.60773836601E-01 -0.11215961192E+00 -0.16629342917E-02  0.88919964188E+00  0.88000000000E+00 0. -1.
        -11    1    4    4    0    0  0.49816147684E-01  0.90079159950E-01  0.32603527339E-01  0.10797756593E+00  0.51100000000E-03 0. -1.
         11    1    4    4    0    0  0.20635941803E-02  0.22793487102E-01 -0.12070956188E-01  0.25879926189E-01  0.51100000000E-03 0.  1.
</event>
<event>
 8    1  0.2824193E+004  0.1043930E+01  0.7957747E-01            NaN
         13   -1    0    0    0    0  0.00000000000E+00  0.00000000000E+00  0.74505805969E-08  0.10566000000E+00  0.10566000000E+00 0.  1.
     999900   -1    0    0    0    0 -0.00000000000E+00 -0.00000000000E+00 -0.74505805969E-08  0.93827000000E+00  0.93827000000E+00 0.  1.
     999902    2    1    2    0    0 -0.11274816237E-01  0.75780172173E-02 -0.30511304520E-02  0.10300067381E+01  0.10299126289E+01 0.  0.
     999903    2    3    3    0    0 -0.11137567973E+00 -0.61908024874E-01 -0.40055161348E-01  0.14083982953E+00  0.44657541950E-01 0.  0.
         14    1    1    2    0    0  0.11274816237E-01 -0.75780172173E-02  0.30511304520E-02  0.13923261944E-01  0.00000000000E+00 0.  1.
     999901    1    3    3    0    0  0.10010086349E+00  0.69486042091E-01  0.37004030896E-01  0.88916690853E+00  0.88000000000E+00 0. -1.
        -11    1    4    4    0    0 -0.94619409404E-01 -0.57172020585E-01 -0.49382166180E-01  0.12107985807E+00  0.51100000000E-03 0. -1.
         11    1    4    4    0    0 -0.16756270322E-01 -0.47360042890E-02  0.93270048327E-02  0.19759971455E-01  0.51100000000E-03 0.  1.
</event>
<event>
 8    1  0.2824193E+004  0.1043930E+01  0.7957747E-01            NaN
         13   -1    0    0    0    0  0.00000000000E+00  0.00000000000E+00  0.74505805969E-08  0.10566000000E+00  0.10566000000E+00 0.  1.
     999900   -1    0    0    0    0 -0.00000000000E+00 -0.00000000000E+00 -0.74505805969E-08  0.93827000000E+00  0.93827000000E+00 0.  1.
     999902    2    1    2    0    0  0.34622527255E-02 -0.92026210602E-02 -0.10178335749E-01  0.10297781822E+01  0.10296809363E+01 0.  0.
     999903    2    3    3    0    0  0.70725717097E-01 -0.10529828809E+00  0.41940071473E-01  0.14046660619E+00  0.43382500237E-01 0.  0.
         14    1    1    2    0    0 -0.34622527255E-02  0.92026210602E-02  0.10178335749E-01  0.14151817796E-01  0.00000000000E+00 0. -1.
     999901    1    3    3    0    0 -0.67263464371E-01  0.96095667026E-01 -0.52118407223E-01  0.88931157601E+00  0.88000000000E+00 0. -1.
        -11    1    4    4    0    0  0.15220188166E-01 -0.19697008755E-02  0.11789166594E-01  0.19359220524E-01  0.51100000000E-03 0. -1.
         11    1    4    4    0    0  0.55505528931E-01 -0.10332858721E+00  0.30150904880E-01  0.12110738567E+00  0.51100000000E-03 0.  1.
</event>
<event>
 8    1  0.2824193E+004  0.1043930E+01  0.7957747E-01            NaN
         13   -1    0    0    0    0  0.00000000000E+00  0.00000000000E+00  0.74505805969E-08  0.10566000000E+00  0.10566000000E+00 0. -1.
     999900   -1    0    0    0    0 -0.00000000000E+00 -0.00000000000E+00 -0.74505805969E-08  0.93827000000E+00  0.93827000000E+00 0.  1.
     999902    2    1    2    0    0  0.29377670507E-03 -0.15975101933E-01 -0.13064045330E-03  0.10279516630E+01  0.10278274730E+01 0.  0.
     999903    2    3    3    0    0  0.13029929143E+00 -0.90449549641E-02  0.79123452331E-02  0.13833705519E+00  0.44886736079E-01 0.  0.
         14    1    1    2    0    0 -0.29377670507E-03  0.15975101933E-01  0.13064045330E-03  0.15978337006E-01  0.00000000000E+00 0. -1.
     999901    1    3    3    0    0 -0.13000551472E+00 -0.69301469693E-02 -0.80429856864E-02  0.88961460780E+00  0.88000000000E+00 0.  1.
        -11    1    4    4    0    0  0.28861127970E-01  0.16193740314E-01  0.68520334533E-02  0.33799606751E-01  0.51100000000E-03 0. -1.
         11    1    4    4    0    0  0.10143816346E+00 -0.25238695278E-01  0.10603117799E-02  0.10453744844E+00  0.51100000000E-03 0.  1.
</event>
<event>
 8    1  0.2824193E+004  0.1043930E+01  0.7957747E-01            NaN
         13   -1    0    0    0    0  0.00000000000E+00  0.00000000000E+00  0.74505805969E-08  0.10566000000E+00  0.10566000000E+00 0. -1.
     999900   -1    0    0    0    0 -0.00000000000E+00 -0.00000000000E+00 -0.74505805969E-08  0.93827000000E+00  0.93827000000E+00 0. -1.
     999902    2    1    2    0    0 -0.11100357375E-03  0.17287861722E-01 -0.39274740962E-03  0.10266373213E+01  0.10264916721E+01 0.  0.
     999903    2    3    3    0    0  0.10329624795E+00 -0.64901588411E-01 -0.40168687488E-01  0.13589028049E+00  0.44388217547E-01 0.  0.
         14    1    1    2    0    0  0.11100357375E-03 -0.17287861722E-01  0.39274740962E-03  0.17292678660E-01  0.00000000000E+00 0. -1.
     999901    1    3    3    0    0 -0.10340725152E+00  0.82189450133E-01  0.39775940078E-01  0.89074704085E+00  0.88000000000E+00 0. -1.
        -11    1    4    4    0    0  0.86276800856E-01 -0.39415439047E-01 -0.44780906226E-01  0.10489448930E+00  0.51100000000E-03 0.  1.
         11    1    4    4    0    0  0.17019447095E-01 -0.25486149364E-01  0.46122187379E-02  0.30995791190E-01  0.51100000000E-03 0. -1.
</event>
<event>
 8    1  0.2824193E+004  0.1043930E+01  0.7957747E-01            NaN
         13   -1    0    0    0    0  0.00000000000E+00  0.00000000000E+00  0.74505805969E-08  0.10566000000E+00  0.10566000000E+00 0.  1.
     999900   -1    0    0    0    0 -0.00000000000E+00 -0.00000000000E+00 -0.74505805969E-08  0.93827000000E+00  0.93827000000E+00 0. -1.
     999902    2    1    2    0    0  0.34720876755E-02 -0.94152206204E-02 -0.66881485235E-02  0.10318704352E+01  0.10317999622E+01 0.  0.
     999903    2    3    3    0    0  0.72398939298E-01 -0.11400163777E+00  0.70306997664E-02  0.14289493706E+00  0.46168739109E-01 0.  0.
         14    1    1    2    0    0 -0.34720876755E-02  0.94152206204E-02  0.66881485235E-02  0.12059564786E-01  0.00000000000E+00 0.  1.
     999901    1    3    3    0    0 -0.68926851623E-01  0.10458641715E+00 -0.13718848290E-01  0.88897549816E+00  0.88000000000E+00 0. -1.
        -11    1    4    4    0    0  0.26115181501E-01 -0.81749347975E-01  0.10001776901E-01  0.86401708671E-01  0.51100000000E-03 0.  1.
         11    1    4    4    0    0  0.46283757797E-01 -0.32252289796E-01 -0.29710771345E-02  0.56493228384E-01  0.51100000000E-03 0. -1.
</event>
<event>
 8    1  0.2824193E+004  0.1043930E+01  0.7957747E-01            NaN
         13   -1    0    0    0    0  0.00000000000E+00  0.00000000000E+00  0.74505805969E-08  0.10566000000E+00  0.10566000000E+00 0. -1.
     999900   -1    0    0    0    0 -0.00000000000E+00 -0.00000000000E+00 -0.74505805969E-08  0.93827000000E+00  0.93827000000E+00 0. -1.
     999902    2    1    2    0    0  0.39324956760E-02  0.10463153318E-01 -0.70866506232E-02  0.10306950948E+01  0.10306101182E+01 0.  0.
     999903    2    3    3    0    0  0.10619822831E-01 -0.41652116160E-02 -0.13389646476E+00  0.14145978374E+00  0.44186847773E-01 0.  0.
         14    1    1    2    0    0 -0.39324956760E-02 -0.10463153318E-01  0.70866506232E-02  0.13234905238E-01  0.00000000000E+00 0. -1.
     999901    1    3    3    0    0 -0.66873271552E-02  0.14628364934E-01  0.12680981414E+00  0.88923531102E+00  0.88000000000E+00 0.  1.
        -11    1    4    4    0    0 -0.13984073599E-02 -0.23052378701E-01 -0.62395445453E-01  0.66534355345E-01  0.51100000000E-03 0.  1.
         11    1    4    4    0    0  0.12018230191E-01  0.18887167085E-01 -0.71501019307E-01  0.74925428396E-01  0.51100000000E-03 0. -1.
</event>
<event>
 8    1  0.2824193E+004  0.1043930E+01  0.7957747E-01            NaN
         13   -1    0    0    0    0  0.00000000000E+00  0.00000000000E+00  0.74505805969E-08  0.10566000000E+00  0.10566000000E+00 0. -1.
     999900   -1    0    0    0    0 -0.00000000000E+00 -0.00000000000E+00 -0.74505805969E-08  0.93827000000E+00  0.93827000000E+00 0. -1.
     999902    2    1    2    0    0  0.34926579015E-02 -0.27705030057E-03 -0.89760658071E-02  0.10342943800E+01  0.10342494957E+01 0.  0.
     999903    2    3    3    0    0  0.21879560806E-01 -0.13453684090E+00  0.14338462990E-01  0.14361635912E+00  0.42909093967E-01 0.  0.
         14    1    1    2    0    0 -0.34926579015E-02  0.27705030057E-03  0.89760658071E-02  0.96356200350E-02  0.00000000000E+00 0. -1.
     999901    1    3    3    0    0 -0.18386902904E-01  0.13425979060E+00 -0.23314528797E-01  0.89067802085E+00  0.88000000000E+00 0. -1.
        -11    1    4    4    0    0  0.30434604193E-01 -0.54970708584E-01  0.46871971874E-02  0.63010117228E-01  0.51100000000E-03 0.  1.
         11    1    4    4    0    0 -0.85550433873E-02 -0.79566132314E-01  0.96512658026E-02  0.80606241888E-01  0.51100000000E-03 0. -1.
</event>
<event>
 8    1  0.2824193E+004  0.1043930E+01  0.7957747E-01            NaN
         13   -1    0    0    0    0  0.00000000000E+00  0.00000000000E+00  0.74505805969E-08  0.10566000000E+00  0.10566000000E+00 0.  1.
     999900   -1    0    0    0    0 -0.00000000000E+00 -0.00000000000E+00 -0.74505805969E-08  0.93827000000E+00  0.93827000000E+00 0. -1.
     999902    2    1    2    0    0 -0.87249193546E-05  0.68535096849E-02  0.13613684060E-01  0.10286885084E+01  0.10285755900E+01 0.  0.
     999903    2    3    3    0    0  0.32877830938E-01 -0.91139048590E-01  0.89801838463E-01  0.13936927335E+00  0.44408852932E-01 0.  0.
         14    1    1    2    0    0  0.87249193545E-05 -0.68535096849E-02 -0.13613684060E-01  0.15241491554E-01  0.00000000000E+00 0. -1.
     999901    1    3    3    0    0 -0.32886555857E-01  0.97992558274E-01 -0.76188154404E-01  0.88931923509E+00  0.88000000000E+00 0. -1.
        -11    1    4    4    0    0 -0.59634649788E-02 -0.48303147736E-01  0.43774810500E-01  0.65461837364E-01  0.51100000000E-03 0.  1.
         11    1    4    4    0    0  0.38841295917E-01 -0.42835900854E-01  0.46027027963E-01  0.73907435990E-01  0.51100000000E-03 0. -1.
</event>
<event>
 8    1  0.2824193E+004  0.1043930E+01  0.7957747E-01            NaN
         13   -1    0    0    0    0  0.00000000000E+00  0.00000000000E+00  0.74505805969E-08  0.10566000000E+00  0.10566000000E+00 0. -1.
     999900   -1    0    0    0    0 -0.00000000000E+00 -0.00000000000E+00 -0.74505805969E-08  0.93827000000E+00  0.93827000000E+00 0. -1.
     999902    2    1    2    0    0  0.58890454324E-02 -0.25763616526E-02 -0.10792089361E-01  0.10313686431E+01  0.10312921459E+01 0.  0.
     999903    2    3    3    0    0  0.98914113501E-02  0.11244307715E+00  0.63539366889E-01  0.14076735425E+00  0.55108177801E-01 0.  0.
         14    1    1    2    0    0 -0.58890454324E-02  0.25763616526E-02  0.10792089361E-01  0.12561356943E-01  0.00000000000E+00 0. -1.
     999901    1    3    3    0    0 -0.40023659178E-02 -0.11501943880E+00 -0.74331456250E-01  0.89060128881E+00  0.88000000000E+00 0. -1.
        -11    1    4    4    0    0  0.27856758448E-02  0.86153392418E-01  0.18547179133E-01  0.88172705469E-01  0.51100000000E-03 0.  1.
         11    1    4    4    0    0  0.71057355053E-02  0.26289684733E-01  0.44992187755E-01  0.52594648781E-01  0.51100000000E-03 0. -1.
</event>
<event>
 8    1  0.2824193E+004  0.1043930E+01  0.7957747E-01            NaN
         13   -1    0    0    0    0  0.00000000000E+00  0.00000000000E+00  0.74505805969E-08  0.10566000000E+00  0.10566000000E+00 0. -1.
     999900   -1    0    0    0    0 -0.00000000000E+00 -0.00000000000E+00 -0.74505805969E-08  0.93827000000E+00  0.93827000000E+00 0.  1.
     999902    2    1    2    0    0 -0.76659703716E-02 -0.99029846714E-02 -0.24916177088E-02  0.10311611173E+01  0.10310820556E+01 0.  0.
     999903    2    3    3    0    0 -0.21433794962E-02  0.73588701658E-01  0.11051418241E+00  0.13999801685E+00  0.44341505626E-01 0.  0.
         14    1    1    2    0    0  0.76659703716E-02  0.99029846714E-02  0.24916177088E-02  0.12768882721E-01  0.00000000000E+00 0. -1.
     999901    1    3    3    0    0 -0.55225908754E-02 -0.83491686329E-01 -0.11300580012E+00  0.89116310042E+00  0.88000000000E+00 0.  1.
        -11    1    4    4    0    0 -0.44839292188E-02  0.93599629322E-02  0.52164180849E-01  0.53189072298E-01  0.51100000000E-03 0. -1.
         11    1    4    4    0    0  0.23405497226E-02  0.64228738726E-01  0.58350001566E-01  0.86808944557E-01  0.51100000000E-03 0.  1.
</event>
<event>
 8    1  0.2824193E+004  0.1043930E+01  0.7957747E-01            NaN
         13   -1    0    0    0    0  0.00000000000E+00  0.00000000000E+00  0.74505805969E-08  0.10566000000E+00  0.10566000000E+00 0.  1.
     999900   -1    0    0    0    0 -0.00000000000E+00 -0.00000000000E+00 -0.74505805969E-08  0.93827000000E+00  0.93827000000E+00 0. -1.
     999902    2    1    2    0    0  0.12429864767E-01  0.52550205040E-02 -0.28141292779E-02  0.10301446417E+01  0.10300524000E+01 0.  0.
     999903    2    3    3    0    0  0.39815659455E-01  0.12298613541E+00  0.34543629382E-01  0.14109672442E+00  0.44767701201E-01 0.  0.
         14    1    1    2    0    0 -0.12429864767E-01 -0.52550205040E-02  0.28141292779E-02  0.13785358255E-01  0.00000000000E+00 0.  1.
     999901    1    3    3    0    0 -0.27385794687E-01 -0.11773111490E+00 -0.37357758660E-01  0.88904791732E+00  0.88000000000E+00 0.  1.
        -11    1    4    4    0    0 -0.78892019975E-02  0.37633407582E-01  0.15595179936E-01  0.41496790630E-01  0.51100000000E-03 0. -1.
         11    1    4    4    0    0  0.47704861452E-01  0.85352727826E-01  0.18948449446E-01  0.99599933790E-01  0.51100000000E-03 0.  1.
</event>
<event>
 8    1  0.2824193E+004  0.1043930E+01  0.7957747E-01            NaN
         13   -1    0    0    0    0  0.00000000000E+00  0.00000000000E+00  0.74505805969E-08  0.10566000000E+00  0.10566000000E+00 0. -1.
     999900   -1    0    0    0    0 -0.00000000000E+00 -0.00000000000E+00 -0.74505805969E-08  0.93827000000E+00  0.93827000000E+00 0. -1.
     999902    2    1    2    0    0  0.11920404865E-01 -0.89547831904E-02  0.13176997728E-01  0.10240323252E+01  0.10238389940E+01 0.  0.
     999903    2    3    3    0    0 -0.24858486791E-01 -0.12497762785E+00  0.43888273648E-02  0.13561169322E+00  0.46194347082E-01 0.  0.
         14    1    1    2    0    0 -0.11920404865E-01  0.89547831904E-02 -0.13176997728E-01  0.19897674820E-01  0.00000000000E+00 0.  1.
     999901    1    3    3    0    0  0.36778891656E-01  0.11602284466E+00  0.87881703629E-02  0.88842063196E+00  0.88000000000E+00 0.  1.
        -11    1    4    4    0    0 -0.33103411799E-01 -0.69992132257E-01 -0.10279827150E-01  0.78106788551E-01  0.51100000000E-03 0. -1.
         11    1    4    4    0    0  0.82449250082E-02 -0.54985495598E-01  0.14668654515E-01  0.57504904667E-01  0.51100000000E-03 0.  1.
</event>
<event>
 8    1  0.2824193E+004  0.1043930E+01  0.7957747E-01            NaN
         13   -1    0    0    0    0  0.00000000000E+00  0.00000000000E+00  0.74505805969E-08  0.10566000000E+00  0.10566000000E+00 0. -1.
     999900   -1    0    0    0    0 -0.00000000000E+00 -0.00000000000E+00 -0.74505805969E-08  0.93827000000E+00  0.93827000000E+00 0.  1.
     999902    2    1    2    0    0  0.12774165184E-01 -0.72832181993E-02  0.33141069230E-02  0.10288565841E+01  0.10287461605E+01 0.  0.
     999903    2    3    3    0    0  0.76520435835E-01 -0.10798705755E+00 -0.15838218461E-01  0.14061581611E+00  0.44781434514E-01 0.  0.
         14    1    1    2    0    0 -0.12774165184E-01  0.72832181993E-02 -0.33141069230E-02  0.15073415943E-01  0.00000000000E+00 0. -1.
     999901    1    3    3    0    0 -0.63746270651E-01  0.10070383935E+00  0.19152325384E-01  0.88824076795E+00  0.88000000000E+00 0. -1.
        -11    1    4    4    0    0  0.16758582628E-01 -0.55254771342E-01  0.57875804397E-02  0.58031862421E-01  0.51100000000E-03 0. -1.
         11    1    4    4    0    0  0.59761853207E-01 -0.52732286206E-01 -0.21625798900E-01  0.82583953685E-01  0.51100000000E-03 0.  1.
</event>
<event>
 8    1  0.2824193E+004  0.1043930E+01  0.7957747E-01            NaN
         13   -1    0    0    0    0  0.00000000000E+00  0.00000000000E+00  0.74505805969E-08  0.10566000000E+00  0.10566000000E+00 0. -1.
     999900   -1    0    0    0    0 -0.00000000000E+00 -0.00000000000E+00 -0.74505805969E-08  0.93827000000E+00  0.93827000000E+00 0.  1.
     999902    2    1    2    0    0 -0.13016528291E-01 -0.40537916828E-02  0.30788563470E-02  0.10299534986E+01  0.10298586634E+01 0.  0.
     999903    2    3    3    0    0 -0.65286740209E-02 -0.26948700651E-01  0.12855251633E+00  0.14073479181E+00  0.50116625167E-01 0.  0.
         14    1    1    2    0    0  0.13016528291E-01  0.40537916828E-02 -0.30788563470E-02  0.13976501428E-01  0.00000000000E+00 0. -1.
     999901    1    3    3    0    0 -0.64878542702E-02  0.22894908968E-01 -0.12547365999E+00  0.88921870676E+00  0.88000000000E+00 0.  1.
        -11    1    4    4    0    0 -0.28220730756E-01 -0.18146542623E-01  0.82732766293E-01  0.89278655865E-01  0.51100000000E-03 0. -1.
         11    1    4    4    0    0  0.21692056735E-01 -0.88021580276E-02  0.45819750041E-01  0.51456135942E-01  0.51100000000E-03 0.  1.
</event>
<event>
 8    1  0.2824193E+004  0.1043930E+01  0.7957747E-01            NaN
         13   -1    0    0    0    0  0.00000000000E+00  0.00000000000E+00  0.74505805969E-08  0.10566000000E+00  0.10566000000E+00 0.  1.
     999900   -1    0    0    0    0 -0.00000000000E+00 -0.00000000000E+00 -0.74505805969E-08  0.93827000000E+00  0.93827000000E+00 0. -1.
     999902    2    1    2    0    0  0.86665661013E-02  0.15964223777E-02  0.97326820367E-02  0.10308005281E+01  0.10307169086E+01 0.  0.
     999903    2    3    3    0    0 -0.88514106255E-01  0.95799371486E-01 -0.23095969230E-01  0.13984822914E+00  0.44853503942E-01 0.  0.
         14    1    1    2    0    0 -0.86665661013E-02 -0.15964223777E-02 -0.97326820367E-02  0.13129471887E-01  0.00000000000E+00 0. -1.
     999901    1    3    3    0    0  0.97180672357E-01 -0.94202949108E-01  0.32828651266E-01  0.89095229897E+00  0.88000000000E+00 0. -1.
        -11    1    4    4    0    0 -0.41426630597E-01  0.45769008884E-01 -0.33690969036E-01  0.70330010753E-01  0.51100000000E-03 0.  1.
         11    1    4    4    0    0 -0.47087475658E-01  0.50030362602E-01  0.10594999807E-01  0.69518218388E-01  0.51100000000E-03 0. -1.
</event>
<event>
 8    1  0.2824193E+004  0.1043930E+01  0.7957747E-01            NaN
         13   -1    0    0    0    0  0.00000000000E+00  0.00000000000E+00  0.74505805969E-08  0.10566000000E+00  0.10566000000E+00 0.  1.
     999900   -1    0    0    0    0 -0.00000000000E+00 -0.00000000000E+00 -0.74505805969E-08  0.93827000000E+00  0.93827000000E+00 0.  1.
     999902    2    1    2    0    0  0.76150040599E-02  0.10587897840E-01  0.35495708001E-02  0.10304136647E+01  0.10303250114E+01 0.  0.
     999903    2    3    3    0    0 -0.75570961467E-01 -0.65688862577E-01 -0.84847342828E-01  0.13881282160E+00  0.45209854823E-01 0.  0.
         14    1    1    2    0    0 -0.76150040599E-02 -0.10587897840E-01 -0.35495708001E-02  0.13516335316E-01  0.00000000000E+00 0. -1.
     999901    1    3    3    0    0  0.83185965527E-01  0.76276760418E-01  0.88396913629E-01  0.89160084308E+00  0.88000000000E+00 0. -1.
        -11    1    4    4    0    0  0.56102587876E-02 -0.24592320051E-02 -0.93372768826E-02  0.11178939409E-01  0.51100000000E-03 0. -1.
         11    1    4    4    0    0 -0.81181220254E-01 -0.63229630572E-01 -0.75510065946E-01  0.12763388220E+00  0.51100000000E-03 0.  1.
</event>
<event>
 8    1  0.2824193E+004  0.1043930E+01  0.7957747E-01            NaN
         13   -1    0    0    0    0  0.00000000000E+00  0.00000000000E+00  0.74505805969E-08  0.10566000000E+00  0.10566000000E+00 0.  1.
     999900   -1    0    0    0    0 -0.00000000000E+00 -0.00000000000E+00 -0.74505805969E-08  0.93827000000E+00  0.93827000000E+00 0.  1.
     999902    2    1    2    0    0  0.89333571837E-03  0.91284904226E-02 -0.10048887109E-01  0.10303245776E+01  0.10302347440E+01 0.  0.
     999903    2    3    3    0    0  0.30775500148E-01  0.11327484287E+00  0.63238726145E-01  0.14065582986E+00  0.44795139821E-01 0.  0.
         14    1    1    2    0    0 -0.89333571837E-03 -0.91284904226E-02  0.10048887109E-01  0.13605422383E-01  0.00000000000E+00 0.  1.
     999901    1    3    3    0    0 -0.29882164430E-01 -0.10414635245E+00 -0.73287613253E-01  0.88966874776E+00  0.88000000000E+00 0. -1.
        -11    1    4    4    0    0  0.95406461195E-02  0.93100060099E-01  0.60027050849E-01  0.11118521967E+00  0.51100000000E-03 0. -1.
         11    1    4    4    0    0  0.21234854029E-01  0.20174782775E-01  0.32116752961E-02  0.29470610188E-01  0.51100000000E-03 0.  1.
</event>
<event>
 8    1  0.2824193E+004  0.1043930E+01  0.7957747E-01            NaN
         13   -1    0    0    0    0  0.00000000000E+00  0.00000000000E+00  0.74505805969E-08  0.10566000000E+00  0.10566000000E+00 0. -1.
     999900   -1    0    0    0    0 -0.00000000000E+00 -0.00000000000E+00 -0.74505805969E-08  0.93827000000E+00  0.93827000000E+00 0. -1.
     999902    2    1    2    0    0 -0.14898932579E-01  0.21891612947E-02 -0.20943137437E-02  0.10287261594E+01  0.10286138023E+01 0.  0.
     999903    2    3    3    0    0  0.11350725348E+00  0.61533626347E-01 -0.96973814624E-02  0.13739697173E+00  0.45973958598E-01 0.  0.
         14    1    1    2    0    0  0.14898932579E-01 -0.21891612947E-02  0.20943137437E-02  0.15203840607E-01  0.00000000000E+00 0.  1.
     999901    1    3    3    0    0 -0.12840618605E+00 -0.59344465052E-01  0.76030677187E-02  0.89132918767E+00  0.88000000000E+00 0.  1.
        -11    1    4    4    0    0  0.29316849854E-01  0.15931945332E-01 -0.23282275563E-01  0.40689434056E-01  0.51100000000E-03 0. -1.
         11    1    4    4    0    0  0.84190403622E-01  0.45601681015E-01  0.13584894100E-01  0.96707537669E-01  0.51100000000E-03 0.  1.
</event>
<event>
 8    1  0.2824193E+004  0.1043930E+01  0.7957747E-01            NaN
         13   -1    0    0    0    0  0.00000000000E+00  0.00000000000E+00  0.74505805969E-08  0.10566000000E+00  0.10566000000E+00 0. -1.
     999900   -1    0    0    0    0 -0.00000000000E+00 -0.00000000000E+00 -0.74505805969E-08  0.93827000000E+00  0.93827000000E+00 0. -1.
     999902    2    1    2    0    0 -0.68171384085E-02 -0.99623136867E-02 -0.59006309496E-02  0.10304935378E+01  0.10304059360E+01 0.  0.
     999903    2    3    3    0    0 -0.11489273981E+00 -0.38881353102E-01  0.56063765711E-01  0.14124878361E+00  0.45781784209E-01 0.  0.
         14    1    1    2    0    0  0.68171384085E-02  0.99623136867E-02  0.59006309496E-02  0.13436462171E-01  0.00000000000E+00 0. -1.
     999901    1    3    3    0    0  0.10807560140E+00  0.28919039415E-01 -0.61964396661E-01  0.88924475422E+00  0.88000000000E+00 0. -1.
        -11    1    4    4    0    0 -0.10688184138E-01  0.61123258013E-02  0.17436410023E-01  0.21351518034E-01  0.51100000000E-03 0. -1.
         11    1    4    4    0    0 -0.10420455567E+00 -0.44993678903E-01  0.38627355688E-01  0.11989726557E+00  0.51100000000E-03 0.  1.
</event>
<event>
 8    1  0.2824193E+004  0.1043930E+01  0.7957747E-01            NaN
         13   -1    0    0    0    0  0.00000000000E+00  0.00000000000E+00  0.74505805969E-08  0.10566000000E+00  0.10566000000E+00 0.  1.
     999900   -1    0    0    0    0 -0.00000000000E+00 -0.00000000000E+00 -0.74505805969E-08  0.93827000000E+00  0.93827000000E+00 0.  1.
     999902    2    1    2    0    0  0.21590493335E-02 -0.12578880091E-01 -0.24254585719E-02  0.10309387503E+01  0.10308568933E+01 0.  0.
     999903    2    3    3    0    0  0.62398204090E-02  0.37103477426E-01 -0.12792387614E+00  0.14063832793E+00  0.44710376852E-01 0.  0.
         14    1    1    2    0    0 -0.21590493335E-02  0.12578880091E-01  0.24254585719E-02  0.12991249657E-01  0.00000000000E+00 0. -1.
     999901    1    3    3    0    0 -0.40807710755E-02 -0.49682357517E-01  0.12549841757E+00  0.89030042242E+00  0.88000000000E+00 0. -1.
        -11    1    4    4    0    0  0.44170259222E-02  0.47265934302E-01 -0.96272888418E-01  0.10734201800E+00  0.51100000000E-03 0.  1.
         11    1    4    4    0    0  0.18227944868E-02 -0.10162456876E-01 -0.31650987727E-01  0.33296309925E-01  0.51100000000E-03 0. -1.
</event>
<event>
 8    1  0.2824193E+004  0.1043930E+01  0.7957747E-01            NaN
         13   -1    0    0    0    0  0.00000000000E+00  0.00000000000E+00  0.74505805969E-08  0.10566000000E+00  0.10566000000E+00 0. -1.
     999900   -1    0    0    0    0 -0.00000000000E+00 -0.00000000000E+00 -0.74505805969E-08  0.93827000000E+00  0.93827000000E+00 0.  1.
     999902    2    1    2    0    0 -0.13295987920E-01 -0.22878449321E-02 -0.69242744626E-03  0.10304208555E+01  0.10303322971E+01 0.  0.
     999903    2    3    3    0    0  0.22801510221E-01  0.10508743970E+00  0.76986521197E-01  0.13976575942E+00  0.45213540114E-01 0.  0.
         14    1    1    2    0    0  0.13295987920E-01  0.22878449321E-02  0.69242744626E-03  0.13509144494E-01  0.00000000000E+00 0. -1.
     999901    1    3    3    0    0 -0.36097498141E-01 -0.10737528463E+00 -0.77678948643E-01  0.89065509609E+00  0.88000000000E+00 0.  1.
        -11    1    4    4    0    0 -0.16536927097E-02  0.84611262679E-01  0.53016564415E-01  0.99863995989E-01  0.51100000000E-03 0.  1.
         11    1    4    4    0    0  0.24455202931E-01  0.20476177019E-01  0.23969956782E-01  0.39901763430E-01  0.51100000000E-03 0. -1.
</event>
<event>
 8    1  0.2824193E+004  0.1043930E+01  0.7957747E-01            NaN
         13   -1    0    0    0    0  0.00000000000E+00  0.00000000000E+00  0.74505805969E-08  0.10566000000E+00  0.10566000000E+00 0.  1.
     999900   -1    0    0    0    0 -0.00000000000E+00 -0.00000000000E+00 -0.74505805969E-08  0.93827000000E+00  0.93827000000E+00 0. -1.
     999902    2    1    2    0    0  0.15425910806E-02 -0.13266074605E-01 -0.59303581763E-03  0.10305613795E+01  0.10304746658E+01 0.  0.
     999903    2    3    3    0    0 -0.12549727642E+00  0.17735474248E-01 -0.39027915558E-01  0.14006855867E+00  0.45076706842E-01 0.  0.
         14    1    1    2    0    0 -0.15425910806E-02  0.13266074605E-01  0.59303581763E-03  0.13368620503E-01  0.00000000000E+00 0.  1.
     999901    1    3    3    0    0  0.12703986750E+00 -0.31001548853E-01  0.38434879740E-01  0.89049282083E+00  0.88000000000E+00 0.  1.
        -11    1    4    4    0    0 -0.32641909049E-01 -0.12565376699E-01 -0.20828140322E-01  0.40711859062E-01  0.51100000000E-03 0.  1.
         11    1    4    4    0    0 -0.92855367368E-01  0.30300850947E-01 -0.18199775236E-01  0.99356699607E-01  0.51100000000E-03 0. -1.
</event>
<event>
 8    1  0.2824193E+004  0.1043930E+01  0.7957747E-01            NaN
         13   -1    0    0    0    0  0.00000000000E+00  0.00000000000E+00  0.74505805969E-08  0.10566000000E+00  0.10566000000E+00 0.  1.
     999900   -1    0    0    0    0 -0.00000000000E+00 -0.00000000000E+00 -0.74505805969E-08  0.93827000000E+00  0.93827000000E+00 0. -1.
     999902    2    1    2    0    0  0.57868452626E-02 -0.15144833945E-01 -0.97981546506E-02  0.10249864679E+01  0.10248113983E+01 0.  0.
     999903    2    3    3    0    0 -0.52786206299E-01  0.20834693784E-01  0.11240574648E+00  0.13388651716E+00  0.45498127369E-01 0.  0.
         14    1    1    2    0    0 -0.57868452626E-02  0.15144833945E-01  0.97981546506E-02  0.18943532086E-01  0.00000000000E+00 0.  1.
     999901    1    3    3    0    0  0.58573051562E-01 -0.35979527729E-01 -0.12220390113E+00  0.89109995076E+00  0.88000000000E+00 0. -1.
        -11    1    4    4    0    0 -0.87759356684E-02 -0.64853926059E-02  0.56993225483E-01  0.58030735271E-01  0.51100000000E-03 0. -1.
         11    1    4    4    0    0 -0.44010270631E-01  0.27320086389E-01  0.55412520999E-01  0.75855781888E-01  0.51100000000E-03 0.  1.
</event>
<event>
 8    1  0.2824193E+004  0.1043930E+01  0.7957747E-01            NaN
         13   -1    0    0    0    0  0.00000000000E+00  0.00000000000E+00  0.74505805969E-08  0.10566000000E+00  0.10566000000E+00 0.  1.
     999900   -1    0    0    0    0 -0.00000000000E+00 -0.00000000000E+00 -0.74505805969E-08  0.93827000000E+00  0.93827000000E+00 0.  1.
     999902    2    1    2    0    0 -0.11583434138E-01  0.29317496487E-02  0.73611023931E-02  0.10298958655E+01  0.10298002412E+01 0.  0.
     999903    2    3    3    0    0  0.93799689814E-02  0.99747713231E-01 -0.86535216639E-01  0.13937393215E+00  0.43579342931E-01 0.  0.
         14    1    1    2    0    0  0.11583434138E-01 -0.29317496487E-02 -0.73611023931E-02  0.14034134490E-01  0.00000000000E+00 0. -1.
     999901    1    3    3    0    0 -0.20963403119E-01 -0.96815963582E-01  0.93896319032E-01  0.89052193336E+00  0.88000000000E+00 0. -1.
        -11    1    4    4    0    0 -0.72258073925E-02  0.21400313777E-01 -0.42110601797E-01  0.47788593063E-01  0.51100000000E-03 0.  1.
         11    1    4    4    0    0  0.16605776374E-01  0.78347399454E-01 -0.44424614842E-01  0.91585339083E-01  0.51100000000E-03 0. -1.
</event>
<event>
 8    1  0.2824193E+004  0.1043930E+01  0.7957747E-01            NaN
         13   -1    0    0    0    0  0.00000000000E+00  0.00000000000E+00  0.74505805969E-08  0.10566000000E+00  0.10566000000E+00 0.  1.
     999900   -1    0    0    0    0 -0.00000000000E+00 -0.00000000000E+00 -0.74505805969E-08  0.93827000000E+00  0.93827000000E+00 0. -1.
     999902    2    1    2    0    0 -0.13638087528E-01  0.17637484900E-02 -0.10092585735E-02  0.10301413509E+01  0.10300490649E+01 0.  0.
     999903    2    3    3    0    0  0.43094531828E-01 -0.10988712538E+00  0.58879318036E-01  0.13925912003E+00  0.44654332607E-01 0.  0.
         14    1    1    2    0    0  0.13638087528E-01 -0.17637484900E-02  0.10092585735E-02  0.13788649064E-01  0.00000000000E+00 0. -1.
     999901    1    3    3    0    0 -0.56732619356E-01  0.11165087387E+00 -0.59888576609E-01  0.89088223091E+00  0.88000000000E+00 0. -1.
        -11    1    4    4    0    0  0.22290217270E-02 -0.48939473489E-01  0.40615004683E-01  0.63638670081E-01  0.51100000000E-03 0. -1.
         11    1    4    4    0    0  0.40865510101E-01 -0.60947651894E-01  0.18264313353E-01  0.75620449949E-01  0.51100000000E-03 0.  1.
</event>
<event>
 8    1  0.2824193E+004  0.1043930E+01  0.7957747E-01            NaN
         13   -1    0    0    0    0  0.00000000000E+00  0.00000000000E+00  0.74505805969E-08  0.10566000000E+00  0.10566000000E+00 0. -1.
     999900   -1    0    0    0    0 -0.00000000000E+00 -0.00000000000E+00 -0.74505805969E-08  0.93827000000E+00  0.93827000000E+00 0. -1.
     999902    2    1    2    0    0  0.13798069248E-01 -0.23582822270E-02  0.17630331868E-02  0.10298212617E+01  0.10297246110E+01 0.  0.
     999903    2    3    3    0    0  0.46239339251E-01 -0.84147589824E-01 -0.93238560541E-01  0.14034544436E+00  0.42243593768E-01 0.  0.
         14    1    1    2    0    0 -0.13798069248E-01  0.23582822270E-02 -0.17630331868E-02  0.14108738287E-01  0.00000000000E+00 0.  1.
     999901    1    3    3    0    0 -0.32441270003E-01  0.81789307597E-01  0.95001593728E-01  0.88947581735E+00  0.88000000000E+00 0.  1.
        -11    1    4    4    0    0  0.32538138155E-01 -0.25033296430E-01 -0.21374816308E-01  0.46287582114E-01  0.51100000000E-03 0. -1.
         11    1    4    4    0    0  0.13701201096E-01 -0.59114293395E-01 -0.71863744233E-01  0.94057862251E-01  0.51100000000E-03 0.  1.
</event>
<event>
 8    1  0.2824193E+004  0.1043930E+01  0.7957747E-01            NaN
         13   -1    0    0    0    0  0.00000000000E+00  0.00000000000E+00  0.74505805969E-08  0.10566000000E+00  0.10566000000E+00 0. -1.
     999900   -1    0    0    0    0 -0.00000000000E+00 -0.00000000000E+00 -0.74505805969E-08  0.93827000000E+00  0.93827000000E+00 0.  1.
     999902    2    1    2    0    0 -0.79154265715E-02 -0.91496437072E-04 -0.11009912368E-01  0.10303697448E+01  0.10302805106E+01 0.  0.
     999903    2    3    3    0    0  0.11741394038E+00  0.36878161376E-01 -0.50475437041E-01  0.13984645293E+00  0.43165130263E-01 0.  0.
         14    1    1    2    0    0  0.79154265715E-02  0.91496437072E-04  0.11009912368E-01  0.13560255151E-01  0.00000000000E+00 0. -1.
     999901    1    3    3    0    0 -0.12532936695E+00 -0.36969657813E-01  0.39465524673E-01  0.89052329192E+00  0.88000000000E+00 0.  1.
        -11    1    4    4    0    0  0.44572712842E-01  0.20412865510E-02  0.14401780735E-05  0.44622356549E-01  0.51100000000E-03 0. -1.
         11    1    4    4    0    0  0.72841227534E-01  0.34836874825E-01 -0.50476877219E-01  0.95224096378E-01  0.51100000000E-03 0.  1.
</event>
<event>
 8    1  0.2824193E+004  0.1043930E+01  0.7957747E-01            NaN
         13   -1    0    0    0    0  0.00000000000E+00  0.00000000000E+00  0.74505805969E-08  0.10566000000E+00  0.10566000000E+00 0. -1.
     999900   -1    0    0    0    0 -0.00000000000E+00 -0.00000000000E+00 -0.74505805969E-08  0.93827000000E+00  0.93827000000E+00 0. -1.
     999902    2    1    2    0    0 -0.91213886020E-02  0.75791932842E-02 -0.34859058529E-02  0.10315689547E+01  0.10314948923E+01 0.  0.
     999903    2    3    3    0    0 -0.81569460233E-01  0.98076073316E-01 -0.49695716559E-01  0.14276427708E+00  0.40490512062E-01 0.  0.
         14    1    1    2    0    0  0.91213886020E-02 -0.75791932842E-02  0.34859058529E-02  0.12361045283E-01  0.00000000000E+00 0. -1.
     999901    1    3    3    0    0  0.72448071631E-01 -0.90496880031E-01  0.46209810706E-01  0.88880467763E+00  0.88000000000E+00 0.  1.
        -11    1    4    4    0    0 -0.67584551365E-01  0.52983078859E-01 -0.24798298886E-01  0.89387331190E-01  0.51100000000E-03 0.  1.
         11    1    4    4    0    0 -0.13984908868E-01  0.45092994456E-01 -0.24897417674E-01  0.53376945893E-01  0.51100000000E-03 0. -1.
</event>
<event>
 8    1  0.2824193E+004  0.1043930E+01  0.7957747E-01            NaN
         13   -1    0    0    0    0  0.00000000000E+00  0.00000000000E+00  0.74505805969E-08  0.10566000000E+00  0.10566000000E+00 0.  1.
     999900   -1    0    0    0    0 -0.00000000000E+00 -0.00000000000E+00 -0.74505805969E-08  0.93827000000E+00  0.93827000000E+00 0. -1.
     999902    2    1    2    0    0  0.22493025754E-02  0.12104764018E-01 -0.69621771746E-02  0.10297858639E+01  0.10296887243E+01 0.  0.
     999903    2    3    3    0    0  0.90617691236E-01 -0.27973691264E-01  0.90667843172E-01  0.13908564750E+00  0.46152640077E-01 0.  0.
         14    1    1    2    0    0 -0.22493025754E-02 -0.12104764018E-01  0.69621771746E-02  0.14144136065E-01  0.00000000000E+00 0.  1.
     999901    1    3    3    0    0 -0.88368388661E-01  0.40078455282E-01 -0.97630020346E-01  0.89070021644E+00  0.88000000000E+00 0. -1.
        -11    1    4    4    0    0  0.52384188437E-01 -0.22333621156E-01  0.81393121544E-01  0.99337783285E-01  0.51100000000E-03 0.  1.
         11    1    4    4    0    0  0.38233502799E-01 -0.56400701074E-02  0.92747216274E-02  0.39747864211E-01  0.51100000000E-03 0. -1.
</event>
<event>
 8    1  0.2824193E+004  0.1043930E+01  0.7957747E-01            NaN
         13   -1    0    0    0    0  0.00000000000E+00  0.00000000000E+00  0.74505805969E-08  0.10566000000E+00  0.10566000000E+00 0. -1.
     999900   -1    0    0    0    0 -0.00000000000E+00 -0.00000000000E+00 -0.74505805969E-08  0.93827000000E+00  0.93827000000E+00 0.  1.
     999902    2    1    2    0    0 -0.41657703641E-02  0.12938773562E-01 -0.63875715307E-02  0.10289111261E+01  0.10288015060E+01 0.  0.
     999903    2    3    3    0    0 -0.10974522559E+00  0.65346577097E-01  0.35984506842E-01  0.14004162369E+00  0.44750217373E-01 0.  0.
         14    1    1    2    0    0  0.41657703641E-02 -0.12938773562E-01  0.63875715307E-02  0.15018873928E-01  0.00000000000E+00 0.  1.
     999901    1    3    3    0    0  0.10557945523E+00 -0.52407803535E-01 -0.42372078372E-01  0.88886950238E+00  0.88000000000E+00 0.  1.
        -11    1    4    4    0    0 -0.38108955208E-01  0.21189473070E-01  0.34945410895E-01  0.55881384196E-01  0.51100000000E-03 0. -1.
         11    1    4    4    0    0 -0.71636270384E-01  0.44157104026E-01  0.10390959472E-02  0.84160239495E-01  0.51100000000E-03 0.  1.
</event>
<event>
 8    1  0.2824193E+004  0.1043930E+01  0.7957747E-01            NaN
         13   -1    0    0    0    0  0.00000000000E+00  0.00000000000E+00  0.74505805969E-08  0.10566000000E+00  0.10566000000E+00 0. -1.
     999900   -1    0    0    0    0 -0.00000000000E+00 -0.00000000000E+00 -0.74505805969E-08  0.93827000000E+00  0.93827000000E+00 0.  1.
     999902    2    1    2    0    0  0.88819515859E-02 -0.57259223490E-02  0.72464238232E-02  0.10311164951E+01  0.10310368764E+01 0.  0.
     999903    2    3    3    0    0 -0.56982414396E-01 -0.31835783124E-01 -0.11506566597E+00  0.13983646788E+00  0.45316858067E-01 0.  0.
         14    1    1    2    0    0 -0.88819515859E-02  0.57259223490E-02 -0.72464238232E-02  0.12813504944E-01  0.00000000000E+00 0.  1.
     999901    1    3    3    0    0  0.65864365982E-01  0.26109860775E-01  0.12231208980E+00  0.89128002718E+00  0.88000000000E+00 0. -1.
        -11    1    4    4    0    0 -0.94577337658E-02 -0.19717083010E-01 -0.69602733331E-01  0.72958986414E-01  0.51100000000E-03 0. -1.
         11    1    4    4    0    0 -0.47524680631E-01 -0.12118700114E-01 -0.45462932643E-01  0.66877481464E-01  0.51100000000E-03 0.  1.
</event>
<event>
 8    1  0.2824193E+004  0.1043930E+01  0.7957747E-01            NaN
         13   -1    0    0    0    0  0.00000000000E+00  0.00000000000E+00  0.74505805969E-08  0.10566000000E+00  0.10566000000E+00 0.  1.
     999900   -1    0    0    0    0 -0.00000000000E+00 -0.00000000000E+00 -0.74505805969E-08  0.93827000000E+00  0.93827000000E+00 0.  1.
     999902    2    1    2    0    0 -0.67879203445E-02  0.50993033383E-02  0.10056917161E-01  0.10307686802E+01  0.10306846519E+01 0.  0.
     999903    2    3    3    0    0  0.48200739923E-01  0.48831696289E-01 -0.11290769913E+00  0.13944574664E+00  0.44599572214E-01 0.  0.
         14    1    1    2    0    0  0.67879203445E-02 -0.50993033383E-02 -0.10056917161E-01  0.13161319840E-01  0.00000000000E+00 0. -1.
     999901    1    3    3    0    0 -0.54988660268E-01 -0.43732392951E-01  0.12296461630E+00  0.89132293352E+00  0.88000000000E+00 0. -1.
        -11    1    4    4    0    0  0.80370675625E-02 -0.85012388858E-02 -0.13632405196E-01  0.17971341353E-01  0.51100000000E-03 0.  1.
         11    1    4    4    0    0  0.40163672361E-01  0.57332935175E-01 -0.99275293938E-01  0.12147440529E+00  0.51100000000E-03 0. -1.
</event>
<event>
 8    1  0.2824193E+004  0.1043930E+01  0.7957747E-01            NaN
         13   -1    0    0    0    0  0.00000000000E+00  0.00000000000E+00  0.74505805969E-08  0.10566000000E+00  0.10566000000E+00 0.  1.
     999900   -1    0    0    0    0 -0.00000000000E+00 -0.00000000000E+00 -0.74505805969E-08  0.93827000000E+00  0.93827000000E+00 0.  1.
     999902    2    1    2    0    0  0.72163754937E-02  0.99768898565E-02  0.60216593782E-02  0.10302232576E+01  0.10301320719E+01 0.  0.
     999903    2    3    3    0    0 -0.61275929385E-01 -0.11298094473E+00 -0.25749650326E-01  0.13847259677E+00  0.44633867963E-01 0.  0.
         14    1    1    2    0    0 -0.72163754937E-02 -0.99768898565E-02 -0.60216593782E-02  0.13706742434E-01  0.00000000000E+00 0. -1.
     999901    1    3    3    0    0  0.68492304878E-01  0.12295783459E+00  0.31771309704E-01  0.89175066080E+00  0.88000000000E+00 0. -1.
        -11    1    4    4    0    0 -0.27636605254E-01 -0.39766067125E-01 -0.31371034067E-01  0.57702035874E-01  0.51100000000E-03 0. -1.
         11    1    4    4    0    0 -0.33639324130E-01 -0.73214877606E-01  0.56213837416E-02  0.80770560893E-01  0.51100000000E-03 0.  1.
</event>
<event>
 7    1  0.2824193E+004  0.1043930E+01  0.7957747E-01            NaN
         13   -1    0    0    0    0  0.00000000000E+00  0.00000000000E+00  0.74505805969E-08  0.10566000000E+00  0.10566000000E+00 0.  1.
     999900   -1    0    0    0    0 -0.00000000000E+00 -0.00000000000E+00 -0.74505805969E-08  0.93827000000E+00  0.93827000000E+00 0.  1.
     999903    2    1    2    0    0 -0.13744666024E-01 -0.41472195849E-01  0.87515205589E-01  0.10774205944E+00  0.45172793707E-01 0.  0.
         14    1    1    2    0    0  0.23705425677E-01  0.26242831706E-01  0.32284456877E-01  0.47884439835E-01  0.00000000000E+00 0. -1.
     999901    1    1    2    0    0 -0.99607596536E-02  0.15229364143E-01 -0.11979966247E+00  0.88830350072E+00  0.88000000000E+00 0.  1.
        -11    1    3    3    0    0 -0.12847731979E-01 -0.44870542424E-02  0.60280750062E-01  0.61799901471E-01  0.51100000000E-03 0. -1.
         11    1    3    3    0    0 -0.89693404421E-03 -0.36985141607E-01  0.27234455527E-01  0.45942157973E-01  0.51100000000E-03 0.  1.
</event>
<event>
 8    1  0.2824193E+004  0.1043930E+01  0.7957747E-01            NaN
         13   -1    0    0    0    0  0.00000000000E+00  0.00000000000E+00  0.74505805969E-08  0.10566000000E+00  0.10566000000E+00 0. -1.
     999900   -1    0    0    0    0 -0.00000000000E+00 -0.00000000000E+00 -0.74505805969E-08  0.93827000000E+00  0.93827000000E+00 0. -1.
     999902    2    1    2    0    0 -0.63638668412E-02 -0.11706652998E-01  0.58305576637E-02  0.10293855877E+01  0.10292828320E+01 0.  0.
     999903    2    3    3    0    0 -0.57866840676E-01 -0.11922370641E+00  0.18646943729E-01  0.14125455413E+00  0.45191560419E-01 0.  0.
         14    1    1    2    0    0  0.63638668412E-02  0.11706652998E-01 -0.58305576637E-02  0.14544412269E-01  0.00000000000E+00 0. -1.
     999901    1    3    3    0    0  0.51502973835E-01  0.10751705341E+00 -0.12816386065E-01  0.88813103360E+00  0.88000000000E+00 0.  1.
        -11    1    4    4    0    0 -0.39695134204E-02 -0.55114123173E-01  0.15698025221E-01  0.57445737237E-01  0.51100000000E-03 0. -1.
         11    1    4    4    0    0 -0.53897327255E-01 -0.64109583236E-01  0.29489185073E-02  0.83808816895E-01  0.51100000000E-03 0.  1.
</event>
<event>
 8    1  0.2824193E+004  0.1043930E+01  0.7957747E-01            NaN
         13   -1    0    0    0    0  0.00000000000E+00  0.00000000000E+00  0.74505805969E-08  0.10566000000E+00  0.10566000000E+00 0.  1.
     999900   -1    0    0    0    0 -0.00000000000E+00 -0.00000000000E+00 -0.74505805969E-08  0.93827000000E+00  0.93827000000E+00 0.  1.
     999902    2    1    2    0    0  0.55313213566E-02 -0.88838534184E-02  0.90525859461E-02  0.10300928153E+01  0.10299998740E+01 0.  0.
     999903    2    3    3    0    0 -0.93362569482E-01 -0.90313739883E-01  0.29169748348E-01  0.14058984834E+00  0.45182853431E-01 0.  0.
         14    1    1    2    0    0 -0.55313213566E-02  0.88838534184E-02 -0.90525859461E-02  0.13837184678E-01  0.00000000000E+00 0. -1.
     999901    1    3    3    0    0  0.98893890839E-01  0.81429886465E-01 -0.20117162402E-01  0.88950296699E+00  0.88000000000E+00 0.  1.
        -11    1    4    4    0    0 -0.39861593352E-01 -0.60898498999E-01 -0.31527211059E-03  0.72786910378E-01  0.51100000000E-03 0. -1.
         11    1    4    4    0    0 -0.53500976130E-01 -0.29415240884E-01  0.29485020459E-01  0.67802937957E-01  0.51100000000E-03 0.  1.
</event>
<event>
 8    1  0.2824193E+004  0.1043930E+01  0.7957747E-01            NaN
         13   -1    0    0    0    0  0.00000000000E+00  0.00000000000E+00  0.74505805969E-08  0.10566000000E+00  0.10566000000E+00 0.  1.
     999900   -1    0    0    0    0 -0.00000000000E+00 -0.00000000000E+00 -0.74505805969E-08  0.93827000000E+00  0.93827000000E+00 0.  1.
     999902    2    1    2    0    0 -0.64935508973E-02 -0.43060553571E-02  0.23752378257E-01  0.10189323243E+01  0.10186256416E+01 0.  0.
     999903    2    3    3    0    0  0.85603256310E-01 -0.79780950289E-01 -0.31422132790E-01  0.12920061852E+00  0.44861251389E-01 0.  0.
         14    1    1    2    0    0  0.64935508973E-02  0.43060553571E-02 -0.23752378257E-01  0.24997675669E-01  0.00000000000E+00 0. -1.
     999901    1    3    3    0    0 -0.92096807207E-01  0.75474894932E-01  0.55174511046E-01  0.88973170581E+00  0.88000000000E+00 0. -1.
        -11    1    4    4    0    0  0.35819857214E-01 -0.60629999979E-01 -0.27881143295E-01  0.75740863084E-01  0.51100000000E-03 0. -1.
         11    1    4    4    0    0  0.49783399096E-01 -0.19150950310E-01 -0.35409894950E-02  0.53459755433E-01  0.51100000000E-03 0.  1.
</event>
<event>
 8    1  0.2824193E+004  0.1043930E+01  0.7957747E-01            NaN
         13   -1    0    0    0    0  0.00000000000E+00  0.00000000000E+00  0.74505805969E-08  0.10566000000E+00  0.10566000000E+00 0.  1.
     999900   -1    0    0    0    0 -0.00000000000E+00 -0.00000000000E+00 -0.74505805969E-08  0.93827000000E+00  0.93827000000E+00 0. -1.
     999902    2    1    2    0    0  0.10792934956E-01 -0.65710994906E-02 -0.60194212020E-02  0.10299335638E+01  0.10298384561E+01 0.  0.
     999903    2    3    3    0    0 -0.87908129895E-01 -0.85534805303E-01  0.49365562711E-01  0.13917845525E+00  0.43470005804E-01 0.  0.
         14    1    1    2    0    0 -0.10792934956E-01  0.65710994906E-02  0.60194212020E-02  0.13996436157E-01  0.00000000000E+00 0.  1.
     999901    1    3    3    0    0  0.98701064852E-01  0.78963705812E-01 -0.55384983913E-01  0.89075510859E+00  0.88000000000E+00 0.  1.
        -11    1    4    4    0    0 -0.77350862261E-02 -0.25860383528E-01 -0.14908846984E-02  0.27038395908E-01  0.51100000000E-03 0. -1.
         11    1    4    4    0    0 -0.80173043669E-01 -0.59674421775E-01  0.50856447410E-01  0.11214005934E+00  0.51100000000E-03 0.  1.
</event>
<event>
 8    1  0.2824193E+004  0.1043930E+01  0.7957747E-01            NaN
         13   -1    0    0    0    0  0.00000000000E+00  0.00000000000E+00  0.74505805969E-08  0.10566000000E+00  0.10566000000E+00 0. -1.
     999900   -1    0    0    0    0 -0.00000000000E+00 -0.00000000000E+00 -0.74505805969E-08  0.93827000000E+00  0.93827000000E+00 0.  1.
     999902    2    1    2    0    0  0.18096785394E-02  0.10132645801E-01 -0.84038716644E-02  0.10306420165E+01  0.10305563525E+01 0.  0.
     999903    2    3    3    0    0  0.15465263996E-02  0.20121661431E-01 -0.13303515920E+00  0.14180411926E+00  0.44752448566E-01 0.  0.
         14    1    1    2    0    0 -0.18096785394E-02 -0.10132645801E-01  0.84038716644E-02  0.13287983530E-01  0.00000000000E+00 0. -1.
     999901    1    3    3    0    0  0.26315213986E-03 -0.99890156307E-02  0.12463128754E+00  0.88883789721E+00  0.88000000000E+00 0. -1.
        -11    1    4    4    0    0  0.35741018657E-02 -0.10302676636E-01 -0.92226446615E-02  0.14291173694E-01  0.51100000000E-03 0. -1.
         11    1    4    4    0    0 -0.20275754661E-02  0.30424338067E-01 -0.12381251454E+00  0.12751294557E+00  0.51100000000E-03 0.  1.
</event>
<event>
 8    1  0.2824193E+004  0.1043930E+01  0.7957747E-01            NaN
         13   -1    0    0    0    0  0.00000000000E+00  0.00000000000E+00  0.74505805969E-08  0.10566000000E+00  0.10566000000E+00 0.  1.
     999900   -1    0    0    0    0 -0.00000000000E+00 -0.00000000000E+00 -0.74505805969E-08  0.93827000000E+00  0.93827000000E+00 0.  1.
     999902    2    1    2    0    0  0.13771342210E-01 -0.30883418543E-02 -0.54607472149E-02  0.10287970068E+01  0.10286857022E+01 0.  0.
     999903    2    3    3    0    0  0.49503558707E-01 -0.97412312709E-01 -0.75735937386E-01  0.14025190100E+00  0.44664331737E-01 0.  0.
         14    1    1    2    0    0 -0.13771342210E-01  0.30883418543E-02  0.54607472149E-02  0.15132993155E-01  0.00000000000E+00 0. -1.
     999901    1    3    3    0    0 -0.35732216496E-01  0.94323970854E-01  0.70275190171E-01  0.88854510585E+00  0.88000000000E+00 0.  1.
        -11    1    4    4    0    0  0.35006309692E-01 -0.90177334985E-01 -0.47674639272E-01  0.10784491557E+00  0.51100000000E-03 0.  1.
         11    1    4    4    0    0  0.14497249015E-01 -0.72349777232E-02 -0.28061298115E-01  0.32406985428E-01  0.51100000000E-03 0. -1.
</event>
<event>
 8    1  0.2824193E+004  0.1043930E+01  0.7957747E-01            NaN
         13   -1    0    0    0    0  0.00000000000E+00  0.00000000000E+00  0.74505805969E-08  0.10566000000E+00  0.10566000000E+00 0.  1.
     999900   -1    0    0    0    0 -0.00000000000E+00 -0.00000000000E+00 -0.74505805969E-08  0.93827000000E+00  0.93827000000E+00 0. -1.
     999902    2    1    2    0    0 -0.10575108448E-01 -0.78253087077E-02 -0.55128071252E-02  0.10296660799E+01  0.10295672764E+01 0.  0.
     999903    2    3    3    0    0  0.53734995262E-01 -0.45171350143E-01 -0.11183780966E+00  0.14015187402E+00  0.46978202720E-01 0.  0.
         14    1    1    2    0    0  0.10575108448E-01  0.78253087077E-02  0.55128071252E-02  0.14263920129E-01  0.00000000000E+00 0.  1.
     999901    1    3    3    0    0 -0.64310103710E-01  0.37346041436E-01  0.10632500254E+00  0.88951420585E+00  0.88000000000E+00 0.  1.
        -11    1    4    4    0    0  0.76988224415E-02  0.51669040236E-02 -0.40086252244E-01  0.41147752115E-01  0.51100000000E-03 0.  1.
         11    1    4    4    0    0  0.46036172820E-01 -0.50338254167E-01 -0.71751557419E-01  0.99004121902E-01  0.51100000000E-03 0. -1.
</event>
<event>
 8    1  0.2824193E+004  0.1043930E+01  0.7957747E-01            NaN
         13   -1    0    0    0    0  0.00000000000E+00  0.00000000000E+00  0.74505805969E-08  0.10566000000E+00  0.10566000000E+00 0.  1.
     999900   -1    0    0    0    0 -0.00000000000E+00 -0.00000000000E+00 -0.74505805969E-08  0.93827000000E+00  0.93827000000E+00 0. -1.
     999902    2    1    2    0    0  0.11726151585E-01 -0.28673534105E-02 -0.73158776648E-02  0.10298145329E+01  0.10297177893E+01 0.  0.
     999903    2    3    3    0    0  0.15735493359E-01 -0.55339377108E-01 -0.11945902830E+00  0.14113828454E+00  0.48368414395E-01 0.  0.
         14    1    1    2    0    0 -0.11726151585E-01  0.28673534105E-02  0.73158776648E-02  0.14115467140E-01  0.00000000000E+00 0.  1.
     999901    1    3    3    0    0 -0.40093417748E-02  0.52472023698E-01  0.11214315063E+00  0.88867624832E+00  0.88000000000E+00 0.  1.
        -11    1    4    4    0    0 -0.19341599653E-02  0.31043567926E-02 -0.43612834701E-01  0.43768921365E-01  0.51100000000E-03 0.  1.
         11    1    4    4    0    0  0.17669653325E-01 -0.58443733901E-01 -0.75846193598E-01  0.97369363176E-01  0.51100000000E-03 0. -1.
</event>
<event>
 8    1  0.2824193E+004  0.1043930E+01  0.7957747E-01            NaN
         13   -1    0    0    0    0  0.00000000000E+00  0.00000000000E+00  0.74505805969E-08  0.10566000000E+00  0.10566000000E+00 0.  1.
     999900   -1    0    0    0    0 -0.00000000000E+00 -0.00000000000E+00 -0.74505805969E-08  0.93827000000E+00  0.93827000000E+00 0. -1.
     999902    2    1    2    0    0  0.12230859584E-02 -0.48053832779E-02 -0.13605671244E-01  0.10294489110E+01  0.10293470544E+01 0.  0.
     999903    2    3    3    0    0  0.67171561644E-01 -0.11024520143E+00 -0.31473887660E-01  0.14052482549E+00  0.45723055909E-01 0.  0.
         14    1    1    2    0    0 -0.12230859584E-02  0.48053832779E-02  0.13605671244E-01  0.14481088968E-01  0.00000000000E+00 0.  1.
     999901    1    3    3    0    0 -0.65948475686E-01  0.10543981816E+00  0.17868216416E-01  0.88892408554E+00  0.88000000000E+00 0.  1.
        -11    1    4    4    0    0  0.81481663595E-02 -0.23413332639E-01 -0.25184177494E-01  0.35342335482E-01  0.51100000000E-03 0. -1.
         11    1    4    4    0    0  0.59023395285E-01 -0.86831868795E-01 -0.62897101661E-02  0.10518249001E+00  0.51100000000E-03 0.  1.
</event>
<event>
 7    1  0.2824193E+004  0.1043930E+01  0.7957747E-01            NaN
         13   -1    0    0    0    0  0.00000000000E+00  0.00000000000E+00  0.74505805969E-08  0.10566000000E+00  0.10566000000E+00 0. -1.
     999900   -1    0    0    0    0 -0.00000000000E+00 -0.00000000000E+00 -0.74505805969E-08  0.93827000000E+00  0.93827000000E+00 0.  1.
     999903    2    1    2    0    0  0.10499669514E-01  0.65369857100E-02  0.10374064077E+00  0.11346169620E+00  0.44254499382E-01 0.  0.
         14    1    1    2    0    0  0.25161121041E-01 -0.27217293606E-01  0.17871160056E-01  0.41149015116E-01  0.00000000000E+00 0.  1.
     999901    1    1    2    0    0 -0.35660790555E-01  0.20680307896E-01 -0.12161180083E+00  0.88931928868E+00  0.88000000000E+00 0.  1.
        -11    1    3    3    0    0 -0.14051042339E-01 -0.50528472203E-03  0.68534978024E-01  0.69964215405E-01  0.51100000000E-03 0. -1.
         11    1    3    3    0    0  0.24550711853E-01  0.70422704320E-02  0.35205662748E-01  0.43497480799E-01  0.51100000000E-03 0.  1.
</event>
<event>
 8    1  0.2824193E+004  0.1043930E+01  0.7957747E-01            NaN
         13   -1    0    0    0    0  0.00000000000E+00  0.00000000000E+00  0.74505805969E-08  0.10566000000E+00  0.10566000000E+00 0.  1.
     999900   -1    0    0    0    0 -0.00000000000E+00 -0.00000000000E+00 -0.74505805969E-08  0.93827000000E+00  0.93827000000E+00 0.  1.
     999902    2    1    2    0    0 -0.78768704100E-02 -0.15198626329E-02  0.10864870985E-01  0.10304244274E+01  0.10303359161E+01 0.  0.
     999903    2    3    3    0    0  0.86006149545E-02 -0.56529188719E-01  0.11827751474E+00  0.14203543066E+00  0.53990492807E-01 0.  0.
         14    1    1    2    0    0  0.78768704100E-02  0.15198626329E-02 -0.10864870985E-01  0.13505572606E-01  0.00000000000E+00 0. -1.
     999901    1    3    3    0    0 -0.16477485364E-01  0.55009326086E-01 -0.10741264376E+00  0.88838899673E+00  0.88000000000E+00 0.  1.
        -11    1    4    4    0    0  0.30219663807E-01 -0.20166198758E-01  0.54517458185E-01  0.65515784517E-01  0.51100000000E-03 0. -1.
         11    1    4    4    0    0 -0.21619048853E-01 -0.36362989961E-01  0.63760056560E-01  0.76519646142E-01  0.51100000000E-03 0.  1.
</event>
<event>
 8    1  0.2824193E+004  0.1043930E+01  0.7957747E-01            NaN
         13   -1    0    0    0    0  0.00000000000E+00  0.00000000000E+00  0.74505805969E-08  0.10566000000E+00  0.10566000000E+00 0.  1.
     999900   -1    0    0    0    0 -0.00000000000E+00 -0.00000000000E+00 -0.74505805969E-08  0.93827000000E+00  0.93827000000E+00 0. -1.
     999902    2    1    2    0    0  0.10117414094E-01  0.83210863123E-02 -0.61966080355E-02  0.10294386061E+01  0.10293366035E+01 0.  0.
     999903    2    3    3    0    0 -0.46587261065E-01 -0.13561445501E-02 -0.12382007151E+00  0.13975082485E+00  0.45018561914E-01 0.  0.
         14    1    1    2    0    0 -0.10117414094E-01 -0.83210863123E-02  0.61966080355E-02  0.14491393877E-01  0.00000000000E+00 0.  1.
     999901    1    3    3    0    0  0.56704675158E-01  0.96772308623E-02  0.11762346347E+00  0.88968778127E+00  0.88000000000E+00 0.  1.
        -11    1    4    4    0    0  0.82006661764E-02 -0.10283201599E-02 -0.29814193581E-01  0.30942779900E-01  0.51100000000E-03 0. -1.
         11    1    4    4    0    0 -0.54787927241E-01 -0.32782439014E-03 -0.94005877928E-01  0.10880804495E+00  0.51100000000E-03 0.  1.
</event>
<event>
 8    1  0.2824193E+004  0.1043930E+01  0.7957747E-01            NaN
         13   -1    0    0    0    0  0.00000000000E+00  0.00000000000E+00  0.74505805969E-08  0.10566000000E+00  0.10566000000E+00 0. -1.
     999900   -1    0    0    0    0 -0.00000000000E+00 -0.00000000000E+00 -0.74505805969E-08  0.93827000000E+00  0.93827000000E+00 0. -1.
     999902    2    1    2    0    0  0.99292435141E-02  0.93903722500E-02 -0.32291243738E-02  0.10298873431E+01  0.10297916019E+01 0.  0.
     999903    2    3    3    0    0 -0.50277896222E-01  0.10463166652E+00  0.64290801988E-01  0.14013752196E+00  0.45050697610E-01 0.  0.
         14    1    1    2    0    0 -0.99292435141E-02 -0.93903722500E-02  0.32291243738E-02  0.14042656870E-01  0.00000000000E+00 0. -1.
     999901    1    3    3    0    0  0.60207139736E-01 -0.95241294267E-01 -0.67519926362E-01  0.88974982117E+00  0.88000000000E+00 0. -1.
        -11    1    4    4    0    0 -0.55493119763E-02  0.55372540782E-01  0.42825123566E-01  0.70222257622E-01  0.51100000000E-03 0.  1.
         11    1    4    4    0    0 -0.44728584246E-01  0.49259125735E-01  0.21465678421E-01  0.69915264341E-01  0.51100000000E-03 0. -1.
</event>
<event>
 8    1  0.2824193E+004  0.1043930E+01  0.7957747E-01            NaN
         13   -1    0    0    0    0  0.00000000000E+00  0.00000000000E+00  0.74505805969E-08  0.10566000000E+00  0.10566000000E+00 0.  1.
     999900   -1    0    0    0    0 -0.00000000000E+00 -0.00000000000E+00 -0.74505805969E-08  0.93827000000E+00  0.93827000000E+00 0.  1.
     999902    2    1    2    0    0  0.47658556419E-02 -0.11750445904E-01  0.54424719429E-02  0.10301312008E+01  0.10300387779E+01 0.  0.
     999903    2    3    3    0    0 -0.91225873994E-01 -0.96448773080E-01  0.24183768365E-01  0.14067099652E+00  0.39735987393E-01 0.  0.
         14    1    1    2    0    0 -0.47658556419E-02  0.11750445904E-01 -0.54424719429E-02  0.13798799216E-01  0.00000000000E+00 0. -1.
     999901    1    3    3    0    0  0.95991729636E-01  0.84698327176E-01 -0.18741296422E-01  0.88946020427E+00  0.88000000000E+00 0. -1.
        -11    1    4    4    0    0 -0.50442658012E-01 -0.78803605555E-01  0.22321057278E-01  0.96192311100E-01  0.51100000000E-03 0.  1.
         11    1    4    4    0    0 -0.40783215981E-01 -0.17645167525E-01  0.18627110874E-02  0.44478685416E-01  0.51100000000E-03 0. -1.
</event>
<event>
 7    1  0.2824193E+004  0.1043930E+01  0.7957747E-01            NaN
         13   -1    0    0    0    0  0.00000000000E+00  0.00000000000E+00  0.74505805969E-08  0.10566000000E+00  0.10566000000E+00 0. -1.
     999900   -1    0    0    0    0 -0.00000000000E+00 -0.00000000000E+00 -0.74505805969E-08  0.93827000000E+00  0.93827000000E+00 0.  1.
     999903    2    1    2    0    0 -0.11307164796E-01  0.62279509177E-01 -0.88683106187E-01  0.11805864285E+00  0.45459438960E-01 0.  0.
         14    1    1    2    0    0  0.19976876159E-01  0.14127920107E-01  0.32571092762E-01  0.40737572232E-01  0.00000000000E+00 0. -1.
     999901    1    1    2    0    0 -0.86697113632E-02 -0.76407429284E-01  0.56112013425E-01  0.88513378491E+00  0.88000000000E+00 0. -1.
        -11    1    3    3    0    0 -0.27578854642E-01  0.30028910629E-01 -0.37407743856E-01  0.55334700851E-01  0.51100000000E-03 0.  1.
         11    1    3    3    0    0  0.16271689846E-01  0.32250598548E-01 -0.51275362332E-01  0.62723942003E-01  0.51100000000E-03 0. -1.
</event>
<event>
 8    1  0.2824193E+004  0.1043930E+01  0.7957747E-01            NaN
         13   -1    0    0    0    0  0.00000000000E+00  0.00000000000E+00  0.74505805969E-08  0.10566000000E+00  0.10566000000E+00 0. -1.
     999900   -1    0    0    0    0 -0.00000000000E+00 -0.00000000000E+00 -0.74505805969E-08  0.93827000000E+00  0.93827000000E+00 0. -1.
     999902    2    1    2    0    0 -0.20789921367E-02 -0.28549050079E-02 -0.13496785001E-01  0.10299788031E+01  0.10298843133E+01 0.  0.
     999903    2    3    3    0    0  0.28150728440E-01 -0.88595677658E-01 -0.97087419701E-01  0.14135474851E+00  0.43744031032E-01 0.  0.
         14    1    1    2    0    0  0.20789921367E-02  0.28549050079E-02  0.13496785001E-01  0.13951196948E-01  0.00000000000E+00 0. -1.
     999901    1    3    3    0    0 -0.30229720577E-01  0.85740772650E-01  0.83590634700E-01  0.88862405454E+00  0.88000000000E+00 0.  1.
        -11    1    4    4    0    0  0.14078167296E-01 -0.30006521273E-01 -0.65287408609E-01  0.73220850563E-01  0.51100000000E-03 0.  1.
         11    1    4    4    0    0  0.14072561145E-01 -0.58589156385E-01 -0.31800011092E-01  0.68133897947E-01  0.51100000000E-03 0. -1.
</event>
<event>
 8    1  0.2824193E+004  0.1043930E+01  0.7957747E-01            NaN
         13   -1    0    0    0    0  0.00000000000E+00  0.00000000000E+00  0.74505805969E-08  0.10566000000E+00  0.10566000000E+00 0. -1.
     999900   -1    0    0    0    0 -0.00000000000E+00 -0.00000000000E+00 -0.74505805969E-08  0.93827000000E+00  0.93827000000E+00 0. -1.
     999902    2    1    2    0    0  0.11681007599E-01 -0.14986817785E-02  0.80145432426E-02  0.10296848293E+01  0.10295862872E+01 0.  0.
     999903    2    3    3    0    0  0.12438603088E+00 -0.45016202124E-01 -0.18933522219E-01  0.14102156623E+00  0.45058414826E-01 0.  0.
         14    1    1    2    0    0 -0.11681007599E-01  0.14986817785E-02 -0.80145432426E-02  0.14245170725E-01  0.00000000000E+00 0.  1.
     999901    1    3    3    0    0 -0.11270502328E+00  0.43517520345E-01  0.26948065461E-01  0.88866326304E+00  0.88000000000E+00 0.  1.
        -11    1    4    4    0    0  0.21366084094E-01 -0.24925909280E-01 -0.14699765147E-01  0.35974361973E-01  0.51100000000E-03 0. -1.
         11    1    4    4    0    0  0.10301994679E+00 -0.20090292844E-01 -0.42337570715E-02  0.10504720426E+00  0.51100000000E-03 0.  1.
</event>
<event>
 8    1  0.2824193E+004  0.1043930E+01  0.7957747E-01            NaN
         13   -1    0    0    0    0  0.00000000000E+00  0.00000000000E+00  0.74505805969E-08  0.10566000000E+00  0.10566000000E+00 0.  1.
     999900   -1    0    0    0    0 -0.00000000000E+00 -0.00000000000E+00 -0.74505805969E-08  0.93827000000E+00  0.93827000000E+00 0. -1.
     999902    2    1    2    0    0 -0.15942278322E-03 -0.90744386919E-02 -0.10567078123E-01  0.10300003915E+01  0.10299061960E+01 0.  0.
     999903    2    3    3    0    0 -0.21868555013E-01 -0.84384313668E-01  0.99654427011E-01  0.13966806933E+00  0.44465927130E-01 0.  0.
         14    1    1    2    0    0  0.15942278322E-03  0.90744386919E-02  0.10567078123E-01  0.13929608510E-01  0.00000000000E+00 0.  1.
     999901    1    3    3    0    0  0.21709132229E-01  0.75309874976E-01 -0.11022150513E+00  0.89033232216E+00  0.88000000000E+00 0. -1.
        -11    1    4    4    0    0 -0.18431701264E-01 -0.69123704732E-01  0.49158616020E-01  0.86802331866E-01  0.51100000000E-03 0.  1.
         11    1    4    4    0    0 -0.34368537483E-02 -0.15260608936E-01  0.50495810992E-01  0.52865737463E-01  0.51100000000E-03 0. -1.
</event>
<event>
 8    1  0.2824193E+004  0.1043930E+01  0.7957747E-01            NaN
         13   -1    0    0    0    0  0.00000000000E+00  0.00000000000E+00  0.74505805969E-08  0.10566000000E+00  0.10566000000E+00 0. -1.
     999900   -1    0    0    0    0 -0.00000000000E+00 -0.00000000000E+00 -0.74505805969E-08  0.93827000000E+00  0.93827000000E+00 0. -1.
     999902    2    1    2    0    0  0.72476614481E-02 -0.92712967262E-02  0.92905146409E-02  0.10289366948E+01  0.10288274504E+01 0.  0.
     999903    2    3    3    0    0 -0.61666628780E-01 -0.92640167851E-01 -0.68431061049E-01  0.13891411562E+00  0.47215967608E-01 0.  0.
         14    1    1    2    0    0 -0.72476614481E-02  0.92712967262E-02 -0.92905146409E-02  0.14993305231E-01  0.00000000000E+00 0.  1.
     999901    1    3    3    0    0  0.68914290228E-01  0.83368871125E-01  0.77721575690E-01  0.89002257915E+00  0.88000000000E+00 0.  1.
        -11    1    4    4    0    0 -0.56950071828E-01 -0.47791877266E-01 -0.32013043702E-01  0.80947330419E-01  0.51100000000E-03 0. -1.
         11    1    4    4    0    0 -0.47165569511E-02 -0.44848290585E-01 -0.36418017347E-01  0.57966785199E-01  0.51100000000E-03 0.  1.
</event>
<event>
 8    1  0.2824193E+004  0.1043930E+01  0.7957747E-01            NaN
         13   -1    0    0    0    0  0.00000000000E+00  0.00000000000E+00  0.74505805969E-08  0.10566000000E+00  0.10566000000E+00 0.  1.
     999900   -1    0    0    0    0 -0.00000000000E+00 -0.00000000000E+00 -0.74505805969E-08  0.93827000000E+00  0.93827000000E+00 0.  1.
     999902    2    1    2    0    0 -0.80615758434E-03  0.13713739165E-01  0.16956387080E-02  0.10300883338E+01  0.10299953319E+01 0.  0.
     999903    2    3    3    0    0  0.25995384708E-01 -0.11121480033E+00 -0.63516540155E-01  0.13847289490E+00  0.45780999441E-01 0.  0.
         14    1    1    2    0    0  0.80615758434E-03 -0.13713739165E-01 -0.16956387080E-02  0.13841666178E-01  0.00000000000E+00 0. -1.
     999901    1    3    3    0    0 -0.26801542293E-01  0.12492853950E+00  0.65212178863E-01  0.89161543892E+00  0.88000000000E+00 0.  1.
        -11    1    4    4    0    0  0.35427757780E-01 -0.58440750806E-01 -0.26393300523E-01  0.73261960181E-01  0.51100000000E-03 0.  1.
         11    1    4    4    0    0 -0.94323730722E-02 -0.52774049527E-01 -0.37123239632E-01  0.65210934720E-01  0.51100000000E-03 0. -1.
</event>
<event>
 7    1  0.2824193E+004  0.1043930E+01  0.7957747E-01            NaN
         13   -1    0    0    0    0  0.00000000000E+00  0.00000000000E+00  0.74505805969E-08  0.10566000000E+00  0.10566000000E+00 0.  1.
     999900   -1    0    0    0    0 -0.00000000000E+00 -0.00000000000E+00 -0.74505805969E-08  0.93827000000E+00  0.93827000000E+00 0. -1.
     999903    2    1    2    0    0 -0.95364503469E-01  0.40436302923E-02  0.65787733335E-01  0.12422451465E+00  0.44642633366E-01 0.  0.
         14    1    1    2    0    0  0.18566816130E-01 -0.85622031885E-03  0.25605010838E-01  0.31639790683E-01  0.00000000000E+00 0.  1.
     999901    1    1    2    0    0  0.76797687339E-01 -0.31874099734E-02 -0.91392744174E-01  0.88806569467E+00  0.88000000000E+00 0. -1.
        -11    1    3    3    0    0 -0.68675338403E-01 -0.17556379202E-01  0.47392167113E-01  0.85269028258E-01  0.51100000000E-03 0.  1.
         11    1    3    3    0    0 -0.26689165066E-01  0.21600009494E-01  0.18395566222E-01  0.38955486388E-01  0.51100000000E-03 0. -1.
</event>
<event>
 8    1  0.2824193E+004  0.1043930E+01  0.7957747E-01            NaN
         13   -1    0    0    0    0  0.00000000000E+00  0.00000000000E+00  0.74505805969E-08  0.10566000000E+00  0.10566000000E+00 0. -1.
     999900   -1    0    0    0    0 -0.00000000000E+00 -0.00000000000E+00 -0.74505805969E-08  0.93827000000E+00  0.93827000000E+00 0. -1.
     999902    2    1    2    0    0  0.45166739257E-02 -0.65161373103E-02  0.11543547211E-01  0.10299259338E+01  0.10298307216E+01 0.  0.
     999903    2    3    3    0    0 -0.34906168204E-01  0.54420333393E-01  0.11694434273E+00  0.14066964808E+00  0.43954036560E-01 0.  0.
         14    1    1    2    0    0 -0.45166739257E-02  0.65161373103E-02 -0.11543547211E-01  0.14004066232E-01  0.00000000000E+00 0.  1.
     999901    1    3    3    0    0  0.39422842129E-01 -0.60936470703E-01 -0.10540079551E+00  0.88925628569E+00  0.88000000000E+00 0. -1.
        -11    1    4    4    0    0 -0.29418127791E-01  0.19853448605E-01  0.28400753664E-01  0.45458218112E-01  0.51100000000E-03 0. -1.
         11    1    4    4    0    0 -0.54880404130E-02  0.34566884788E-01  0.88543589061E-01  0.95211429967E-01  0.51100000000E-03 0.  1.
</event>
<event>
 8    1  0.2824193E+004  0.1043930E+01  0.7957747E-01            NaN
         13   -1    0    0    0    0  0.00000000000E+00  0.00000000000E+00  0.74505805969E-08  0.10566000000E+00  0.10566000000E+00 0. -1.
     999900   -1    0    0    0    0 -0.00000000000E+00 -0.00000000000E+00 -0.74505805969E-08  0.93827000000E+00  0.93827000000E+00 0. -1.
     999902    2    1    2    0    0  0.13091752741E-01 -0.46126560280E-02 -0.60064234247E-02  0.10288055923E+01  0.10286944148E+01 0.  0.
     999903    2    3    3    0    0 -0.34415538668E-01  0.52404261927E-01  0.11351550926E+00  0.13763032108E+00  0.46105297619E-01 0.  0.
         14    1    1    2    0    0 -0.13091752741E-01  0.46126560280E-02  0.60064234247E-02  0.15124407685E-01  0.00000000000E+00 0.  1.
     999901    1    3    3    0    0  0.47507291408E-01 -0.57016917955E-01 -0.11952193268E+00  0.89117527124E+00  0.88000000000E+00 0. -1.
        -11    1    4    4    0    0 -0.28149670662E-01  0.37200329618E-01  0.37504487691E-01  0.59859136312E-01  0.51100000000E-03 0.  1.
         11    1    4    4    0    0 -0.62658680057E-02  0.15203932309E-01  0.76011021567E-01  0.77771184768E-01  0.51100000000E-03 0. -1.
</event>
<event>
 8    1  0.2824193E+004  0.1043930E+01  0.7957747E-01            NaN
         13   -1    0    0    0    0  0.00000000000E+00  0.00000000000E+00  0.74505805969E-08  0.10566000000E+00  0.10566000000E+00 0.  1.
     999900   -1    0    0    0    0 -0.00000000000E+00 -0.00000000000E+00 -0.74505805969E-08  0.93827000000E+00  0.93827000000E+00 0. -1.
     999902    2    1    2    0    0  0.20370833142E-02 -0.13702648600E-01  0.11131720063E-02  0.10300321067E+01  0.10299383425E+01 0.  0.
     999903    2    3    3    0    0 -0.35782750158E-01  0.92572737928E-01 -0.85694728137E-01  0.13859483512E+00  0.44886800672E-01 0.  0.
         14    1    1    2    0    0 -0.20370833142E-02  0.13702648600E-01 -0.11131720063E-02  0.13897893330E-01  0.00000000000E+00 0. -1.
     999901    1    3    3    0    0  0.37819833472E-01 -0.10627538653E+00  0.86807900143E-01  0.89143727155E+00  0.88000000000E+00 0.  1.
        -11    1    4    4    0    0 -0.14842632103E-01  0.53826861907E-01 -0.19618846240E-01  0.59184415510E-01  0.51100000000E-03 0. -1.
         11    1    4    4    0    0 -0.20940118055E-01  0.38745876021E-01 -0.66075881897E-01  0.79410419608E-01  0.51100000000E-03 0.  1.
</event>
<event>
 8    1  0.2824193E+004  0.1043930E+01  0.7957747E-01            NaN
         13   -1    0    0    0    0  0.00000000000E+00  0.00000000000E+00  0.74505805969E-08  0.10566000000E+00  0.10566000000E+00 0. -1.
     999900   -1    0    0    0    0 -0.00000000000E+00 -0.00000000000E+00 -0.74505805969E-08  0.93827000000E+00  0.93827000000E+00 0. -1.
     999902    2    1    2    0    0  0.15602923660E-01 -0.46926706896E-02  0.20852882314E-02  0.10275037767E+01  0.10273724691E+01 0.  0.
     999903    2    3    3    0    0 -0.26450641122E-02 -0.11716261894E+00  0.58521666568E-01  0.13836512434E+00  0.44565082026E-01 0.  0.
         14    1    1    2    0    0 -0.15602923660E-01  0.46926706896E-02 -0.20852882314E-02  0.16426223302E-01  0.00000000000E+00 0.  1.
     999901    1    3    3    0    0  0.18247987772E-01  0.11246994825E+00 -0.56436378337E-01  0.88913865236E+00  0.88000000000E+00 0. -1.
        -11    1    4    4    0    0 -0.22098364185E-01 -0.46862987215E-01  0.31139105712E-01  0.60451487127E-01  0.51100000000E-03 0. -1.
         11    1    4    4    0    0  0.19453300073E-01 -0.70299631721E-01  0.27382560856E-01  0.77913637214E-01  0.51100000000E-03 0.  1.
</event>
<event>
 8    1  0.2824193E+004  0.1043930E+01  0.7957747E-01            NaN
         13   -1    0    0    0    0  0.00000000000E+00  0.00000000000E+00  0.74505805969E-08  0.10566000000E+00  0.10566000000E+00 0.  1.
     999900   -1    0    0    0    0 -0.00000000000E+00 -0.00000000000E+00 -0.74505805969E-08  0.93827000000E+00  0.93827000000E+00 0. -1.
     999902    2    1    2    0    0 -0.95235095447E-02  0.64872627256E-03  0.98688792237E-02  0.10302000016E+01  0.10301085042E+01 0.  0.
     999903    2    3    3    0    0 -0.13085187037E+00  0.20149124404E-01  0.21615965848E-01  0.14158375666E+00  0.45282568145E-01 0.  0.
         14    1    1    2    0    0  0.95235095447E-02 -0.64872627256E-03 -0.98688792237E-02  0.13729998433E-01  0.00000000000E+00 0. -1.
     999901    1    3    3    0    0  0.12132836082E+00 -0.19500398131E-01 -0.11747086625E-01  0.88861624491E+00  0.88000000000E+00 0. -1.
        -11    1    4    4    0    0 -0.64769421918E-01  0.32850432239E-01  0.10663929438E-01  0.73404423749E-01  0.51100000000E-03 0.  1.
         11    1    4    4    0    0 -0.66082448450E-01 -0.12701307835E-01  0.10952036411E-01  0.68179332912E-01  0.51100000000E-03 0. -1.
</event>
<event>
 8    1  0.2824193E+004  0.1043930E+01  0.7957747E-01            NaN
         13   -1    0    0    0    0  0.00000000000E+00  0.00000000000E+00  0.74505805969E-08  0.10566000000E+00  0.10566000000E+00 0.  1.
     999900   -1    0    0    0    0 -0.00000000000E+00 -0.00000000000E+00 -0.74505805969E-08  0.93827000000E+00  0.93827000000E+00 0.  1.
     999902    2    1    2    0    0  0.80021051276E-03 -0.75569359279E-02 -0.71492269350E-02  0.10334964453E+01  0.10334437786E+01 0.  0.
     999903    2    3    3    0    0 -0.36832424262E-01 -0.12990377586E+00  0.21601932177E-01  0.14377087325E+00  0.44404977889E-01 0.  0.
         14    1    1    2    0    0 -0.80021051276E-03  0.75569359279E-02  0.71492269350E-02  0.10433554680E-01  0.00000000000E+00 0.  1.
     999901    1    3    3    0    0  0.37632634775E-01  0.12234683994E+00 -0.28751159112E-01  0.88972557207E+00  0.88000000000E+00 0.  1.
        -11    1    4    4    0    0 -0.56870188360E-02 -0.16037697758E-01 -0.12238362128E-01  0.20966367382E-01  0.51100000000E-03 0.  1.
         11    1    4    4    0    0 -0.31145405426E-01 -0.11386607811E+00  0.33840294306E-01  0.12280450587E+00  0.51100000000E-03 0. -1.
</event>
<event>
 8    1  0.2824193E+004  0.1043930E+01  0.7957747E-01            NaN
         13   -1    0    0    0    0  0.00000000000E+00  0.00000000000E+00  0.74505805969E-08  0.10566000000E+00  0.10566000000E+00 0. -1.
     999900   -1    0    0    0    0 -0.00000000000E+00 -0.00000000000E+00 -0.74505805969E-08  0.93827000000E+00  0.93827000000E+00 0. -1.
     999902    2    1    2    0    0 -0.10983346475E-01 -0.77013468068E-02 -0.46332411628E-02  0.10297380457E+01  0.10296402436E+01 0.  0.
     999903    2    3    3    0    0 -0.30882678702E-01 -0.86510269409E-01  0.96003639163E-01  0.14028056423E+00  0.44990792521E-01 0.  0.
         14    1    1    2    0    0  0.10983346475E-01  0.77013468068E-02  0.46332411628E-02  0.14191954273E-01  0.00000000000E+00 0. -1.
     999901    1    3    3    0    0  0.19899332227E-01  0.78808922602E-01 -0.10063688033E+00  0.88945748149E+00  0.88000000000E+00 0. -1.
        -11    1    4    4    0    0 -0.32566930733E-01 -0.32819604563E-01  0.29738533897E-01  0.54976112452E-01  0.51100000000E-03 0. -1.
         11    1    4    4    0    0  0.16842520307E-02 -0.53690664847E-01  0.66265105266E-01  0.85304451780E-01  0.51100000000E-03 0.  1.
</event>
<event>
 8    1  0.2824193E+004  0.1043930E+01  0.7957747E-01            NaN
         13   -1    0    0    0    0  0.00000000000E+00  0.00000000000E+00  0.74505805969E-08  0.10566000000E+00  0.10566000000E+00 0. -1.
     999900   -1    0    0    0    0 -0.00000000000E+00 -0.00000000000E+00 -0.74505805969E-08  0.93827000000E+00  0.93827000000E+00 0.  1.
     999902    2    1    2    0    0  0.88023353180E-02  0.56019369313E-02  0.79554851117E-02  0.10308093084E+01  0.10307258014E+01 0.  0.
     999903    2    3    3    0    0  0.90430025838E-01 -0.88395946912E-01  0.43891688568E-01  0.14132063915E+00  0.45316770852E-01 0.  0.
         14    1    1    2    0    0 -0.88023353180E-02 -0.56019369313E-02 -0.79554851117E-02  0.13120691590E-01  0.00000000000E+00 0.  1.
     999901    1    3    3    0    0 -0.81627690520E-01  0.93997883843E-01 -0.35936203456E-01  0.88948866926E+00  0.88000000000E+00 0.  1.
        -11    1    4    4    0    0  0.70329121915E-01 -0.41654654244E-01  0.15990415094E-01  0.83290156114E-01  0.51100000000E-03 0.  1.
         11    1    4    4    0    0  0.20100903923E-01 -0.46741292668E-01  0.27901273474E-01  0.58030483035E-01  0.51100000000E-03 0. -1.
</event>
<event>
 8    1  0.2824193E+004  0.1043930E+01  0.7957747E-01            NaN
         13   -1    0    0    0    0  0.00000000000E+00  0.00000000000E+00  0.74505805969E-08  0.10566000000E+00  0.10566000000E+00 0. -1.
     999900   -1    0    0    0    0 -0.00000000000E+00 -0.00000000000E+00 -0.74505805969E-08  0.93827000000E+00  0.93827000000E+00 0. -1.
     999902    2    1    2    0    0  0.17409117426E-03  0.17432214112E-02  0.13308198173E-01  0.10305069874E+01  0.10304195620E+01 0.  0.
     999903    2    3    3    0    0  0.95418074917E-01 -0.60280913432E-01  0.72075458972E-01  0.14125336740E+00  0.44936004169E-01 0.  0.
         14    1    1    2    0    0 -0.17409117426E-03 -0.17432214112E-02 -0.13308198173E-01  0.13423012600E-01  0.00000000000E+00 0.  1.
     999901    1    3    3    0    0 -0.95243983743E-01  0.62024134843E-01 -0.58767260798E-01  0.88925362000E+00  0.88000000000E+00 0.  1.
        -11    1    4    4    0    0  0.26834174298E-01 -0.38126540848E-01  0.43350536824E-01  0.63665031149E-01  0.51100000000E-03 0. -1.
         11    1    4    4    0    0  0.68583900619E-01 -0.22154372584E-01  0.28724922148E-01  0.77588336251E-01  0.51100000000E-03 0.  1.
</event>
<event>
 8    1  0.2824193E+004  0.1043930E+01  0.7957747E-01            NaN
         13   -1    0    0    0    0  0.00000000000E+00  0.00000000000E+00  0.74505805969E-08  0.10566000000E+00  0.10566000000E+00 0. -1.
     999900   -1    0    0    0    0 -0.00000000000E+00 -0.00000000000E+00 -0.74505805969E-08  0.93827000000E+00  0.93827000000E+00 0.  1.
     999902    2    1    2    0    0  0.12682605079E-01 -0.12028765838E-01 -0.18167651392E-01  0.10187188272E+01  0.10184068173E+01 0.  0.
     999903    2    3    3    0    0  0.97590593102E-02 -0.95972893202E-01  0.73814910885E-01  0.12994666546E+00  0.46167730366E-01 0.  0.
         14    1    1    2    0    0 -0.12682605079E-01  0.12028765838E-01  0.18167651392E-01  0.25211172846E-01  0.00000000000E+00 0. -1.
     999901    1    3    3    0    0  0.29235457688E-02  0.83944127364E-01 -0.91982562277E-01  0.88877216169E+00  0.88000000000E+00 0.  1.
        -11    1    4    4    0    0  0.24733911339E-01 -0.43152840661E-01  0.48553164945E-01  0.69509747333E-01  0.51100000000E-03 0. -1.
         11    1    4    4    0    0 -0.14974852029E-01 -0.52820052541E-01  0.25261745940E-01  0.60436918127E-01  0.51100000000E-03 0.  1.
</event>
<event>
 8    1  0.2824193E+004  0.1043930E+01  0.7957747E-01            NaN
         13   -1    0    0    0    0  0.00000000000E+00  0.00000000000E+00  0.74505805969E-08  0.10566000000E+00  0.10566000000E+00 0.  1.
     999900   -1    0    0    0    0 -0.00000000000E+00 -0.00000000000E+00 -0.74505805969E-08  0.93827000000E+00  0.93827000000E+00 0.  1.
     999902    2    1    2    0    0  0.82129326233E-03  0.67982561744E-02 -0.12351328504E-01  0.10298074604E+01  0.10297106192E+01 0.  0.
     999903    2    3    3    0    0  0.49071552131E-01 -0.11122255660E+00 -0.52707992263E-01  0.13970316309E+00  0.44276031935E-01 0.  0.
         14    1    1    2    0    0 -0.82129326233E-03 -0.67982561744E-02  0.12351328504E-01  0.14122539624E-01  0.00000000000E+00 0.  1.
     999901    1    3    3    0    0 -0.48250258869E-01  0.11802081278E+00  0.40356663759E-01  0.89010429728E+00  0.88000000000E+00 0. -1.
        -11    1    4    4    0    0  0.32486858753E-01 -0.52851931550E-01 -0.45023934350E-02  0.62203338558E-01  0.51100000000E-03 0.  1.
         11    1    4    4    0    0  0.16584693379E-01 -0.58370625054E-01 -0.48205598828E-01  0.77499824536E-01  0.51100000000E-03 0. -1.
</event>
<event>
 8    1  0.2824193E+004  0.1043930E+01  0.7957747E-01            NaN
         13   -1    0    0    0    0  0.00000000000E+00  0.00000000000E+00  0.74505805969E-08  0.10566000000E+00  0.10566000000E+00 0. -1.
     999900   -1    0    0    0    0 -0.00000000000E+00 -0.00000000000E+00 -0.74505805969E-08  0.93827000000E+00  0.93827000000E+00 0.  1.
     999902    2    1    2    0    0 -0.24670906879E-02  0.51473443295E-02 -0.12489225950E-01  0.10301981955E+01  0.10301066739E+01 0.  0.
     999903    2    3    3    0    0 -0.64008283613E-01  0.11007610034E+00 -0.41109601815E-01  0.14136947849E+00  0.45623698325E-01 0.  0.
         14    1    1    2    0    0  0.24670906879E-02 -0.51473443295E-02  0.12489225950E-01  0.13731804504E-01  0.00000000000E+00 0. -1.
     999901    1    3    3    0    0  0.61541192925E-01 -0.10492875601E+00  0.28620375865E-01  0.88882871701E+00  0.88000000000E+00 0. -1.
        -11    1    4    4    0    0 -0.24387606937E-02  0.38264156620E-01 -0.24011207818E-01  0.45242595609E-01  0.51100000000E-03 0. -1.
         11    1    4    4    0    0 -0.61569522919E-01  0.71811943722E-01 -0.17098393997E-01  0.96126882878E-01  0.51100000000E-03 0.  1.
</event>
<event>
 8    1  0.2824193E+004  0.1043930E+01  0.7957747E-01            NaN
         13   -1    0    0    0    0  0.00000000000E+00  0.00000000000E+00  0.74505805969E-08  0.10566000000E+00  0.10566000000E+00 0. -1.
     999900   -1    0    0    0    0 -0.00000000000E+00 -0.00000000000E+00 -0.74505805969E-08  0.93827000000E+00  0.93827000000E+00 0.  1.
     999902    2    1    2    0    0 -0.88565987754E-02  0.28494409683E-02 -0.65938347114E-02  0.10325266096E+01  0.10324636373E+01 0.  0.
     999903    2    3    3    0    0  0.99783622004E-01  0.23781784215E-01  0.84512651142E-01  0.14093182929E+00  0.46872676729E-01 0.  0.
         14    1    1    2    0    0  0.88565987754E-02 -0.28494409683E-02  0.65938347114E-02  0.11403390369E-01  0.00000000000E+00 0. -1.
     999901    1    3    3    0    0 -0.10864022078E+00 -0.20932343247E-01 -0.91106485853E-01  0.89159478034E+00  0.88000000000E+00 0.  1.
        -11    1    4    4    0    0  0.34189178618E-01  0.12639423893E-01  0.42875420591E-02  0.36705573266E-01  0.51100000000E-03 0.  1.
         11    1    4    4    0    0  0.65594443386E-01  0.11142360322E-01  0.80225109083E-01  0.10422625603E+00  0.51100000000E-03 0. -1.
</event>
<event>
 8    1  0.2824193E+004  0.1043930E+01  0.7957747E-01            NaN
         13   -1    0    0    0    0  0.00000000000E+00  0.00000000000E+00  0.74505805969E-08  0.10566000000E+00  0.10566000000E+00 0.  1.
     999900   -1    0    0    0    0 -0.00000000000E+00 -0.00000000000E+00 -0.74505805969E-08  0.93827000000E+00  0.93827000000E+00 0. -1.
     999902    2    1    2    0    0 -0.96941534978E-02 -0.87286155745E-02 -0.17130678368E-02  0.10307732548E+01  0.10306892854E+01 0.  0.
     999903    2    3    3    0    0 -0.64986822286E-01  0.11550113787E+00 -0.15269163035E-01  0.14022618782E+00  0.43202274130E-01 0.  0.
         14    1    1    2    0    0  0.96941534978E-02  0.87286155745E-02  0.17130678368E-02  0.13156745164E-01  0.00000000000E+00 0. -1.
     999901    1    3    3    0    0  0.55292668788E-01 -0.12422975344E+00  0.13556095198E-01  0.89054706702E+00  0.88000000000E+00 0.  1.
        -11    1    4    4    0    0 -0.26850676257E-01  0.88814205780E-01 -0.82647173966E-02  0.93153038804E-01  0.51100000000E-03 0. -1.
         11    1    4    4    0    0 -0.38136146029E-01  0.26686932088E-01 -0.70044456383E-02  0.47073149012E-01  0.51100000000E-03 0.  1.
</event>
<event>
 8    1  0.2824193E+004  0.1043930E+01  0.7957747E-01            NaN
         13   -1    0    0    0    0  0.00000000000E+00  0.00000000000E+00  0.74505805969E-08  0.10566000000E+00  0.10566000000E+00 0.  1.
     999900   -1    0    0    0    0 -0.00000000000E+00 -0.00000000000E+00 -0.74505805969E-08  0.93827000000E+00  0.93827000000E+00 0. -1.
     999902    2    1    2    0    0  0.34214803043E-02  0.10604120152E-01 -0.96443001841E-02  0.10291934326E+01  0.10290879240E+01 0.  0.
     999903    2    3    3    0    0  0.39582273346E-01 -0.96916833403E-01 -0.79692252845E-01  0.13915125719E+00  0.45305499143E-01 0.  0.
         14    1    1    2    0    0 -0.34214803043E-02 -0.10604120152E-01  0.96443001841E-02  0.14736567365E-01  0.00000000000E+00 0.  1.
     999901    1    3    3    0    0 -0.36160793042E-01  0.10752095355E+00  0.70047952661E-01  0.89004217545E+00  0.88000000000E+00 0.  1.
        -11    1    4    4    0    0  0.36574280869E-01 -0.94603958479E-01 -0.57424005863E-01  0.11655627204E+00  0.51100000000E-03 0. -1.
         11    1    4    4    0    0  0.30079924774E-02 -0.23128749240E-02 -0.22268246982E-01  0.22594985147E-01  0.51100000000E-03 0.  1.
</event>
<event>
 8    1  0.2824193E+004  0.1043930E+01  0.7957747E-01            NaN
         13   -1    0    0    0    0  0.00000000000E+00  0.00000000000E+00  0.74505805969E-08  0.10566000000E+00  0.10566000000E+00 0.  1.
     999900   -1    0    0    0    0 -0.00000000000E+00 -0.00000000000E+00 -0.74505805969E-08  0.93827000000E+00  0.93827000000E+00 0. -1.
     999902    2    1    2    0    0  0.60315804840E-03 -0.66509278720E-02 -0.12781512834E-01  0.10295089837E+01  0.10294079764E+01 0.  0.
     999903    2    3    3    0    0 -0.56540633907E-01  0.37103648490E-01  0.11217582252E+00  0.13777235689E+00  0.42711627809E-01 0.  0.
         14    1    1    2    0    0 -0.60315804840E-03  0.66509278720E-02  0.12781512834E-01  0.14421016313E-01  0.00000000000E+00 0.  1.
     999901    1    3    3    0    0  0.57143791955E-01 -0.43754576362E-01 -0.12495733536E+00  0.89173662680E+00  0.88000000000E+00 0. -1.
        -11    1    4    4    0    0 -0.24936521326E-01 -0.49170300479E-02  0.23177266459E-01  0.34401367441E-01  0.51100000000E-03 0. -1.
         11    1    4    4    0    0 -0.31604112581E-01  0.42020678538E-01  0.88998556065E-01  0.10337098945E+00  0.51100000000E-03 0.  1.
</event>
<event>
 8    1  0.2824193E+004  0.1043930E+01  0.7957747E-01            NaN
         13   -1    0    0    0    0  0.00000000000E+00  0.00000000000E+00  0.74505805969E-08  0.10566000000E+00  0.10566000000E+00 0. -1.
     999900   -1    0    0    0    0 -0.00000000000E+00 -0.00000000000E+00 -0.74505805969E-08  0.93827000000E+00  0.93827000000E+00 0. -1.
     999902    2    1    2    0    0 -0.24246874944E-02  0.13324882038E-01 -0.38997830137E-02  0.10298360333E+01  0.10297395863E+01 0.  0.
     999903    2    3    3    0    0  0.80350105272E-01  0.98546280475E-01 -0.40764576652E-01  0.14108783153E+00  0.45568812634E-01 0.  0.
         14    1    1    2    0    0  0.24246874944E-02 -0.13324882038E-01  0.38997830137E-02  0.14093966735E-01  0.00000000000E+00 0. -1.
     999901    1    3    3    0    0 -0.82774792766E-01 -0.85221398437E-01  0.36864793638E-01  0.88874820173E+00  0.88000000000E+00 0.  1.
        -11    1    4    4    0    0  0.70260430043E-01  0.64966152278E-01 -0.13443030902E-01  0.96633871766E-01  0.51100000000E-03 0. -1.
         11    1    4    4    0    0  0.10089675228E-01  0.33580128197E-01 -0.27321545750E-01  0.44453959768E-01  0.51100000000E-03 0.  1.
</event>
<event>
 8    1  0.2824193E+004  0.1043930E+01  0.7957747E-01            NaN
         13   -1    0    0    0    0  0.00000000000E+00  0.00000000000E+00  0.74505805969E-08  0.10566000000E+00  0.10566000000E+00 0.  1.
     999900   -1    0    0    0    0 -0.00000000000E+00 -0.00000000000E+00 -0.74505805969E-08  0.93827000000E+00  0.93827000000E+00 0.  1.
     999902    2    1    2    0    0  0.82800957739E-02  0.24551407182E-02  0.90091964265E-02  0.10314498829E+01  0.10313743780E+01 0.  0.
     999903    2    3    3    0    0  0.13378986320E+00  0.55805198019E-02 -0.16684732448E-01  0.14216778612E+00  0.44748513013E-01 0.  0.
         14    1    1    2    0    0 -0.82800957739E-02 -0.24551407182E-02 -0.90091964265E-02  0.12480117076E-01  0.00000000000E+00 0. -1.
     999901    1    3    3    0    0 -0.12550976743E+00 -0.31253790837E-02  0.25693928875E-01  0.88928209680E+00  0.88000000000E+00 0.  1.
        -11    1    4    4    0    0  0.10421170366E+00  0.96237000339E-02 -0.30866612007E-01  0.10911326060E+00  0.51100000000E-03 0.  1.
         11    1    4    4    0    0  0.29578159545E-01 -0.40431802320E-02  0.14181879559E-01  0.33054525519E-01  0.51100000000E-03 0. -1.
</event>
<event>
 7    1  0.2824193E+004  0.1043930E+01  0.7957747E-01            NaN
         13   -1    0    0    0    0  0.00000000000E+00  0.00000000000E+00  0.74505805969E-08  0.10566000000E+00  0.10566000000E+00 0.  1.
     999900   -1    0    0    0    0 -0.00000000000E+00 -0.00000000000E+00 -0.74505805969E-08  0.93827000000E+00  0.93827000000E+00 0.  1.
     999903    2    1    2    0    0  0.37300141954E-01 -0.98250861899E-01 -0.19414628304E-01  0.11639291173E+00  0.46106937175E-01 0.  0.
         14    1    1    2    0    0 -0.23268575132E-01  0.13669874753E-01 -0.32019851233E-01  0.41875564920E-01  0.00000000000E+00 0. -1.
     999901    1    1    2    0    0 -0.14031566822E-01  0.84580987146E-01  0.51434479537E-01  0.88566152335E+00  0.88000000000E+00 0. -1.
        -11    1    3    3    0    0  0.24602359266E-01 -0.33812962899E-01 -0.27747415050E-01  0.50187375946E-01  0.51100000000E-03 0.  1.
         11    1    3    3    0    0  0.12697782688E-01 -0.64437899000E-01  0.83327867455E-02  0.66205535786E-01  0.51100000000E-03 0. -1.
</event>
<event>
 8    1  0.2824193E+004  0.1043930E+01  0.7957747E-01            NaN
         13   -1    0    0    0    0  0.00000000000E+00  0.00000000000E+00  0.74505805969E-08  0.10566000000E+00  0.10566000000E+00 0. -1.
     999900   -1    0    0    0    0 -0.00000000000E+00 -0.00000000000E+00 -0.74505805969E-08  0.93827000000E+00  0.93827000000E+00 0.  1.
     999902    2    1    2    0    0 -0.68198794032E-02 -0.11737004836E-01 -0.23409665988E-02  0.10301550894E+01  0.10300629884E+01 0.  0.
     999903    2    3    3    0    0  0.86915147305E-02 -0.96978761823E-01  0.91715239651E-01  0.14091196717E+00  0.44317881666E-01 0.  0.
         14    1    1    2    0    0  0.68198794032E-02  0.11737004836E-01  0.23409665988E-02  0.13774910606E-01  0.00000000000E+00 0.  1.
     999901    1    3    3    0    0 -0.15511394134E-01  0.85241756987E-01 -0.94056206250E-01  0.88924312222E+00  0.88000000000E+00 0.  1.
        -11    1    4    4    0    0  0.11939494530E-01 -0.44453046059E-01  0.16061274350E-01  0.48752953636E-01  0.51100000000E-03 0.  1.
         11    1    4    4    0    0 -0.32479797991E-02 -0.52525715764E-01  0.75653965301E-01  0.92159013537E-01  0.51100000000E-03 0. -1.
</event>
<event>
 8    1  0.2824193E+004  0.1043930E+01  0.7957747E-01            NaN
         13   -1    0    0    0    0  0.00000000000E+00  0.00000000000E+00  0.74505805969E-08  0.10566000000E+00  0.10566000000E+00 0. -1.
     999900   -1    0    0    0    0 -0.00000000000E+00 -0.00000000000E+00 -0.74505805969E-08  0.93827000000E+00  0.93827000000E+00 0. -1.
     999902    2    1    2    0    0 -0.17090913371E-02  0.77257256464E-03  0.14559584071E-01  0.10292501039E+01  0.10291454110E+01 0.  0.
     999903    2    3    3    0    0 -0.92905162797E-01  0.76902530458E-01 -0.52093657344E-01  0.13876981296E+00  0.44698360016E-01 0.  0.
         14    1    1    2    0    0  0.17090913371E-02 -0.77257256464E-03 -0.14559584071E-01  0.14679896113E-01  0.00000000000E+00 0.  1.
     999901    1    3    3    0    0  0.91196071460E-01 -0.76129957893E-01  0.66653241415E-01  0.89048029093E+00  0.88000000000E+00 0. -1.
        -11    1    4    4    0    0 -0.59386374592E-01  0.46419415782E-01 -0.55086622652E-01  0.93361130911E-01  0.51100000000E-03 0. -1.
         11    1    4    4    0    0 -0.33518788205E-01  0.30483114676E-01  0.29929653076E-02  0.45408682049E-01  0.51100000000E-03 0.  1.
</event>
<event>
 8    1  0.2824193E+004  0.1043930E+01  0.7957747E-01            NaN
         13   -1    0    0    0    0  0.00000000000E+00  0.00000000000E+00  0.74505805969E-08  0.10566000000E+00  0.10566000000E+00 0. -1.
     999900   -1    0    0    0    0 -0.00000000000E+00 -0.00000000000E+00 -0.74505805969E-08  0.93827000000E+00  0.93827000000E+00 0. -1.
     999902    2    1    2    0    0  0.85837411959E-02 -0.11404298347E-02  0.10337118407E-01  0.10304452972E+01  0.10303570611E+01 0.  0.
     999903    2    3    3    0    0  0.12949155479E+00  0.13955456525E-01  0.32608668816E-01  0.14177066205E+00  0.45527769630E-01 0.  0.
         14    1    1    2    0    0 -0.85837411959E-02  0.11404298347E-02 -0.10337118407E-01  0.13484702818E-01  0.00000000000E+00 0.  1.
     999901    1    3    3    0    0 -0.12090781359E+00 -0.15095886360E-01 -0.22271550409E-01  0.88867463513E+00  0.88000000000E+00 0.  1.
        -11    1    4    4    0    0  0.75663070098E-01  0.30495863417E-01  0.21595341393E-01  0.84389085509E-01  0.51100000000E-03 0.  1.
         11    1    4    4    0    0  0.53828484691E-01 -0.16540406892E-01  0.11013327423E-01  0.57381576540E-01  0.51100000000E-03 0. -1.
</event>
<event>
 8    1  0.2824193E+004  0.1043930E+01  0.7957747E-01            NaN
         13   -1    0    0    0    0  0.00000000000E+00  0.00000000000E+00  0.74505805969E-08  0.10566000000E+00  0.10566000000E+00 0.  1.
     999900   -1    0    0    0    0 -0.00000000000E+00 -0.00000000000E+00 -0.74505805969E-08  0.93827000000E+00  0.93827000000E+00 0.  1.
     999902    2    1    2    0    0 -0.77990577134E-02 -0.10850396405E-01 -0.52941716861E-02  0.10295569468E+01  0.10294566150E+01 0.  0.
     999903    2    3    3    0    0 -0.77066523169E-01  0.10576135758E+00  0.10303173881E-01  0.13902926050E+00  0.45806835001E-01 0.  0.
         14    1    1    2    0    0  0.77990577134E-02  0.10850396405E-01  0.52941716861E-02  0.14373053162E-01  0.00000000000E+00 0.  1.
     999901    1    3    3    0    0  0.69267465455E-01 -0.11661175399E+00 -0.15597345567E-01  0.89052768633E+00  0.88000000000E+00 0.  1.
        -11    1    4    4    0    0 -0.59629349172E-01  0.58247335097E-01  0.23716591150E-01  0.86666886095E-01  0.51100000000E-03 0. -1.
         11    1    4    4    0    0 -0.17437173997E-01  0.47514022487E-01 -0.13413417269E-01  0.52362374409E-01  0.51100000000E-03 0.  1.
</event>
<event>
 8    1  0.2824193E+004  0.1043930E+01  0.7957747E-01            NaN
         13   -1    0    0    0    0  0.00000000000E+00  0.00000000000E+00  0.74505805969E-08  0.10566000000E+00  0.10566000000E+00 0. -1.
     999900   -1    0    0    0    0 -0.00000000000E+00 -0.00000000000E+00 -0.74505805969E-08  0.93827000000E+00  0.93827000000E+00 0. -1.
     999902    2    1    2    0    0 -0.68949460429E-02 -0.42071159551E-02 -0.10781493880E-01  0.10304585221E+01  0.10303704601E+01 0.  0.
     999903    2    3    3    0    0 -0.17532611217E-01 -0.83045187702E-01  0.10594502292E+00  0.13919330841E+00  0.30765785657E-01 0.  0.
         14    1    1    2    0    0  0.68949460429E-02  0.42071159551E-02  0.10781493880E-01  0.13471477865E-01  0.00000000000E+00 0. -1.
     999901    1    3    3    0    0  0.10637665174E-01  0.78838071747E-01 -0.11672651680E+00  0.89126521373E+00  0.88000000000E+00 0. -1.
        -11    1    4    4    0    0  0.82983499868E-02 -0.31545236113E-01  0.40304403865E-01  0.51852392672E-01  0.51100000000E-03 0.  1.
         11    1    4    4    0    0 -0.25830961204E-01 -0.51499951589E-01  0.65640619055E-01  0.87340915735E-01  0.51100000000E-03 0. -1.
</event>
<event>
 8    1  0.2824193E+004  0.1043930E+01  0.7957747E-01            NaN
         13   -1    0    0    0    0  0.00000000000E+00  0.00000000000E+00  0.74505805969E-08  0.10566000000E+00  0.10566000000E+00 0.  1.
     999900   -1    0    0    0    0 -0.00000000000E+00 -0.00000000000E+00 -0.74505805969E-08  0.93827000000E+00  0.93827000000E+00 0.  1.
     999902    2    1    2    0    0  0.42054267414E-02 -0.89757205023E-02  0.10185083649E-01  0.10297178537E+01  0.10296197712E+01 0.  0.
     999903    2    3    3    0    0  0.92779009290E-01 -0.44234323898E-01 -0.83224605532E-01  0.13965391295E+00  0.44858226248E-01 0.  0.
         14    1    1    2    0    0 -0.42054267414E-02  0.89757205023E-02 -0.10185083649E-01  0.14212146268E-01  0.00000000000E+00 0. -1.
     999901    1    3    3    0    0 -0.88573582548E-01  0.35258603396E-01  0.93409689180E-01  0.89006394078E+00  0.88000000000E+00 0. -1.
        -11    1    4    4    0    0  0.57405130199E-01 -0.18714927306E-01 -0.21548420273E-01  0.64110787037E-01  0.51100000000E-03 0.  1.
         11    1    4    4    0    0  0.35373879091E-01 -0.25519396592E-01 -0.61676185259E-01  0.75543125918E-01  0.51100000000E-03 0. -1.
</event>
<event>
 8    1  0.2824193E+004  0.1043930E+01  0.7957747E-01            NaN
         13   -1    0    0    0    0  0.00000000000E+00  0.00000000000E+00  0.74505805969E-08  0.10566000000E+00  0.10566000000E+00 0. -1.
     999900   -1    0    0    0    0 -0.00000000000E+00 -0.00000000000E+00 -0.74505805969E-08  0.93827000000E+00  0.93827000000E+00 0.  1.
     999902    2    1    2    0    0  0.11144355213E-01 -0.37572616626E-02  0.43558558074E-02  0.10313885827E+01  0.10313123297E+01 0.  0.
     999903    2    3    3    0    0  0.47987694878E-02  0.72923819203E-01 -0.11154948506E+00  0.14045968392E+00  0.44099020346E-01 0.  0.
         14    1    1    2    0    0 -0.11144355213E-01  0.37572616626E-02 -0.43558558074E-02  0.12541417309E-01  0.00000000000E+00 0. -1.
     999901    1    3    3    0    0  0.63455857251E-02 -0.76681080866E-01  0.11590534086E+00  0.89092889877E+00  0.88000000000E+00 0. -1.
        -11    1    4    4    0    0  0.22382253819E-01  0.57188390198E-01 -0.85996175287E-01  0.10567440818E+00  0.51100000000E-03 0. -1.
         11    1    4    4    0    0 -0.17583484331E-01  0.15735429005E-01 -0.25553309769E-01  0.34785275741E-01  0.51100000000E-03 0.  1.
</event>
<event>
 8    1  0.2824193E+004  0.1043930E+01  0.7957747E-01            NaN
         13   -1    0    0    0    0  0.00000000000E+00  0.00000000000E+00  0.74505805969E-08  0.10566000000E+00  0.10566000000E+00 0.  1.
     999900   -1    0    0    0    0 -0.00000000000E+00 -0.00000000000E+00 -0.74505805969E-08  0.93827000000E+00  0.93827000000E+00 0.  1.
     999902    2    1    2    0    0 -0.29396589093E-02  0.71993912289E-02 -0.89987964564E-02  0.10320366756E+01  0.10319681432E+01 0.  0.
     999903    2    3    3    0    0 -0.12360597374E+00 -0.20640825898E-01 -0.50569760660E-01  0.14239428545E+00  0.44881526234E-01 0.  0.
         14    1    1    2    0    0  0.29396589093E-02 -0.71993912289E-02  0.89987964564E-02  0.11893324440E-01  0.00000000000E+00 0.  1.
     999901    1    3    3    0    0  0.12066631483E+00  0.27840217127E-01  0.41570964203E-01  0.88964239011E+00  0.88000000000E+00 0. -1.
        -11    1    4    4    0    0 -0.53490495344E-01 -0.14709206258E-01 -0.45666283941E-01  0.71855858848E-01  0.51100000000E-03 0.  1.
         11    1    4    4    0    0 -0.70115478393E-01 -0.59316196404E-02 -0.49034767190E-02  0.70538426597E-01  0.51100000000E-03 0. -1.
</event>
<event>
 8    1  0.2824193E+004  0.1043930E+01  0.7957747E-01            NaN
         13   -1    0    0    0    0  0.00000000000E+00  0.00000000000E+00  0.74505805969E-08  0.10566000000E+00  0.10566000000E+00 0. -1.
     999900   -1    0    0    0    0 -0.00000000000E+00 -0.00000000000E+00 -0.74505805969E-08  0.93827000000E+00  0.93827000000E+00 0. -1.
     999902    2    1    2    0    0  0.10987545525E-01  0.52070673864E-03  0.72868954549E-02  0.10307354505E+01  0.10306509946E+01 0.  0.
     999903    2    3    3    0    0 -0.39593779862E-01  0.19958140114E-01 -0.12415841816E+00  0.13932412298E+00  0.45054452424E-01 0.  0.
         14    1    1    2    0    0 -0.10987545525E-01 -0.52070673864E-03 -0.72868954549E-02  0.13194549539E-01  0.00000000000E+00 0.  1.
     999901    1    3    3    0    0  0.50581325388E-01 -0.19437433375E-01  0.13144531361E+00  0.89141132748E+00  0.88000000000E+00 0.  1.
        -11    1    4    4    0    0 -0.31557357121E-01 -0.82702226443E-02 -0.51564775360E-01  0.61020083169E-01  0.51100000000E-03 0. -1.
         11    1    4    4    0    0 -0.80364227410E-02  0.28228362758E-01 -0.72593642799E-01  0.78304039808E-01  0.51100000000E-03 0.  1.
</event>
<event>
 8    1  0.2824193E+004  0.1043930E+01  0.7957747E-01            NaN
         13   -1    0    0    0    0  0.00000000000E+00  0.00000000000E+00  0.74505805969E-08  0.10566000000E+00  0.10566000000E+00 0.  1.
     999900   -1    0    0    0    0 -0.00000000000E+00 -0.00000000000E+00 -0.74505805969E-08  0.93827000000E+00  0.93827000000E+00 0.  1.
     999902    2    1    2    0    0 -0.12024522159E-01  0.31900353210E-02 -0.44869015872E-02  0.10307051089E+01  0.10306202617E+01 0.  0.
     999903    2    3    3    0    0  0.10839432820E+00 -0.58757609416E-02 -0.74864420913E-01  0.13967431067E+00  0.46047547050E-01 0.  0.
         14    1    1    2    0    0  0.12024522159E-01 -0.31900353210E-02  0.44869015872E-02  0.13224891091E-01  0.00000000000E+00 0.  1.
     999901    1    3    3    0    0 -0.12041885036E+00  0.90657962626E-02  0.70377519326E-01  0.89103079824E+00  0.88000000000E+00 0.  1.
        -11    1    4    4    0    0  0.14986278720E-01 -0.10659869836E-01 -0.31724017403E-01  0.36672820671E-01  0.51100000000E-03 0. -1.
         11    1    4    4    0    0  0.93408049482E-01  0.47841088939E-02 -0.43140403510E-01  0.10300149000E+00  0.51100000000E-03 0.  1.
</event>
<event>
 8    1  0.2824193E+004  0.1043930E+01  0.7957747E-01            NaN
         13   -1    0    0    0    0  0.00000000000E+00  0.00000000000E+00  0.74505805969E-08  0.10566000000E+00  0.10566000000E+00 0.  1.
     999900   -1    0    0    0    0 -0.00000000000E+00 -0.00000000000E+00 -0.74505805969E-08  0.93827000000E+00  0.93827000000E+00 0.  1.
     999902    2    1    2    0    0  0.80633221856E-02  0.57872967599E-02 -0.93922632436E-02  0.10302652798E+01  0.10301746562E+01 0.  0.
     999903    2    3    3    0    0 -0.28394731229E-01  0.94692474388E-01 -0.90237124326E-01  0.14135065410E+00  0.45435045304E-01 0.  0.
         14    1    1    2    0    0 -0.80633221856E-02 -0.57872967599E-02  0.93922632436E-02  0.13664720169E-01  0.00000000000E+00 0.  1.
     999901    1    3    3    0    0  0.36458053414E-01 -0.88905177628E-01  0.80844861082E-01  0.88891462573E+00  0.88000000000E+00 0. -1.
        -11    1    4    4    0    0 -0.43473118571E-03  0.25340702580E-02 -0.24746931979E-01  0.24885382590E-01  0.51100000000E-03 0.  1.
         11    1    4    4    0    0 -0.27960000043E-01  0.92158404130E-01 -0.65490192347E-01  0.11646527151E+00  0.51100000000E-03 0. -1.
</event>
<event>
 8    1  0.2824193E+004  0.1043930E+01  0.7957747E-01            NaN
         13   -1    0    0    0    0  0.00000000000E+00  0.00000000000E+00  0.74505805969E-08  0.10566000000E+00  0.10566000000E+00 0.  1.
     999900   -1    0    0    0    0 -0.00000000000E+00 -0.00000000000E+00 -0.74505805969E-08  0.93827000000E+00  0.93827000000E+00 0. -1.
     999902    2    1    2    0    0  0.93349962495E-02  0.86423437381E-02 -0.62847853954E-02  0.10297408919E+01  0.10296431293E+01 0.  0.
     999903    2    3    3    0    0 -0.50449574435E-01  0.69200574357E-01 -0.10168339925E+00  0.14050392143E+00  0.45474819430E-01 0.  0.
         14    1    1    2    0    0 -0.93349962495E-02 -0.86423437381E-02  0.62847853954E-02  0.14189108067E-01  0.00000000000E+00 0.  1.
     999901    1    3    3    0    0  0.59784570685E-01 -0.60558230619E-01  0.95398613852E-01  0.88923697050E+00  0.88000000000E+00 0. -1.
        -11    1    4    4    0    0 -0.22472787589E-02  0.28069158845E-01 -0.55016899384E-01  0.61806539127E-01  0.51100000000E-03 0. -1.
         11    1    4    4    0    0 -0.48202295677E-01  0.41131415512E-01 -0.46666499864E-01  0.78697382301E-01  0.51100000000E-03 0.  1.
</event>
<event>
 8    1  0.2824193E+004  0.1043930E+01  0.7957747E-01            NaN
         13   -1    0    0    0    0  0.00000000000E+00  0.00000000000E+00  0.74505805969E-08  0.10566000000E+00  0.10566000000E+00 0. -1.
     999900   -1    0    0    0    0 -0.00000000000E+00 -0.00000000000E+00 -0.74505805969E-08  0.93827000000E+00  0.93827000000E+00 0.  1.
     999902    2    1    2    0    0 -0.89619427868E-02  0.89527913758E-02  0.50153762294E-02  0.10303056508E+01  0.10302155654E+01 0.  0.
     999903    2    3    3    0    0 -0.60406876018E-01  0.65164093412E-01  0.10099069747E+00  0.14181392102E+00  0.44907877701E-01 0.  0.
         14    1    1    2    0    0  0.89619427868E-02 -0.89527913758E-02 -0.50153762294E-02  0.13624349183E-01  0.00000000000E+00 0.  1.
     999901    1    3    3    0    0  0.51444933231E-01 -0.56211302036E-01 -0.95975321238E-01  0.88849172980E+00  0.88000000000E+00 0.  1.
        -11    1    4    4    0    0 -0.25522506804E-01  0.28677145799E-01  0.13302539316E-01  0.40632446616E-01  0.51100000000E-03 0. -1.
         11    1    4    4    0    0 -0.34884369214E-01  0.36486947613E-01  0.87688158151E-01  0.10118147440E+00  0.51100000000E-03 0.  1.
</event>
<event>
 8    1  0.2824193E+004  0.1043930E+01  0.7957747E-01            NaN
         13   -1    0    0    0    0  0.00000000000E+00  0.00000000000E+00  0.74505805969E-08  0.10566000000E+00  0.10566000000E+00 0.  1.
     999900   -1    0    0    0    0 -0.00000000000E+00 -0.00000000000E+00 -0.74505805969E-08  0.93827000000E+00  0.93827000000E+00 0.  1.
     999902    2    1    2    0    0 -0.25812463029E-02  0.14981108085E-02 -0.13861883687E-01  0.10297504729E+01  0.10296528432E+01 0.  0.
     999903    2    3    3    0    0 -0.66046485849E-01 -0.10527065794E+00 -0.46128200348E-01  0.14044258373E+00  0.46392442708E-01 0.  0.
         14    1    1    2    0    0  0.25812463029E-02 -0.14981108085E-02  0.13861883687E-01  0.14179527067E-01  0.00000000000E+00 0.  1.
     999901    1    3    3    0    0  0.63465239547E-01  0.10676876875E+00  0.32266316661E-01  0.88930788920E+00  0.88000000000E+00 0. -1.
        -11    1    4    4    0    0 -0.47574982698E-01 -0.34369281832E-01 -0.27642799890E-01  0.64876898964E-01  0.51100000000E-03 0. -1.
         11    1    4    4    0    0 -0.18471503152E-01 -0.70901376109E-01 -0.18485400458E-01  0.75565684765E-01  0.51100000000E-03 0.  1.
</event>
<event>
 8    1  0.2824193E+004  0.1043930E+01  0.7957747E-01            NaN
         13   -1    0    0    0    0  0.00000000000E+00  0.00000000000E+00  0.74505805969E-08  0.10566000000E+00  0.10566000000E+00 0.  1.
     999900   -1    0    0    0    0 -0.00000000000E+00 -0.00000000000E+00 -0.74505805969E-08  0.93827000000E+00  0.93827000000E+00 0. -1.
     999902    2    1    2    0    0 -0.96807471308E-02  0.74561468075E-02 -0.52573248397E-02  0.10306277275E+01  0.10305418779E+01 0.  0.
     999903    2    3    3    0    0 -0.12848382958E+00 -0.33650220936E-01 -0.19873565982E-01  0.14157343195E+00  0.44806764832E-01 0.  0.
         14    1    1    2    0    0  0.96807471308E-02 -0.74561468075E-02  0.52573248397E-02  0.13302272539E-01  0.00000000000E+00 0.  1.
     999901    1    3    3    0    0  0.11880308245E+00  0.41106367743E-01  0.14616241142E-01  0.88905429552E+00  0.88000000000E+00 0. -1.
        -11    1    4    4    0    0 -0.10716059379E+00 -0.37736629069E-01 -0.30154260771E-01  0.11754567877E+00  0.51100000000E-03 0. -1.
         11    1    4    4    0    0 -0.21323235797E-01  0.40864081328E-02  0.10280694789E-01  0.24027753175E-01  0.51100000000E-03 0.  1.
</event>
<event>
 8    1  0.2824193E+004  0.1043930E+01  0.7957747E-01            NaN
         13   -1    0    0    0    0  0.00000000000E+00  0.00000000000E+00  0.74505805969E-08  0.10566000000E+00  0.10566000000E+00 0. -1.
     999900   -1    0    0    0    0 -0.00000000000E+00 -0.00000000000E+00 -0.74505805969E-08  0.93827000000E+00  0.93827000000E+00 0. -1.
     999902    2    1    2    0    0 -0.70796375729E-02  0.22881043918E-02 -0.46752680322E-02  0.10351428036E+01  0.10351055062E+01 0.  0.
     999903    2    3    3    0    0  0.12212816565E+00  0.38682565662E-01 -0.50189961781E-01  0.14380066917E+00  0.41808736628E-01 0.  0.
         14    1    1    2    0    0  0.70796375729E-02 -0.22881043918E-02  0.46752680322E-02  0.87871964268E-02  0.00000000000E+00 0. -1.
     999901    1    3    3    0    0 -0.12920780322E+00 -0.36394461270E-01  0.45514693749E-01  0.89134213441E+00  0.88000000000E+00 0.  1.
        -11    1    4    4    0    0  0.77970149179E-01  0.76601713952E-02 -0.16151443421E-01  0.79994703789E-01  0.51100000000E-03 0. -1.
         11    1    4    4    0    0  0.44158016468E-01  0.31022394267E-01 -0.34038518360E-01  0.63805965376E-01  0.51100000000E-03 0.  1.
</event>
<event>
 8    1  0.2824193E+004  0.1043930E+01  0.7957747E-01            NaN
         13   -1    0    0    0    0  0.00000000000E+00  0.00000000000E+00  0.74505805969E-08  0.10566000000E+00  0.10566000000E+00 0. -1.
     999900   -1    0    0    0    0 -0.00000000000E+00 -0.00000000000E+00 -0.74505805969E-08  0.93827000000E+00  0.93827000000E+00 0. -1.
     999902    2    1    2    0    0  0.12239277621E-01 -0.94241574948E-03  0.28764168374E-02  0.10313219931E+01  0.10312449232E+01 0.  0.
     999903    2    3    3    0    0  0.42431614276E-01  0.48867979618E-01  0.11790469039E+00  0.14192660499E+00  0.45311409894E-01 0.  0.
         14    1    1    2    0    0 -0.12239277621E-01  0.94241574948E-03 -0.28764168374E-02  0.12608006899E-01  0.00000000000E+00 0.  1.
     999901    1    3    3    0    0 -0.30192336655E-01 -0.49810395368E-01 -0.11502827355E+00  0.88939538811E+00  0.88000000000E+00 0. -1.
        -11    1    4    4    0    0  0.39929893562E-01  0.23887769563E-01  0.10223885911E+00  0.11233017123E+00  0.51100000000E-03 0.  1.
         11    1    4    4    0    0  0.25017207138E-02  0.24980210055E-01  0.15665831278E-01  0.29596433764E-01  0.51100000000E-03 0. -1.
</event>
<event>
 8    1  0.2824193E+004  0.1043930E+01  0.7957747E-01            NaN
         13   -1    0    0    0    0  0.00000000000E+00  0.00000000000E+00  0.74505805969E-08  0.10566000000E+00  0.10566000000E+00 0. -1.
     999900   -1    0    0    0    0 -0.00000000000E+00 -0.00000000000E+00 -0.74505805969E-08  0.93827000000E+00  0.93827000000E+00 0. -1.
     999902    2    1    2    0    0  0.27282440243E-02  0.11613246241E-01 -0.32973652834E-02  0.10315532710E+01  0.10314790194E+01 0.  0.
     999903    2    3    3    0    0 -0.11561801004E+00 -0.62874802374E-01  0.17741732522E-01  0.14026378440E+00  0.45148589351E-01 0.  0.
         14    1    1    2    0    0 -0.27282440243E-02 -0.11613246241E-01  0.32973652834E-02  0.12376729032E-01  0.00000000000E+00 0. -1.
     999901    1    3    3    0    0  0.11834625407E+00  0.74488048616E-01 -0.21039097805E-01  0.89128948657E+00  0.88000000000E+00 0. -1.
        -11    1    4    4    0    0 -0.53764090344E-01 -0.16763054758E-01  0.27183066760E-01  0.62536050841E-01  0.51100000000E-03 0. -1.
         11    1    4    4    0    0 -0.61853919698E-01 -0.46111747617E-01 -0.94413342386E-02  0.77727733554E-01  0.51100000000E-03 0.  1.
</event>
<event>
 8    1  0.2824193E+004  0.1043930E+01  0.7957747E-01            NaN
         13   -1    0    0    0    0  0.00000000000E+00  0.00000000000E+00  0.74505805969E-08  0.10566000000E+00  0.10566000000E+00 0.  1.
     999900   -1    0    0    0    0 -0.00000000000E+00 -0.00000000000E+00 -0.74505805969E-08  0.93827000000E+00  0.93827000000E+00 0.  1.
     999902    2    1    2    0    0 -0.40149375783E-02 -0.10652268949E-01  0.82490725357E-02  0.10298716304E+01  0.10297756733E+01 0.  0.
     999903    2    3    3    0    0  0.53821688796E-01 -0.40345400512E-01 -0.11323839184E+00  0.13914947317E+00  0.44890054255E-01 0.  0.
         14    1    1    2    0    0  0.40149375783E-02  0.10652268949E-01 -0.82490725357E-02  0.14058369579E-01  0.00000000000E+00 0. -1.
     999901    1    3    3    0    0 -0.57836626374E-01  0.29693131563E-01  0.12148746437E+00  0.89072215725E+00  0.88000000000E+00 0. -1.
        -11    1    4    4    0    0 -0.61023982572E-02 -0.14058417669E-01 -0.18926564645E-01  0.24358865781E-01  0.51100000000E-03 0.  1.
         11    1    4    4    0    0  0.59924087053E-01 -0.26286982842E-01 -0.94311827193E-01  0.11479060739E+00  0.51100000000E-03 0. -1.
</event>
<event>
 8    1  0.2824193E+004  0.1043930E+01  0.7957747E-01            NaN
         13   -1    0    0    0    0  0.00000000000E+00  0.00000000000E+00  0.74505805969E-08  0.10566000000E+00  0.10566000000E+00 0.  1.
     999900   -1    0    0    0    0 -0.00000000000E+00 -0.00000000000E+00 -0.74505805969E-08  0.93827000000E+00  0.93827000000E+00 0. -1.
     999902    2    1    2    0    0 -0.16905612278E-02  0.11654327023E-01  0.89632279538E-02  0.10291306490E+01  0.10290242329E+01 0.  0.
     999903    2    3    3    0    0  0.49159509481E-01 -0.98492317558E-01  0.71240356479E-01  0.13862716568E+00  0.44998985365E-01 0.  0.
         14    1    1    2    0    0  0.16905612278E-02 -0.11654327023E-01 -0.89632279538E-02  0.14799351032E-01  0.00000000000E+00 0.  1.
     999901    1    3    3    0    0 -0.50850070709E-01  0.11014664458E+00 -0.62277128525E-01  0.89050348328E+00  0.88000000000E+00 0. -1.
        -11    1    4    4    0    0  0.11977533244E-01 -0.42393488577E-02 -0.29408494665E-02  0.13051555384E-01  0.51100000000E-03 0.  1.
         11    1    4    4    0    0  0.37181976237E-01 -0.94252968700E-01  0.74181205945E-01  0.12557561030E+00  0.51100000000E-03 0. -1.
</event>
<event>
 8    1  0.2824193E+004  0.1043930E+01  0.7957747E-01            NaN
         13   -1    0    0    0    0  0.00000000000E+00  0.00000000000E+00  0.74505805969E-08  0.10566000000E+00  0.10566000000E+00 0.  1.
     999900   -1    0    0    0    0 -0.00000000000E+00 -0.00000000000E+00 -0.74505805969E-08  0.93827000000E+00  0.93827000000E+00 0.  1.
     999902    2    1    2    0    0 -0.10657725436E-01  0.92232304324E-02  0.40880978589E-02  0.10292545908E+01  0.10291499624E+01 0.  0.
     999903    2    3    3    0    0  0.11562459072E+00  0.15586832417E-01  0.55316562966E-01  0.13874233685E+00  0.50769267978E-01 0.  0.
         14    1    1    2    0    0  0.10657725436E-01 -0.92232304324E-02 -0.40880978589E-02  0.14675409199E-01  0.00000000000E+00 0.  1.
     999901    1    3    3    0    0 -0.12628231616E+00 -0.63636019849E-02 -0.51228465107E-01  0.89051225395E+00  0.88000000000E+00 0.  1.
        -11    1    4    4    0    0  0.88697180949E-01 -0.84311553824E-02  0.50279812283E-01  0.10230637778E+00  0.51100000000E-03 0.  1.
         11    1    4    4    0    0  0.26927409773E-01  0.24017987800E-01  0.50367506830E-02  0.36435959072E-01  0.51100000000E-03 0. -1.
</event>
<event>
 8    1  0.2824193E+004  0.1043930E+01  0.7957747E-01            NaN
         13   -1    0    0    0    0  0.00000000000E+00  0.00000000000E+00  0.74505805969E-08  0.10566000000E+00  0.10566000000E+00 0. -1.
     999900   -1    0    0    0    0 -0.00000000000E+00 -0.00000000000E+00 -0.74505805969E-08  0.93827000000E+00  0.93827000000E+00 0.  1.
     999902    2    1    2    0    0 -0.64889921307E-02  0.11885783694E-01  0.11035351134E-02  0.10303433646E+01  0.10302537805E+01 0.  0.
     999903    2    3    3    0    0  0.50358183135E-01  0.98781643807E-01  0.75569269981E-01  0.14111468896E+00  0.43690744011E-01 0.  0.
         14    1    1    2    0    0  0.64889921307E-02 -0.11885783694E-01 -0.11035351134E-02  0.13586635442E-01  0.00000000000E+00 0.  1.
     999901    1    3    3    0    0 -0.56847175266E-01 -0.86895860113E-01 -0.74465734867E-01  0.88922867560E+00  0.88000000000E+00 0. -1.
        -11    1    4    4    0    0 -0.26147031129E-02  0.29036470244E-01  0.32003156583E-01  0.43294531166E-01  0.51100000000E-03 0. -1.
         11    1    4    4    0    0  0.52972886248E-01  0.69745173563E-01  0.43566113397E-01  0.97820157791E-01  0.51100000000E-03 0.  1.
</event>
<event>
 8    1  0.2824193E+004  0.1043930E+01  0.7957747E-01            NaN
         13   -1    0    0    0    0  0.00000000000E+00  0.00000000000E+00  0.74505805969E-08  0.10566000000E+00  0.10566000000E+00 0.  1.
     999900   -1    0    0    0    0 -0.00000000000E+00 -0.00000000000E+00 -0.74505805969E-08  0.93827000000E+00  0.93827000000E+00 0.  1.
     999902    2    1    2    0    0  0.71194835784E-02 -0.85999153429E-02  0.76638101098E-02  0.10303882285E+01  0.10302992390E+01 0.  0.
     999903    2    3    3    0    0  0.23841504086E-01 -0.25911318940E-01  0.13083317601E+00  0.14148440728E+00  0.40751733586E-01 0.  0.
         14    1    1    2    0    0 -0.71194835784E-02  0.85999153429E-02 -0.76638101098E-02  0.13541771514E-01  0.00000000000E+00 0. -1.
     999901    1    3    3    0    0 -0.16722020508E-01  0.17311403597E-01 -0.12316936590E+00  0.88890382121E+00  0.88000000000E+00 0.  1.
        -11    1    4    4    0    0  0.19449493844E-01  0.26864589336E-02  0.85314790960E-01  0.87546413689E-01  0.51100000000E-03 0. -1.
         11    1    4    4    0    0  0.43920102420E-02 -0.28597777874E-01  0.45518385054E-01  0.53937993587E-01  0.51100000000E-03 0.  1.
</event>
<event>
 8    1  0.2824193E+004  0.1043930E+01  0.7957747E-01            NaN
         13   -1    0    0    0    0  0.00000000000E+00  0.00000000000E+00  0.74505805969E-08  0.10566000000E+00  0.10566000000E+00 0. -1.
     999900   -1    0    0    0    0 -0.00000000000E+00 -0.00000000000E+00 -0.74505805969E-08  0.93827000000E+00  0.93827000000E+00 0.  1.
     999902    2    1    2    0    0  0.49378707824E-02 -0.12964878520E-01  0.18747485039E-02  0.10299305241E+01  0.10298353748E+01 0.  0.
     999903    2    3    3    0    0  0.40165690400E-01 -0.12147212433E+00  0.40902014132E-01  0.14170873362E+00  0.45162271299E-01 0.  0.
         14    1    1    2    0    0 -0.49378707824E-02  0.12964878520E-01 -0.18747485039E-02  0.13999475878E-01  0.00000000000E+00 0.  1.
     999901    1    3    3    0    0 -0.35227819617E-01  0.10850724581E+00 -0.39027265628E-01  0.88822179051E+00  0.88000000000E+00 0.  1.
        -11    1    4    4    0    0  0.47343071932E-01 -0.10703484177E+00  0.26315717868E-01  0.11996083503E+00  0.51100000000E-03 0.  1.
         11    1    4    4    0    0 -0.71773815322E-02 -0.14437282561E-01  0.14586296264E-01  0.21747898590E-01  0.51100000000E-03 0. -1.
</event>
<event>
 8    1  0.2824193E+004  0.1043930E+01  0.7957747E-01            NaN
         13   -1    0    0    0    0  0.00000000000E+00  0.00000000000E+00  0.74505805969E-08  0.10566000000E+00  0.10566000000E+00 0. -1.
     999900   -1    0    0    0    0 -0.00000000000E+00 -0.00000000000E+00 -0.74505805969E-08  0.93827000000E+00  0.93827000000E+00 0.  1.
     999902    2    1    2    0    0 -0.76955394141E-02  0.11600434517E-01 -0.13091326588E-02  0.10299476813E+01  0.10298527667E+01 0.  0.
     999903    2    3    3    0    0 -0.24669365554E-01 -0.61834339426E-01 -0.11402165181E+00  0.13956299547E+00  0.45219790955E-01 0.  0.
         14    1    1    2    0    0  0.76955394141E-02 -0.11600434517E-01  0.13091326588E-02  0.13982318698E-01  0.00000000000E+00 0. -1.
     999901    1    3    3    0    0  0.16973826140E-01  0.73434773942E-01  0.11271251915E+00  0.89038468584E+00  0.88000000000E+00 0. -1.
        -11    1    4    4    0    0 -0.37949425515E-01 -0.42435817720E-01 -0.82494512967E-01  0.10023254618E+00  0.51100000000E-03 0.  1.
         11    1    4    4    0    0  0.13280059961E-01 -0.19398521705E-01 -0.31527138839E-01  0.39330449290E-01  0.51100000000E-03 0. -1.
</event>
<event>
 8    1  0.2824193E+004  0.1043930E+01  0.7957747E-01            NaN
         13   -1    0    0    0    0  0.00000000000E+00  0.00000000000E+00  0.74505805969E-08  0.10566000000E+00  0.10566000000E+00 0.  1.
     999900   -1    0    0    0    0 -0.00000000000E+00 -0.00000000000E+00 -0.74505805969E-08  0.93827000000E+00  0.93827000000E+00 0. -1.
     999902    2    1    2    0    0  0.12452131827E-01  0.34189553175E-02  0.41562144789E-02  0.10303646411E+01  0.10302753393E+01 0.  0.
     999903    2    3    3    0    0  0.54531568067E-01 -0.37770591330E-01  0.11648357208E+00  0.14127258011E+00  0.44600558746E-01 0.  0.
         14    1    1    2    0    0 -0.12452131827E-01 -0.34189553175E-02 -0.41562144789E-02  0.13565358871E-01  0.00000000000E+00 0. -1.
     999901    1    3    3    0    0 -0.42079436240E-01  0.41189546648E-01 -0.11232735760E+00  0.88909206102E+00  0.88000000000E+00 0. -1.
        -11    1    4    4    0    0  0.24641155310E-01 -0.29144437076E-01  0.97788789457E-01  0.10497377392E+00  0.51100000000E-03 0.  1.
         11    1    4    4    0    0  0.29890412756E-01 -0.86261542541E-02  0.18694782622E-01  0.36298806182E-01  0.51100000000E-03 0. -1.
</event>
<event>
 8    1  0.2824193E+004  0.1043930E+01  0.7957747E-01            NaN
         13   -1    0    0    0    0  0.00000000000E+00  0.00000000000E+00  0.74505805969E-08  0.10566000000E+00  0.10566000000E+00 0. -1.
     999900   -1    0    0    0    0 -0.00000000000E+00 -0.00000000000E+00 -0.74505805969E-08  0.93827000000E+00  0.93827000000E+00 0. -1.
     999902    2    1    2    0    0  0.27783452340E-02  0.11744710583E-01  0.93241201718E-02  0.10286788805E+01  0.10285658183E+01 0.  0.
     999903    2    3    3    0    0  0.25934809867E-01 -0.11625257088E+00  0.53327762664E-01  0.13802976527E+00  0.44956548236E-01 0.  0.
         14    1    1    2    0    0 -0.27783452340E-02 -0.11744710583E-01 -0.93241201718E-02  0.15251119497E-01  0.00000000000E+00 0.  1.
     999901    1    3    3    0    0 -0.23156464633E-01  0.12799728147E+00 -0.44003642492E-01  0.89064911524E+00  0.88000000000E+00 0. -1.
        -11    1    4    4    0    0  0.24740909054E-01 -0.64505558351E-01  0.51610551936E-01  0.86237983692E-01  0.51100000000E-03 0. -1.
         11    1    4    4    0    0  0.11939008133E-02 -0.51747012532E-01  0.17172107274E-02  0.51791781576E-01  0.51100000000E-03 0.  1.
</event>
<event>
 8    1  0.2824193E+004  0.1043930E+01  0.7957747E-01            NaN
         13   -1    0    0    0    0  0.00000000000E+00  0.00000000000E+00  0.74505805969E-08  0.10566000000E+00  0.10566000000E+00 0.  1.
     999900   -1    0    0    0    0 -0.00000000000E+00 -0.00000000000E+00 -0.74505805969E-08  0.93827000000E+00  0.93827000000E+00 0. -1.
     999902    2    1    2    0    0  0.99244622598E-02 -0.10708378446E-01  0.30364219410E-02  0.10290174490E+01  0.10289093867E+01 0.  0.
     999903    2    3    3    0    0 -0.78999115754E-01 -0.10123529208E+00 -0.29984458518E-01  0.13930238033E+00  0.44907023495E-01 0.  0.
         14    1    1    2    0    0 -0.99244622598E-02  0.10708378446E-01 -0.30364219410E-02  0.14912551032E-01  0.00000000000E+00 0.  1.
     999901    1    3    3    0    0  0.88923578014E-01  0.90526913638E-01  0.33020880459E-01  0.88971506864E+00  0.88000000000E+00 0. -1.
        -11    1    4    4    0    0 -0.76176985083E-01 -0.66589652252E-01 -0.20059322418E-01  0.10314917537E+00  0.51100000000E-03 0.  1.
         11    1    4    4    0    0 -0.28221306715E-02 -0.34645639832E-01 -0.99251360999E-02  0.36153204954E-01  0.51100000000E-03 0. -1.
</event>
<event>
 8    1  0.2824193E+004  0.1043930E+01  0.7957747E-01            NaN
         13   -1    0    0    0    0  0.00000000000E+00  0.00000000000E+00  0.74505805969E-08  0.10566000000E+00  0.10566000000E+00 0.  1.
     999900   -1    0    0    0    0 -0.00000000000E+00 -0.00000000000E+00 -0.74505805969E-08  0.93827000000E+00  0.93827000000E+00 0. -1.
     999902    2    1    2    0    0 -0.97797972470E-02 -0.92377639412E-02 -0.41623401748E-02  0.10298478910E+01  0.10297516074E+01 0.  0.
     999903    2    3    3    0    0  0.10217515496E+00  0.43567543099E-01 -0.70303185737E-01  0.13872673025E+00  0.44324650680E-01 0.  0.
         14    1    1    2    0    0  0.97797972470E-02  0.92377639412E-02  0.41623401748E-02  0.14082108953E-01  0.00000000000E+00 0.  1.
     999901    1    3    3    0    0 -0.11195495220E+00 -0.52805307040E-01  0.66140845562E-01  0.89112116080E+00  0.88000000000E+00 0.  1.
        -11    1    4    4    0    0  0.94323690650E-01  0.28499180700E-01 -0.71410597920E-01  0.12169180964E+00  0.51100000000E-03 0. -1.
         11    1    4    4    0    0  0.78514643083E-02  0.15068362399E-01  0.11074121830E-02  0.17034920602E-01  0.51100000000E-03 0.  1.
</event>
<event>
 8    1  0.2824193E+004  0.1043930E+01  0.7957747E-01            NaN
         13   -1    0    0    0    0  0.00000000000E+00  0.00000000000E+00  0.74505805969E-08  0.10566000000E+00  0.10566000000E+00 0.  1.
     999900   -1    0    0    0    0 -0.00000000000E+00 -0.00000000000E+00 -0.74505805969E-08  0.93827000000E+00  0.93827000000E+00 0.  1.
     999902    2    1    2    0    0  0.62937093837E-02  0.20576185538E-03  0.13329668249E-01  0.10291877759E+01  0.10290821857E+01 0.  0.
     999903    2    3    3    0    0 -0.10229076186E+00 -0.74665849875E-01  0.36021315256E-01  0.13906910040E+00  0.44769302355E-01 0.  0.
         14    1    1    2    0    0 -0.62937093837E-02 -0.20576185538E-03 -0.13329668249E-01  0.14742224099E-01  0.00000000000E+00 0. -1.
     999901    1    3    3    0    0  0.10858447124E+00  0.74871611730E-01 -0.22691647007E-01  0.89011867550E+00  0.88000000000E+00 0. -1.
        -11    1    4    4    0    0 -0.27484555731E-01 -0.22578319433E-01 -0.10004222309E-01  0.36953036372E-01  0.51100000000E-03 0.  1.
         11    1    4    4    0    0 -0.74806206128E-01 -0.52087530442E-01  0.46025537565E-01  0.10211606402E+00  0.51100000000E-03 0. -1.
</event>
<event>
 8    1  0.2824193E+004  0.1043930E+01  0.7957747E-01            NaN
         13   -1    0    0    0    0  0.00000000000E+00  0.00000000000E+00  0.74505805969E-08  0.10566000000E+00  0.10566000000E+00 0.  1.
     999900   -1    0    0    0    0 -0.00000000000E+00 -0.00000000000E+00 -0.74505805969E-08  0.93827000000E+00  0.93827000000E+00 0.  1.
     999902    2    1    2    0    0 -0.43470038366E-02  0.10510455899E-01 -0.15490946233E-02  0.10324510706E+01  0.10323872565E+01 0.  0.
     999903    2    3    3    0    0  0.57698595791E-01 -0.63276087082E-01  0.10273420704E+00  0.14106500535E+00  0.44855627112E-01 0.  0.
         14    1    1    2    0    0  0.43470038366E-02 -0.10510455899E-01  0.15490946233E-02  0.11478929380E-01  0.00000000000E+00 0.  1.
     999901    1    3    3    0    0 -0.62045599628E-01  0.73786542981E-01 -0.10428330167E+00  0.89138606527E+00  0.88000000000E+00 0.  1.
        -11    1    4    4    0    0  0.44142373151E-01 -0.42101942064E-01  0.38632197008E-01  0.72206858397E-01  0.51100000000E-03 0. -1.
         11    1    4    4    0    0  0.13556222640E-01 -0.21174145018E-01  0.64102010036E-01  0.68858146949E-01  0.51100000000E-03 0.  1.
</event>
<event>
 8    1  0.2824193E+004  0.1043930E+01  0.7957747E-01            NaN
         13   -1    0    0    0    0  0.00000000000E+00  0.00000000000E+00  0.74505805969E-08  0.10566000000E+00  0.10566000000E+00 0. -1.
     999900   -1    0    0    0    0 -0.00000000000E+00 -0.00000000000E+00 -0.74505805969E-08  0.93827000000E+00  0.93827000000E+00 0.  1.
     999902    2    1    2    0    0  0.26066927135E-02 -0.13734873444E-01  0.77761471387E-03  0.10299283472E+01  0.10298331681E+01 0.  0.
     999903    2    3    3    0    0 -0.11489418939E+00 -0.65961030156E-01  0.13219794635E-01  0.14049659798E+00  0.44866455407E-01 0.  0.
         14    1    1    2    0    0 -0.26066927135E-02  0.13734873444E-01 -0.77761471387E-03  0.14001652762E-01  0.00000000000E+00 0.  1.
     999901    1    3    3    0    0  0.11750088210E+00  0.52226156712E-01 -0.12442179921E-01  0.88943174925E+00  0.88000000000E+00 0.  1.
        -11    1    4    4    0    0 -0.74341459009E-01 -0.36294480048E-01 -0.13119450588E-01  0.83763493923E-01  0.51100000000E-03 0. -1.
         11    1    4    4    0    0 -0.40552730378E-01 -0.29666550108E-01  0.26339245223E-01  0.56733104061E-01  0.51100000000E-03 0.  1.
</event>
<event>
 8    1  0.2824193E+004  0.1043930E+01  0.7957747E-01            NaN
         13   -1    0    0    0    0  0.00000000000E+00  0.00000000000E+00  0.74505805969E-08  0.10566000000E+00  0.10566000000E+00 0. -1.
     999900   -1    0    0    0    0 -0.00000000000E+00 -0.00000000000E+00 -0.74505805969E-08  0.93827000000E+00  0.93827000000E+00 0.  1.
     999902    2    1    2    0    0  0.23511193490E-02  0.10983538841E-01 -0.79901150601E-02  0.10301456674E+01  0.10300534395E+01 0.  0.
     999903    2    3    3    0    0  0.99797231955E-01 -0.63970469543E-01 -0.59744703994E-01  0.14009376679E+00  0.44778626130E-01 0.  0.
         14    1    1    2    0    0 -0.23511193490E-02 -0.10983538841E-01  0.79901150601E-02  0.13784332641E-01  0.00000000000E+00 0.  1.
     999901    1    3    3    0    0 -0.97446112606E-01  0.74954008385E-01  0.51754588934E-01  0.89005190057E+00  0.88000000000E+00 0. -1.
        -11    1    4    4    0    0  0.40824391618E-01 -0.13902411149E-01 -0.43075656742E-01  0.60956388603E-01  0.51100000000E-03 0.  1.
         11    1    4    4    0    0  0.58972840337E-01 -0.50068058394E-01 -0.16669047252E-01  0.79137378185E-01  0.51100000000E-03 0. -1.
</event>
<event>
 8    1  0.2824193E+004  0.1043930E+01  0.7957747E-01            NaN
         13   -1    0    0    0    0  0.00000000000E+00  0.00000000000E+00  0.74505805969E-08  0.10566000000E+00  0.10566000000E+00 0. -1.
     999900   -1    0    0    0    0 -0.00000000000E+00 -0.00000000000E+00 -0.74505805969E-08  0.93827000000E+00  0.93827000000E+00 0. -1.
     999902    2    1    2    0    0  0.58768660166E-02  0.75924455446E-02  0.67254226641E-02  0.10322076242E+01  0.10321410589E+01 0.  0.
     999903    2    3    3    0    0 -0.55456033413E-01  0.44649119459E-01 -0.11314342909E+00  0.14119501868E+00  0.45449777162E-01 0.  0.
         14    1    1    2    0    0 -0.58768660166E-02 -0.75924455446E-02 -0.67254226641E-02  0.11722375763E-01  0.00000000000E+00 0. -1.
     999901    1    3    3    0    0  0.61332899430E-01 -0.37056673914E-01  0.11986885176E+00  0.89101260555E+00  0.88000000000E+00 0.  1.
        -11    1    4    4    0    0 -0.18795683845E-02  0.18723517772E-01 -0.54408910456E-01  0.57573375384E-01  0.51100000000E-03 0.  1.
         11    1    4    4    0    0 -0.53576465029E-01  0.25925601687E-01 -0.58734518635E-01  0.83621643299E-01  0.51100000000E-03 0. -1.
</event>
<event>
 8    1  0.2824193E+004  0.1043930E+01  0.7957747E-01            NaN
         13   -1    0    0    0    0  0.00000000000E+00  0.00000000000E+00  0.74505805969E-08  0.10566000000E+00  0.10566000000E+00 0.  1.
     999900   -1    0    0    0    0 -0.00000000000E+00 -0.00000000000E+00 -0.74505805969E-08  0.93827000000E+00  0.93827000000E+00 0. -1.
     999902    2    1    2    0    0  0.43819265963E-02 -0.13152367953E-01  0.89570208370E-02  0.10274250224E+01  0.10272924425E+01 0.  0.
     999903    2    3    3    0    0  0.71812769309E-01  0.13603566960E-02 -0.10781825629E+00  0.13703521839E+00  0.44664866314E-01 0.  0.
         14    1    1    2    0    0 -0.43819265963E-02  0.13152367953E-01 -0.89570208370E-02  0.16504977605E-01  0.00000000000E+00 0.  1.
     999901    1    3    3    0    0 -0.67430842713E-01 -0.14512724649E-01  0.11677527713E+00  0.89038980400E+00  0.88000000000E+00 0.  1.
        -11    1    4    4    0    0  0.28665073305E-01  0.19723880489E-01 -0.64024859879E-01  0.72870856264E-01  0.51100000000E-03 0.  1.
         11    1    4    4    0    0  0.43147696004E-01 -0.18363523793E-01 -0.43793396415E-01  0.64164362127E-01  0.51100000000E-03 0. -1.
</event>
<event>
 8    1  0.2824193E+004  0.1043930E+01  0.7957747E-01            NaN
         13   -1    0    0    0    0  0.00000000000E+00  0.00000000000E+00  0.74505805969E-08  0.10566000000E+00  0.10566000000E+00 0. -1.
     999900   -1    0    0    0    0 -0.00000000000E+00 -0.00000000000E+00 -0.74505805969E-08  0.93827000000E+00  0.93827000000E+00 0.  1.
     999902    2    1    2    0    0 -0.45319397946E-02 -0.44425562876E-03 -0.12819853976E-01  0.10303254237E+01  0.10302356013E+01 0.  0.
     999903    2    3    3    0    0 -0.77320660272E-01 -0.66559914285E-01 -0.87653388308E-01  0.14169190189E+00  0.44550778736E-01 0.  0.
         14    1    1    2    0    0  0.45319397946E-02  0.44425562876E-03  0.12819853976E-01  0.13604576338E-01  0.00000000000E+00 0. -1.
     999901    1    3    3    0    0  0.72788720478E-01  0.66115658657E-01  0.74833534332E-01  0.88863352177E+00  0.88000000000E+00 0. -1.
        -11    1    4    4    0    0 -0.74556159036E-01 -0.66039842006E-01 -0.65167493461E-01  0.11902497598E+00  0.51100000000E-03 0.  1.
         11    1    4    4    0    0 -0.27645012362E-02 -0.52007227898E-03 -0.22485894847E-01  0.22666925913E-01  0.51100000000E-03 0. -1.
</event>
<event>
 8    1  0.2824193E+004  0.1043930E+01  0.7957747E-01            NaN
         13   -1    0    0    0    0  0.00000000000E+00  0.00000000000E+00  0.74505805969E-08  0.10566000000E+00  0.10566000000E+00 0.  1.
     999900   -1    0    0    0    0 -0.00000000000E+00 -0.00000000000E+00 -0.74505805969E-08  0.93827000000E+00  0.93827000000E+00 0.  1.
     999902    2    1    2    0    0  0.12436578402E-01 -0.60005270031E-02 -0.13170958828E-02  0.10300588231E+01  0.10299654215E+01 0.  0.
     999903    2    3    3    0    0  0.12546654892E+00  0.45006943012E-01 -0.56266093901E-02  0.14135408692E+00  0.46710163116E-01 0.  0.
         14    1    1    2    0    0 -0.12436578402E-01  0.60005270031E-02  0.13170958828E-02  0.13871176887E-01  0.00000000000E+00 0.  1.
     999901    1    3    3    0    0 -0.11302997052E+00 -0.51007470015E-01  0.43095135073E-02  0.88870473620E+00  0.88000000000E+00 0.  1.
        -11    1    4    4    0    0  0.50406215762E-01 -0.44855206239E-02  0.48303368912E-02  0.50837975551E-01  0.51100000000E-03 0.  1.
         11    1    4    4    0    0  0.75060333156E-01  0.49492463636E-01 -0.10456946281E-01  0.90516111365E-01  0.51100000000E-03 0. -1.
</event>
<event>
 8    1  0.2824193E+004  0.1043930E+01  0.7957747E-01            NaN
         13   -1    0    0    0    0  0.00000000000E+00  0.00000000000E+00  0.74505805969E-08  0.10566000000E+00  0.10566000000E+00 0.  1.
     999900   -1    0    0    0    0 -0.00000000000E+00 -0.00000000000E+00 -0.74505805969E-08  0.93827000000E+00  0.93827000000E+00 0. -1.
     999902    2    1    2    0    0  0.57911859992E-02  0.11954325855E-01 -0.17740380987E-02  0.10305288451E+01  0.10304417061E+01 0.  0.
     999903    2    3    3    0    0  0.43960485607E-01 -0.10058732065E+00 -0.74030308554E-01  0.13960601664E+00  0.44260817054E-01 0.  0.
         14    1    1    2    0    0 -0.57911859992E-02 -0.11954325855E-01  0.17740380987E-02  0.13401154916E-01  0.00000000000E+00 0.  1.
     999901    1    3    3    0    0 -0.38169299608E-01  0.11254164650E+00  0.72256270456E-01  0.89092282845E+00  0.88000000000E+00 0.  1.
        -11    1    4    4    0    0  0.33957301693E-01 -0.92552971476E-01 -0.46032996241E-01  0.10880463561E+00  0.51100000000E-03 0.  1.
         11    1    4    4    0    0  0.10003183914E-01 -0.80343491718E-02 -0.27997312313E-01  0.30801381021E-01  0.51100000000E-03 0. -1.
</event>
<event>
 8    1  0.2824193E+004  0.1043930E+01  0.7957747E-01            NaN
         13   -1    0    0    0    0  0.00000000000E+00  0.00000000000E+00  0.74505805969E-08  0.10566000000E+00  0.10566000000E+00 0.  1.
     999900   -1    0    0    0    0 -0.00000000000E+00 -0.00000000000E+00 -0.74505805969E-08  0.93827000000E+00  0.93827000000E+00 0.  1.
     999902    2    1    2    0    0  0.11775772173E-01 -0.21620397823E-02 -0.75919521251E-02  0.10297532245E+01  0.10296556329E+01 0.  0.
     999903    2    3    3    0    0  0.82269352065E-01  0.39287326518E-01 -0.97606705540E-01  0.14138953175E+00  0.46391706250E-01 0.  0.
         14    1    1    2    0    0 -0.11775772173E-01  0.21620397823E-02  0.75919521251E-02  0.14176775493E-01  0.00000000000E+00 0. -1.
     999901    1    3    3    0    0 -0.70493579891E-01 -0.41449366300E-01  0.90014753415E-01  0.88836369275E+00  0.88000000000E+00 0. -1.
        -11    1    4    4    0    0  0.62752194539E-01  0.24365126580E-01 -0.38904893204E-01  0.77751843380E-01  0.51100000000E-03 0.  1.
         11    1    4    4    0    0  0.19517157525E-01  0.14922199938E-01 -0.58701812336E-01  0.63637688373E-01  0.51100000000E-03 0. -1.
</event>
<event>
 8    1  0.2824193E+004  0.1043930E+01  0.7957747E-01            NaN
         13   -1    0    0    0    0  0.00000000000E+00  0.00000000000E+00  0.74505805969E-08  0.10566000000E+00  0.10566000000E+00 0. -1.
     999900   -1    0    0    0    0 -0.00000000000E+00 -0.00000000000E+00 -0.74505805969E-08  0.93827000000E+00  0.93827000000E+00 0. -1.
     999902    2    1    2    0    0  0.54300732439E-02  0.11440603632E-01  0.58844288218E-02  0.10299657739E+01  0.10298711064E+01 0.  0.
     999903    2    3    3    0    0  0.48810434932E-01  0.12282887035E+00 -0.21018942204E-01  0.14147661074E+00  0.45874235754E-01 0.  0.
         14    1    1    2    0    0 -0.54300732439E-02 -0.11440603632E-01 -0.58844288218E-02  0.13964226060E-01  0.00000000000E+00 0.  1.
     999901    1    3    3    0    0 -0.43380361688E-01 -0.11138826672E+00  0.26903371026E-01  0.88848916320E+00  0.88000000000E+00 0.  1.
        -11    1    4    4    0    0  0.39260590547E-01  0.84053485388E-01 -0.35011887220E-01  0.99158840976E-01  0.51100000000E-03 0.  1.
         11    1    4    4    0    0  0.95498443848E-02  0.38775384965E-01  0.13992945016E-01  0.42317769768E-01  0.51100000000E-03 0. -1.
</event>
<event>
 8    1  0.2824193E+004  0.1043930E+01  0.7957747E-01            NaN
         13   -1    0    0    0    0  0.00000000000E+00  0.00000000000E+00  0.74505805969E-08  0.10566000000E+00  0.10566000000E+00 0.  1.
     999900   -1    0    0    0    0 -0.00000000000E+00 -0.00000000000E+00 -0.74505805969E-08  0.93827000000E+00  0.93827000000E+00 0.  1.
     999902    2    1    2    0    0  0.34247644808E-02 -0.95277150832E-02 -0.87219284465E-02  0.10305666770E+01  0.10304800325E+01 0.  0.
     999903    2    3    3    0    0 -0.46078579306E-01 -0.32511040761E-01  0.11905398648E+00  0.13966516797E+00  0.46392932701E-01 0.  0.
         14    1    1    2    0    0 -0.34247644808E-02  0.95277150832E-02  0.87219284465E-02  0.13363323025E-01  0.00000000000E+00 0.  1.
     999901    1    3    3    0    0  0.49503343787E-01  0.22983325678E-01 -0.12777591493E+00  0.89090150900E+00  0.88000000000E+00 0.  1.
        -11    1    4    4    0    0 -0.48698203760E-01 -0.35017134595E-01  0.77748705932E-01  0.98197948857E-01  0.51100000000E-03 0. -1.
         11    1    4    4    0    0  0.26196244538E-02  0.25060938338E-02  0.41305280553E-01  0.41467219115E-01  0.51100000000E-03 0.  1.
</event>
<event>
 8    1  0.2824193E+004  0.1043930E+01  0.7957747E-01            NaN
         13   -1    0    0    0    0  0.00000000000E+00  0.00000000000E+00  0.74505805969E-08  0.10566000000E+00  0.10566000000E+00 0. -1.
     999900   -1    0    0    0    0 -0.00000000000E+00 -0.00000000000E+00 -0.74505805969E-08  0.93827000000E+00  0.93827000000E+00 0.  1.
     999902    2    1    2    0    0 -0.10383019156E-01 -0.13964593434E-01  0.89653788898E-03  0.10265052837E+01  0.10263573826E+01 0.  0.
     999903    2    3    3    0    0  0.21694814484E-01 -0.11640690098E+00 -0.55201772755E-01  0.13820891752E+00  0.45091435933E-01 0.  0.
         14    1    1    2    0    0  0.10383019156E-01  0.13964593434E-01 -0.89653788898E-03  0.17424716260E-01  0.00000000000E+00 0.  1.
     999901    1    3    3    0    0 -0.32077833640E-01  0.10244230755E+00  0.56098310644E-01  0.88829636622E+00  0.88000000000E+00 0. -1.
        -11    1    4    4    0    0  0.28663000993E-01 -0.85002095426E-01 -0.22822886996E-01  0.92563865220E-01  0.51100000000E-03 0. -1.
         11    1    4    4    0    0 -0.69681865094E-02 -0.31404805555E-01 -0.32378885759E-01  0.45645052297E-01  0.51100000000E-03 0.  1.
</event>
<event>
 8    1  0.2824193E+004  0.1043930E+01  0.7957747E-01            NaN
         13   -1    0    0    0    0  0.00000000000E+00  0.00000000000E+00  0.74505805969E-08  0.10566000000E+00  0.10566000000E+00 0. -1.
     999900   -1    0    0    0    0 -0.00000000000E+00 -0.00000000000E+00 -0.74505805969E-08  0.93827000000E+00  0.93827000000E+00 0.  1.
     999902    2    1    2    0    0 -0.10447035628E-01 -0.10090981559E-01 -0.35021460434E-02  0.10289889997E+01  0.10288805218E+01 0.  0.
     999903    2    3    3    0    0  0.38139036671E-01  0.12397635311E+00 -0.11385889782E-01  0.13747522526E+00  0.44103025132E-01 0.  0.
         14    1    1    2    0    0  0.10447035628E-01  0.10090981559E-01  0.35021460434E-02  0.14941000272E-01  0.00000000000E+00 0. -1.
     999901    1    3    3    0    0 -0.48586072298E-01 -0.13406733467E+00  0.78837437385E-02  0.89151377447E+00  0.88000000000E+00 0.  1.
        -11    1    4    4    0    0  0.28423832418E-01  0.65867018706E-01 -0.26786216779E-01  0.76577679078E-01  0.51100000000E-03 0.  1.
         11    1    4    4    0    0  0.97152042522E-02  0.58109334405E-01  0.15400326997E-01  0.60897546184E-01  0.51100000000E-03 0. -1.
</event>
<event>
 8    1  0.2824193E+004  0.1043930E+01  0.7957747E-01            NaN
         13   -1    0    0    0    0  0.00000000000E+00  0.00000000000E+00  0.74505805969E-08  0.10566000000E+00  0.10566000000E+00 0. -1.
     999900   -1    0    0    0    0 -0.00000000000E+00 -0.00000000000E+00 -0.74505805969E-08  0.93827000000E+00  0.93827000000E+00 0.  1.
     999902    2    1    2    0    0 -0.64367138319E-03 -0.51857433632E-02 -0.11353643300E-01  0.10314315416E+01  0.10313558132E+01 0.  0.
     999903    2    3    3    0    0  0.10696731883E+00  0.70660381574E-01 -0.36526202085E-01  0.14128188134E+00  0.46813563576E-01 0.  0.
         14    1    1    2    0    0  0.64367138319E-03  0.51857433632E-02  0.11353643300E-01  0.12498458435E-01  0.00000000000E+00 0. -1.
     999901    1    3    3    0    0 -0.10761099021E+00 -0.75846124937E-01  0.25172558785E-01  0.89014966022E+00  0.88000000000E+00 0.  1.
        -11    1    4    4    0    0  0.80600257662E-01  0.41035936006E-01 -0.49444026940E-02  0.90581774204E-01  0.51100000000E-03 0.  1.
         11    1    4    4    0    0  0.26367061167E-01  0.29624445568E-01 -0.31581799391E-01  0.50700107136E-01  0.51100000000E-03 0. -1.
</event>
<event>
 8    1  0.2824193E+004  0.1043930E+01  0.7957747E-01            NaN
         13   -1    0    0    0    0  0.00000000000E+00  0.00000000000E+00  0.74505805969E-08  0.10566000000E+00  0.10566000000E+00 0. -1.
     999900   -1    0    0    0    0 -0.00000000000E+00 -0.00000000000E+00 -0.74505805969E-08  0.93827000000E+00  0.93827000000E+00 0.  1.
     999902    2    1    2    0    0  0.10363117243E-01 -0.61520679127E-02 -0.69226293139E-02  0.10300316211E+01  0.10299378504E+01 0.  0.
     999903    2    3    3    0    0 -0.14837755079E-01  0.11982731156E+00 -0.55764225153E-01  0.13936255268E+00  0.41635666308E-01 0.  0.
         14    1    1    2    0    0 -0.10363117243E-01  0.61520679127E-02  0.69226293139E-02  0.13898378870E-01  0.00000000000E+00 0. -1.
     999901    1    3    3    0    0  0.25200872322E-01 -0.12597937948E+00  0.48841595839E-01  0.89066906846E+00  0.88000000000E+00 0. -1.
        -11    1    4    4    0    0  0.51279768535E-02  0.24229843701E-01  0.36631061176E-02  0.25041184872E-01  0.51100000000E-03 0.  1.
         11    1    4    4    0    0 -0.19965731933E-01  0.95597467863E-01 -0.59427331271E-01  0.11432136780E+00  0.51100000000E-03 0. -1.
</event>
<event>
 8    1  0.2824193E+004  0.1043930E+01  0.7957747E-01            NaN
         13   -1    0    0    0    0  0.00000000000E+00  0.00000000000E+00  0.74505805969E-08  0.10566000000E+00  0.10566000000E+00 0. -1.
     999900   -1    0    0    0    0 -0.00000000000E+00 -0.00000000000E+00 -0.74505805969E-08  0.93827000000E+00  0.93827000000E+00 0.  1.
     999902    2    1    2    0    0  0.10257001126E-01  0.48778561395E-03  0.86729212303E-02  0.10304888851E+01  0.10304012222E+01 0.  0.
     999903    2    3    3    0    0  0.10208043225E+00 -0.32500160376E-01  0.83115134232E-01  0.14197248674E+00  0.42087841261E-01 0.  0.
         14    1    1    2    0    0 -0.10257001126E-01 -0.48778561395E-03 -0.86729212303E-02  0.13441114893E-01  0.00000000000E+00 0.  1.
     999901    1    3    3    0    0 -0.91823431121E-01  0.32987945990E-01 -0.74442213001E-01  0.88851639836E+00  0.88000000000E+00 0.  1.
        -11    1    4    4    0    0  0.65032805257E-01 -0.28892363140E-01  0.30275368068E-01  0.77336236268E-01  0.51100000000E-03 0. -1.
         11    1    4    4    0    0  0.37047626989E-01 -0.36077972357E-02  0.52839766164E-01  0.64636250476E-01  0.51100000000E-03 0.  1.
</event>
<event>
 8    1  0.2824193E+004  0.1043930E+01  0.7957747E-01            NaN
         13   -1    0    0    0    0  0.00000000000E+00  0.00000000000E+00  0.74505805969E-08  0.10566000000E+00  0.10566000000E+00 0. -1.
     999900   -1    0    0    0    0 -0.00000000000E+00 -0.00000000000E+00 -0.74505805969E-08  0.93827000000E+00  0.93827000000E+00 0. -1.
     999902    2    1    2    0    0  0.19127130313E-01  0.59802740590E-02  0.14618024504E-01  0.10191248104E+01  0.10188228902E+01 0.  0.
     999903    2    3    3    0    0  0.77591873955E-01  0.97258838543E-01  0.23953190892E-02  0.13238962042E+00  0.45182889046E-01 0.  0.
         14    1    1    2    0    0 -0.19127130313E-01 -0.59802740590E-02 -0.14618024504E-01  0.24805189623E-01  0.00000000000E+00 0.  1.
     999901    1    3    3    0    0 -0.58464743642E-01 -0.91278564484E-01  0.12222705414E-01  0.88673518996E+00  0.88000000000E+00 0.  1.
        -11    1    4    4    0    0  0.47427626321E-01  0.84828940037E-01  0.13060183193E-01  0.98062012586E-01  0.51100000000E-03 0.  1.
         11    1    4    4    0    0  0.30164247634E-01  0.12429898505E-01 -0.10664864104E-01  0.34327607833E-01  0.51100000000E-03 0. -1.
</event>
<event>
 8    1  0.2824193E+004  0.1043930E+01  0.7957747E-01            NaN
         13   -1    0    0    0    0  0.00000000000E+00  0.00000000000E+00  0.74505805969E-08  0.10566000000E+00  0.10566000000E+00 0. -1.
     999900   -1    0    0    0    0 -0.00000000000E+00 -0.00000000000E+00 -0.74505805969E-08  0.93827000000E+00  0.93827000000E+00 0. -1.
     999902    2    1    2    0    0 -0.56410198813E-02 -0.54683383201E-02 -0.10659678946E-01  0.10306879237E+01  0.10306028544E+01 0.  0.
     999903    2    3    3    0    0  0.33954643515E-01  0.92538012105E-01  0.86616419488E-01  0.13904017902E+00  0.45973533211E-01 0.  0.
         14    1    1    2    0    0  0.56410198813E-02  0.54683383201E-02  0.10659678946E-01  0.13242076292E-01  0.00000000000E+00 0. -1.
     999901    1    3    3    0    0 -0.39595663397E-01 -0.98006350425E-01 -0.97276098434E-01  0.89164774469E+00  0.88000000000E+00 0. -1.
        -11    1    4    4    0    0  0.58588265105E-02  0.27871171906E-01  0.15157392768E-02  0.28525193392E-01  0.51100000000E-03 0.  1.
         11    1    4    4    0    0  0.28095817005E-01  0.64666840199E-01  0.85100680212E-01  0.11051498563E+00  0.51100000000E-03 0. -1.
</event>
<event>
 8    1  0.2824193E+004  0.1043930E+01  0.7957747E-01            NaN
         13   -1    0    0    0    0  0.00000000000E+00  0.00000000000E+00  0.74505805969E-08  0.10566000000E+00  0.10566000000E+00 0. -1.
     999900   -1    0    0    0    0 -0.00000000000E+00 -0.00000000000E+00 -0.74505805969E-08  0.93827000000E+00  0.93827000000E+00 0.  1.
     999902    2    1    2    0    0  0.12737599175E-01  0.29459872204E-02 -0.14384737953E-02  0.10307772634E+01  0.10306933454E+01 0.  0.
     999903    2    3    3    0    0  0.80342362623E-01 -0.71110965995E-01 -0.80715257910E-01  0.14154183626E+00  0.44804841666E-01 0.  0.
         14    1    1    2    0    0 -0.12737599175E-01 -0.29459872204E-02  0.14384737953E-02  0.13152736609E-01  0.00000000000E+00 0. -1.
     999901    1    3    3    0    0 -0.67604763448E-01  0.74056953215E-01  0.79276784115E-01  0.88923542713E+00  0.88000000000E+00 0.  1.
        -11    1    4    4    0    0  0.74678980301E-01 -0.74544004821E-01 -0.63648506795E-01  0.12322804994E+00  0.51100000000E-03 0. -1.
         11    1    4    4    0    0  0.56633823216E-02  0.34330388261E-02 -0.17066751115E-01  0.18313786324E-01  0.51100000000E-03 0.  1.
</event>
<event>
 8    1  0.2824193E+004  0.1043930E+01  0.7957747E-01            NaN
         13   -1    0    0    0    0  0.00000000000E+00  0.00000000000E+00  0.74505805969E-08  0.10566000000E+00  0.10566000000E+00 0.  1.
     999900   -1    0    0    0    0 -0.00000000000E+00 -0.00000000000E+00 -0.74505805969E-08  0.93827000000E+00  0.93827000000E+00 0. -1.
     999902    2    1    2    0    0  0.28577886482E-02  0.17576462155E-02 -0.13239775687E-01  0.10302717448E+01  0.10301812074E+01 0.  0.
     999903    2    3    3    0    0 -0.16918740906E-01  0.13315920529E+00 -0.35074731611E-02  0.14024242020E+00  0.40472414167E-01 0.  0.
         14    1    1    2    0    0 -0.28577886482E-02 -0.17576462155E-02  0.13239775687E-01  0.13658255248E-01  0.00000000000E+00 0. -1.
     999901    1    3    3    0    0  0.19776529554E-01 -0.13140155907E+00 -0.97323025258E-02  0.89002932455E+00  0.88000000000E+00 0.  1.
        -11    1    4    4    0    0  0.58367203779E-02  0.50843290879E-01 -0.16676670007E-01  0.53828245148E-01  0.51100000000E-03 0.  1.
         11    1    4    4    0    0 -0.22755461284E-01  0.82315914411E-01  0.13169196846E-01  0.86414175054E-01  0.51100000000E-03 0. -1.
</event>
<event>
 8    1  0.2824193E+004  0.1043930E+01  0.7957747E-01            NaN
         13   -1    0    0    0    0  0.00000000000E+00  0.00000000000E+00  0.74505805969E-08  0.10566000000E+00  0.10566000000E+00 0. -1.
     999900   -1    0    0    0    0 -0.00000000000E+00 -0.00000000000E+00 -0.74505805969E-08  0.93827000000E+00  0.93827000000E+00 0.  1.
     999902    2    1    2    0    0  0.96453374437E-02 -0.57197357643E-02 -0.10153005991E-01  0.10288028244E+01  0.10286916059E+01 0.  0.
     999903    2    3    3    0    0 -0.57299288877E-01 -0.88005510101E-01 -0.80115038606E-01  0.13967560195E+00  0.45416693584E-01 0.  0.
         14    1    1    2    0    0 -0.96453374437E-02  0.57197357643E-02  0.10153005991E-01  0.15127175621E-01  0.00000000000E+00 0. -1.
     999901    1    3    3    0    0  0.66944626321E-01  0.82285774337E-01  0.69962032614E-01  0.88912722243E+00  0.88000000000E+00 0. -1.
        -11    1    4    4    0    0 -0.20381082824E-01 -0.32264342862E-01 -0.57656652152E-01  0.69144247887E-01  0.51100000000E-03 0. -1.
         11    1    4    4    0    0 -0.36918206053E-01 -0.55741167239E-01 -0.22458386454E-01  0.70531354066E-01  0.51100000000E-03 0.  1.
</event>
<event>
 8    1  0.2824193E+004  0.1043930E+01  0.7957747E-01            NaN
         13   -1    0    0    0    0  0.00000000000E+00  0.00000000000E+00  0.74505805969E-08  0.10566000000E+00  0.10566000000E+00 0. -1.
     999900   -1    0    0    0    0 -0.00000000000E+00 -0.00000000000E+00 -0.74505805969E-08  0.93827000000E+00  0.93827000000E+00 0. -1.
     999902    2    1    2    0    0  0.46273439384E-02  0.10908536101E-01  0.16674336283E-02  0.10319638475E+01  0.10318944683E+01 0.  0.
     999903    2    3    3    0    0 -0.10124376286E+00 -0.36372384361E-01 -0.78868305154E-01  0.14071181693E+00  0.44792365478E-01 0.  0.
         14    1    1    2    0    0 -0.46273439384E-02 -0.10908536101E-01 -0.16674336283E-02  0.11966152543E-01  0.00000000000E+00 0.  1.
     999901    1    3    3    0    0  0.10587110679E+00  0.47280920462E-01  0.80535738782E-01  0.89125203052E+00  0.88000000000E+00 0.  1.
        -11    1    4    4    0    0 -0.80729138365E-01 -0.97820594031E-02 -0.44689818241E-01  0.92791828535E-01  0.51100000000E-03 0.  1.
         11    1    4    4    0    0 -0.20514624491E-01 -0.26590324958E-01 -0.34178486912E-01  0.47919988397E-01  0.51100000000E-03 0. -1.
</event>
<event>
 8    1  0.2824193E+004  0.1043930E+01  0.7957747E-01            NaN
         13   -1    0    0    0    0  0.00000000000E+00  0.00000000000E+00  0.74505805969E-08  0.10566000000E+00  0.10566000000E+00 0.  1.
     999900   -1    0    0    0    0 -0.00000000000E+00 -0.00000000000E+00 -0.74505805969E-08  0.93827000000E+00  0.93827000000E+00 0.  1.
     999902    2    1    2    0    0 -0.90532471450E-02  0.51964286699E-02  0.99825577848E-02  0.10294864681E+01  0.10293851428E+01 0.  0.
     999903    2    3    3    0    0 -0.10208048139E+00 -0.81857652714E-01  0.17589036853E-01  0.14027876572E+00  0.47409470631E-01 0.  0.
         14    1    1    2    0    0  0.90532471450E-02 -0.51964286699E-02 -0.99825577848E-02  0.14443531934E-01  0.00000000000E+00 0. -1.
     999901    1    3    3    0    0  0.93027234241E-01  0.87054081384E-01 -0.76064790682E-02  0.88920770235E+00  0.88000000000E+00 0. -1.
        -11    1    4    4    0    0 -0.32404273940E-01 -0.16730065479E-01 -0.15074536461E-01  0.39464348862E-01  0.51100000000E-03 0.  1.
         11    1    4    4    0    0 -0.69676207445E-01 -0.65127587235E-01  0.32663573314E-01  0.10081441685E+00  0.51100000000E-03 0. -1.
</event>
<event>
 8    1  0.2824193E+004  0.1043930E+01  0.7957747E-01            NaN
         13   -1    0    0    0    0  0.00000000000E+00  0.00000000000E+00  0.74505805969E-08  0.10566000000E+00  0.10566000000E+00 0. -1.
     999900   -1    0    0    0    0 -0.00000000000E+00 -0.00000000000E+00 -0.74505805969E-08  0.93827000000E+00  0.93827000000E+00 0.  1.
     999902    2    1    2    0    0  0.58119233139E-02  0.12108818223E-01  0.27809809561E-02  0.10302137401E+01  0.10301224269E+01 0.  0.
     999903    2    3    3    0    0  0.62369648496E-01  0.96937489416E-02  0.11778826876E+00  0.14092678690E+00  0.44747527152E-01 0.  0.
         14    1    1    2    0    0 -0.58119233139E-02 -0.12108818223E-01 -0.27809809561E-02  0.13716259929E-01  0.00000000000E+00 0. -1.
     999901    1    3    3    0    0 -0.56557725182E-01  0.24150692815E-02 -0.11500728780E+00  0.88928695317E+00  0.88000000000E+00 0.  1.
        -11    1    4    4    0    0  0.49736373178E-01  0.18295066586E-01  0.11315082256E+00  0.12494713300E+00  0.51100000000E-03 0.  1.
         11    1    4    4    0    0  0.12633275319E-01 -0.86013176444E-02  0.46374462022E-02  0.15979653900E-01  0.51100000000E-03 0. -1.
</event>
<event>
 7    1  0.2824193E+004  0.1043930E+01  0.7957747E-01            NaN
         13   -1    0    0    0    0  0.00000000000E+00  0.00000000000E+00  0.74505805969E-08  0.10566000000E+00  0.10566000000E+00 0.  1.
     999900   -1    0    0    0    0 -0.00000000000E+00 -0.00000000000E+00 -0.74505805969E-08  0.93827000000E+00  0.93827000000E+00 0. -1.
     999903    2    1    2    0    0 -0.78748948382E-01  0.56228033987E-02 -0.85376037126E-01  0.12504865067E+00  0.45990048164E-01 0.  0.
         14    1    1    2    0    0 -0.26723851464E-01  0.85427315804E-03  0.12655118715E-01  0.29581177282E-01  0.00000000000E+00 0.  1.
     999901    1    1    2    0    0  0.10547279985E+00 -0.64770765567E-02  0.72720918411E-01  0.88930017205E+00  0.88000000000E+00 0.  1.
        -11    1    3    3    0    0 -0.19884593176E-02 -0.42888169513E-02 -0.28765554179E-01  0.29155893907E-01  0.51100000000E-03 0. -1.
         11    1    3    3    0    0 -0.76760489065E-01  0.99116203500E-02 -0.56610482947E-01  0.95892756764E-01  0.51100000000E-03 0.  1.
</event>
<event>
 8    1  0.2824193E+004  0.1043930E+01  0.7957747E-01            NaN
         13   -1    0    0    0    0  0.00000000000E+00  0.00000000000E+00  0.74505805969E-08  0.10566000000E+00  0.10566000000E+00 0. -1.
     999900   -1    0    0    0    0 -0.00000000000E+00 -0.00000000000E+00 -0.74505805969E-08  0.93827000000E+00  0.93827000000E+00 0. -1.
     999902    2    1    2    0    0 -0.98190286243E-02 -0.78860757577E-02  0.60980646756E-02  0.10299375053E+01  0.10298424515E+01 0.  0.
     999903    2    3    3    0    0 -0.13811249733E-01 -0.12914734036E+00  0.32479187825E-01  0.14122146758E+00  0.44931271100E-01 0.  0.
         14    1    1    2    0    0  0.98190286243E-02  0.78860757577E-02 -0.60980646756E-02  0.13992494659E-01  0.00000000000E+00 0. -1.
     999901    1    3    3    0    0  0.39922211086E-02  0.12126126460E+00 -0.26381123149E-01  0.88871603776E+00  0.88000000000E+00 0.  1.
        -11    1    4    4    0    0 -0.12285356409E-01 -0.95801993220E-01  0.43684045677E-01  0.10600711700E+00  0.51100000000E-03 0.  1.
         11    1    4    4    0    0 -0.15258933235E-02 -0.33345347136E-01 -0.11204857852E-01  0.35214350576E-01  0.51100000000E-03 0. -1.
</event>
<event>
 8    1  0.2824193E+004  0.1043930E+01  0.7957747E-01            NaN
         13   -1    0    0    0    0  0.00000000000E+00  0.00000000000E+00  0.74505805969E-08  0.10566000000E+00  0.10566000000E+00 0.  1.
     999900   -1    0    0    0    0 -0.00000000000E+00 -0.00000000000E+00 -0.74505805969E-08  0.93827000000E+00  0.93827000000E+00 0. -1.
     999902    2    1    2    0    0 -0.87727462826E-02  0.10044467135E-01  0.12915180499E-01  0.10253651331E+01  0.10251970551E+01 0.  0.
     999903    2    3    3    0    0 -0.86076061868E-01  0.97161525202E-01 -0.60634302376E-02  0.13748824290E+00  0.44908811419E-01 0.  0.
         14    1    1    2    0    0  0.87727462826E-02 -0.10044467135E-01 -0.12915180499E-01  0.18564866945E-01  0.00000000000E+00 0. -1.
     999901    1    3    3    0    0  0.77303315586E-01 -0.87117058067E-01  0.18978610736E-01  0.88787689016E+00  0.88000000000E+00 0. -1.
        -11    1    4    4    0    0 -0.31757091546E-01  0.21280901168E-01 -0.19977354709E-01  0.43136358680E-01  0.51100000000E-03 0. -1.
         11    1    4    4    0    0 -0.54318970322E-01  0.75880624034E-01  0.13913924471E-01  0.94351884220E-01  0.51100000000E-03 0.  1.
</event>
<event>
 8    1  0.2824193E+004  0.1043930E+01  0.7957747E-01            NaN
         13   -1    0    0    0    0  0.00000000000E+00  0.00000000000E+00  0.74505805969E-08  0.10566000000E+00  0.10566000000E+00 0. -1.
     999900   -1    0    0    0    0 -0.00000000000E+00 -0.00000000000E+00 -0.74505805969E-08  0.93827000000E+00  0.93827000000E+00 0. -1.
     999902    2    1    2    0    0  0.12318367918E-01  0.40777465436E-02  0.56517816249E-02  0.10297768081E+01  0.10296795432E+01 0.  0.
     999903    2    3    3    0    0  0.10457336919E+00  0.80960433374E-01 -0.22351462826E-01  0.14117897192E+00  0.44065098488E-01 0.  0.
         14    1    1    2    0    0 -0.12318367918E-01 -0.40777465436E-02 -0.56517816249E-02  0.14153191886E-01  0.00000000000E+00 0.  1.
     999901    1    3    3    0    0 -0.92255001275E-01 -0.76882686830E-01  0.28003244450E-01  0.88859783620E+00  0.88000000000E+00 0.  1.
        -11    1    4    4    0    0  0.16359588629E-01 -0.38509713715E-02 -0.18472733360E-03  0.16815509680E-01  0.51100000000E-03 0.  1.
         11    1    4    4    0    0  0.88213780564E-01  0.84811404745E-01 -0.22166735492E-01  0.12436346224E+00  0.51100000000E-03 0. -1.
</event>
<event>
 8    1  0.2824193E+004  0.1043930E+01  0.7957747E-01            NaN
         13   -1    0    0    0    0  0.00000000000E+00  0.00000000000E+00  0.74505805969E-08  0.10566000000E+00  0.10566000000E+00 0.  1.
     999900   -1    0    0    0    0 -0.00000000000E+00 -0.00000000000E+00 -0.74505805969E-08  0.93827000000E+00  0.93827000000E+00 0.  1.
     999902    2    1    2    0    0 -0.78176362359E-02 -0.11690293256E-01  0.34525803328E-02  0.10294490227E+01  0.10293471677E+01 0.  0.
     999903    2    3    3    0    0  0.29752334152E-01  0.12274306369E+00 -0.31122232691E-01  0.13777685882E+00  0.45418150400E-01 0.  0.
         14    1    1    2    0    0  0.78176362359E-02  0.11690293256E-01 -0.34525803328E-02  0.14480977304E-01  0.00000000000E+00 0. -1.
     999901    1    3    3    0    0 -0.37569970388E-01 -0.13443335695E+00  0.34574813024E-01  0.89167216388E+00  0.88000000000E+00 0. -1.
        -11    1    4    4    0    0  0.11897058365E-01  0.58203132649E-01 -0.37899957516E-01  0.70468521686E-01  0.51100000000E-03 0. -1.
         11    1    4    4    0    0  0.17855275787E-01  0.64539931046E-01  0.67777248251E-02  0.67308337133E-01  0.51100000000E-03 0.  1.
</event>
<event>
 8    1  0.2824193E+004  0.1043930E+01  0.7957747E-01            NaN
         13   -1    0    0    0    0  0.00000000000E+00  0.00000000000E+00  0.74505805969E-08  0.10566000000E+00  0.10566000000E+00 0.  1.
     999900   -1    0    0    0    0 -0.00000000000E+00 -0.00000000000E+00 -0.74505805969E-08  0.93827000000E+00  0.93827000000E+00 0.  1.
     999902    2    1    2    0    0 -0.12241759464E-01  0.51385648217E-02 -0.12515785025E-02  0.10305946345E+01  0.10305083545E+01 0.  0.
     999903    2    3    3    0    0  0.14570221189E-01 -0.76582302323E-01 -0.10723685549E+00  0.14007228144E+00  0.45203544976E-01 0.  0.
         14    1    1    2    0    0  0.12241759464E-01 -0.51385648217E-02  0.12515785025E-02  0.13335365460E-01  0.00000000000E+00 0. -1.
     999901    1    3    3    0    0 -0.26811980653E-01  0.81720867144E-01  0.10598527698E+00  0.89052235310E+00  0.88000000000E+00 0. -1.
        -11    1    4    4    0    0  0.11927214185E-02 -0.67981712778E-01 -0.61626839839E-01  0.91766357486E-01  0.51100000000E-03 0.  1.
         11    1    4    4    0    0  0.13377499770E-01 -0.86005895441E-02 -0.45610015648E-01  0.48305923954E-01  0.51100000000E-03 0. -1.
</event>
<event>
 8    1  0.2824193E+004  0.1043930E+01  0.7957747E-01            NaN
         13   -1    0    0    0    0  0.00000000000E+00  0.00000000000E+00  0.74505805969E-08  0.10566000000E+00  0.10566000000E+00 0. -1.
     999900   -1    0    0    0    0 -0.00000000000E+00 -0.00000000000E+00 -0.74505805969E-08  0.93827000000E+00  0.93827000000E+00 0. -1.
     999902    2    1    2    0    0  0.94241030004E-02 -0.64131724414E-02 -0.83312260622E-02  0.10298107994E+01  0.10297140043E+01 0.  0.
     999903    2    3    3    0    0  0.11763694392E+00 -0.61366046214E-01 -0.23425197511E-01  0.14135277267E+00  0.42750722338E-01 0.  0.
         14    1    1    2    0    0 -0.94241030004E-02  0.64131724414E-02  0.83312260622E-02  0.14119200609E-01  0.00000000000E+00 0. -1.
     999901    1    3    3    0    0 -0.10821284092E+00  0.54952873772E-01  0.15093971449E-01  0.88845802672E+00  0.88000000000E+00 0.  1.
        -11    1    4    4    0    0  0.70516780015E-01 -0.53644668450E-01 -0.10279258479E-02  0.88609731234E-01  0.51100000000E-03 0.  1.
         11    1    4    4    0    0  0.47120163902E-01 -0.77213777633E-02 -0.22397271663E-01  0.52743041434E-01  0.51100000000E-03 0. -1.
</event>
<event>
 8    1  0.2824193E+004  0.1043930E+01  0.7957747E-01            NaN
         13   -1    0    0    0    0  0.00000000000E+00  0.00000000000E+00  0.74505805969E-08  0.10566000000E+00  0.10566000000E+00 0.  1.
     999900   -1    0    0    0    0 -0.00000000000E+00 -0.00000000000E+00 -0.74505805969E-08  0.93827000000E+00  0.93827000000E+00 0.  1.
     999902    2    1    2    0    0  0.12908528073E-01  0.57789815210E-02  0.41000778891E-02  0.10292046014E+01  0.10290992538E+01 0.  0.
     999903    2    3    3    0    0  0.63705819817E-01  0.87058402442E-02 -0.11547695689E+00  0.13966112379E+00  0.45122929796E-01 0.  0.
         14    1    1    2    0    0 -0.12908528073E-01 -0.57789815210E-02 -0.41000778891E-02  0.14725398573E-01  0.00000000000E+00 0.  1.
     999901    1    3    3    0    0 -0.50797291744E-01 -0.29268587231E-02  0.11957703478E+00  0.88954347763E+00  0.88000000000E+00 0. -1.
        -11    1    4    4    0    0  0.36031788230E-02 -0.12194848599E-01 -0.33831039051E-01  0.36145505311E-01  0.51100000000E-03 0.  1.
         11    1    4    4    0    0  0.60102640994E-01  0.20900688843E-01 -0.81645917843E-01  0.10351561848E+00  0.51100000000E-03 0. -1.
</event>
<event>
 8    1  0.2824193E+004  0.1043930E+01  0.7957747E-01            NaN
         13   -1    0    0    0    0  0.00000000000E+00  0.00000000000E+00  0.74505805969E-08  0.10566000000E+00  0.10566000000E+00 0.  1.
     999900   -1    0    0    0    0 -0.00000000000E+00 -0.00000000000E+00 -0.74505805969E-08  0.93827000000E+00  0.93827000000E+00 0.  1.
     999902    2    1    2    0    0  0.12882699485E-01 -0.19509335079E-02 -0.72395898066E-03  0.10308803179E+01  0.10307977180E+01 0.  0.
     999903    2    3    3    0    0  0.96101434026E-01  0.83743111763E-01 -0.42375925903E-01  0.14183379853E+00  0.45527056998E-01 0.  0.
         14    1    1    2    0    0 -0.12882699485E-01  0.19509335079E-02  0.72395898066E-03  0.13049682149E-01  0.00000000000E+00 0.  1.
     999901    1    3    3    0    0 -0.83218734541E-01 -0.85694045271E-01  0.41651966923E-01  0.88904651932E+00  0.88000000000E+00 0.  1.
        -11    1    4    4    0    0  0.30526146115E-01  0.25103226993E-02 -0.55628930910E-02  0.31134453861E-01  0.51100000000E-03 0.  1.
         11    1    4    4    0    0  0.65575287911E-01  0.81232789064E-01 -0.36813032812E-01  0.11069934467E+00  0.51100000000E-03 0. -1.
</event>
<event>
 8    1  0.2824193E+004  0.1043930E+01  0.7957747E-01            NaN
         13   -1    0    0    0    0  0.00000000000E+00  0.00000000000E+00  0.74505805969E-08  0.10566000000E+00  0.10566000000E+00 0. -1.
     999900   -1    0    0    0    0 -0.00000000000E+00 -0.00000000000E+00 -0.74505805969E-08  0.93827000000E+00  0.93827000000E+00 0.  1.
     999902    2    1    2    0    0  0.71182914673E-02 -0.22623402361E-01  0.77896760879E-04  0.10202130340E+01  0.10199373217E+01 0.  0.
     999903    2    3    3    0    0 -0.50356887181E-01  0.38491250895E-01 -0.10443536397E+00  0.13006618170E+00  0.44643856176E-01 0.  0.
         14    1    1    2    0    0 -0.71182914673E-02  0.22623402361E-01 -0.77896760879E-04  0.23716965989E-01  0.00000000000E+00 0.  1.
     999901    1    3    3    0    0  0.57475178648E-01 -0.61114653256E-01  0.10451326073E+00  0.89014685231E+00  0.88000000000E+00 0. -1.
        -11    1    4    4    0    0 -0.36852669461E-01  0.70088168989E-03 -0.57616456704E-01  0.68399763784E-01  0.51100000000E-03 0. -1.
         11    1    4    4    0    0 -0.13504217720E-01  0.37790369205E-01 -0.46818907263E-01  0.61666417921E-01  0.51100000000E-03 0.  1.
</event>
<event>
 8    1  0.2824193E+004  0.1043930E+01  0.7957747E-01            NaN
         13   -1    0    0    0    0  0.00000000000E+00  0.00000000000E+00  0.74505805969E-08  0.10566000000E+00  0.10566000000E+00 0. -1.
     999900   -1    0    0    0    0 -0.00000000000E+00 -0.00000000000E+00 -0.74505805969E-08  0.93827000000E+00  0.93827000000E+00 0.  1.
     999902    2    1    2    0    0 -0.48262156604E-02 -0.14341429979E-01  0.26366613760E-02  0.10285702814E+01  0.10284555911E+01 0.  0.
     999903    2    3    3    0    0 -0.71193992374E-01 -0.41598499680E-02 -0.10964082393E+00  0.13889922982E+00  0.46754645443E-01 0.  0.
         14    1    1    2    0    0  0.48262156604E-02  0.14341429979E-01 -0.26366613760E-02  0.15359718573E-01  0.00000000000E+00 0.  1.
     999901    1    3    3    0    0  0.66367776714E-01 -0.10181580011E-01  0.11227748531E+00  0.88967105161E+00  0.88000000000E+00 0. -1.
        -11    1    4    4    0    0 -0.55316627092E-01 -0.23208092808E-01 -0.84031907744E-01  0.10324808688E+00  0.51100000000E-03 0. -1.
         11    1    4    4    0    0 -0.15877365282E-01  0.19048242840E-01 -0.25608916189E-01  0.35651142940E-01  0.51100000000E-03 0.  1.
</event>
<event>
 8    1  0.2824193E+004  0.1043930E+01  0.7957747E-01            NaN
         13   -1    0    0    0    0  0.00000000000E+00  0.00000000000E+00  0.74505805969E-08  0.10566000000E+00  0.10566000000E+00 0. -1.
     999900   -1    0    0    0    0 -0.00000000000E+00 -0.00000000000E+00 -0.74505805969E-08  0.93827000000E+00  0.93827000000E+00 0.  1.
     999902    2    1    2    0    0  0.25947491008E-02 -0.12251697693E-01  0.77683031432E-02  0.10291928580E+01  0.10290873411E+01 0.  0.
     999903    2    3    3    0    0  0.28261448896E-01 -0.12348714362E+00  0.43351257808E-01  0.14110600949E+00  0.44539760096E-01 0.  0.
         14    1    1    2    0    0 -0.25947491008E-02  0.12251697693E-01 -0.77683031432E-02  0.14737141954E-01  0.00000000000E+00 0.  1.
     999901    1    3    3    0    0 -0.25666699796E-01  0.11123544592E+00 -0.35582954665E-01  0.88808684855E+00  0.88000000000E+00 0. -1.
        -11    1    4    4    0    0  0.11779914788E-01 -0.97929357409E-01  0.15464943834E-01  0.99841629813E-01  0.51100000000E-03 0.  1.
         11    1    4    4    0    0  0.16481534108E-01 -0.25557786208E-01  0.27886313974E-01  0.41264379681E-01  0.51100000000E-03 0. -1.
</event>
<event>
 8    1  0.2824193E+004  0.1043930E+01  0.7957747E-01            NaN
         13   -1    0    0    0    0  0.00000000000E+00  0.00000000000E+00  0.74505805969E-08  0.10566000000E+00  0.10566000000E+00 0. -1.
     999900   -1    0    0    0    0 -0.00000000000E+00 -0.00000000000E+00 -0.74505805969E-08  0.93827000000E+00  0.93827000000E+00 0. -1.
     999902    2    1    2    0    0  0.12045371717E-01 -0.18798454797E-02  0.50831858958E-02  0.10307215339E+01  0.10306368986E+01 0.  0.
     999903    2    3    3    0    0  0.82167074034E-01  0.59102015699E-01  0.88878150975E-01  0.14186978205E+00  0.44533504503E-01 0.  0.
         14    1    1    2    0    0 -0.12045371717E-01  0.18798454797E-02 -0.50831858958E-02  0.13208466137E-01  0.00000000000E+00 0.  1.
     999901    1    3    3    0    0 -0.70121702317E-01 -0.60981861178E-01 -0.83794965079E-01  0.88885175181E+00  0.88000000000E+00 0. -1.
        -11    1    4    4    0    0  0.15318114870E-01  0.35226212541E-01  0.21627583476E-01  0.44085645977E-01  0.51100000000E-03 0.  1.
         11    1    4    4    0    0  0.66848959164E-01  0.23875803158E-01  0.67250567499E-01  0.97784136073E-01  0.51100000000E-03 0. -1.
</event>
<event>
 8    1  0.2824193E+004  0.1043930E+01  0.7957747E-01            NaN
         13   -1    0    0    0    0  0.00000000000E+00  0.00000000000E+00  0.74505805969E-08  0.10566000000E+00  0.10566000000E+00 0.  1.
     999900   -1    0    0    0    0 -0.00000000000E+00 -0.00000000000E+00 -0.74505805969E-08  0.93827000000E+00  0.93827000000E+00 0.  1.
     999902    2    1    2    0    0  0.80721318876E-02  0.69761643994E-02  0.85537735826E-02  0.10302554534E+01  0.10301646985E+01 0.  0.
     999903    2    3    3    0    0 -0.31065750619E-01  0.12875211176E+00  0.17836582959E-01  0.14095948141E+00  0.44824597733E-01 0.  0.
         14    1    1    2    0    0 -0.80721318876E-02 -0.69761643994E-02 -0.85537735826E-02  0.13674546626E-01  0.00000000000E+00 0. -1.
     999901    1    3    3    0    0  0.39137882507E-01 -0.12177594736E+00 -0.92828093763E-02  0.88929597197E+00  0.88000000000E+00 0.  1.
        -11    1    4    4    0    0 -0.42437357223E-01  0.10234363844E+00  0.17716188112E-01  0.11220193429E+00  0.51100000000E-03 0. -1.
         11    1    4    4    0    0  0.11371606604E-01  0.26408473326E-01  0.12039484671E-03  0.28757547115E-01  0.51100000000E-03 0.  1.
</event>
<event>
 8    1  0.2824193E+004  0.1043930E+01  0.7957747E-01            NaN
         13   -1    0    0    0    0  0.00000000000E+00  0.00000000000E+00  0.74505805969E-08  0.10566000000E+00  0.10566000000E+00 0. -1.
     999900   -1    0    0    0    0 -0.00000000000E+00 -0.00000000000E+00 -0.74505805969E-08  0.93827000000E+00  0.93827000000E+00 0. -1.
     999902    2    1    2    0    0  0.10019452471E-02  0.47692119626E-02 -0.13286089244E-01  0.10297783413E+01  0.10296810976E+01 0.  0.
     999903    2    3    3    0    0  0.10946979254E+00  0.69996902950E-02 -0.76452989815E-01  0.14086872481E+00  0.44343058487E-01 0.  0.
         14    1    1    2    0    0 -0.10019452471E-02 -0.47692119626E-02  0.13286089244E-01  0.14151658716E-01  0.00000000000E+00 0. -1.
     999901    1    3    3    0    0 -0.10846784729E+00 -0.22304783325E-02  0.63166900571E-01  0.88890961647E+00  0.88000000000E+00 0.  1.
        -11    1    4    4    0    0  0.54154497280E-01  0.70506711330E-02 -0.64058642194E-01  0.84179524231E-01  0.51100000000E-03 0. -1.
         11    1    4    4    0    0  0.55315295257E-01 -0.50980837985E-04 -0.12394347621E-01  0.56689200580E-01  0.51100000000E-03 0.  1.
</event>
<event>
 8    1  0.2824193E+004  0.1043930E+01  0.7957747E-01            NaN
         13   -1    0    0    0    0  0.00000000000E+00  0.00000000000E+00  0.74505805969E-08  0.10566000000E+00  0.10566000000E+00 0. -1.
     999900   -1    0    0    0    0 -0.00000000000E+00 -0.00000000000E+00 -0.74505805969E-08  0.93827000000E+00  0.93827000000E+00 0. -1.
     999902    2    1    2    0    0 -0.86809436154E-02  0.90732575702E-02 -0.10573363054E-01  0.10275141908E+01  0.10273830510E+01 0.  0.
     999903    2    3    3    0    0  0.96454137586E-01 -0.85684999657E-01 -0.84937480667E-02  0.13620232765E+00  0.42820678161E-01 0.  0.
         14    1    1    2    0    0  0.86809436154E-02 -0.90732575702E-02  0.10573363054E-01  0.16415809187E-01  0.00000000000E+00 0.  1.
     999901    1    3    3    0    0 -0.10513508120E+00  0.94758257227E-01 -0.20796149877E-02  0.89131186316E+00  0.88000000000E+00 0.  1.
        -11    1    4    4    0    0  0.18986065800E-01 -0.43430183894E-01 -0.72247939421E-02  0.47949038949E-01  0.51100000000E-03 0.  1.
         11    1    4    4    0    0  0.77468071786E-01 -0.42254815762E-01 -0.12689541246E-02  0.88253288704E-01  0.51100000000E-03 0. -1.
</event>
<event>
 8    1  0.2824193E+004  0.1043930E+01  0.7957747E-01            NaN
         13   -1    0    0    0    0  0.00000000000E+00  0.00000000000E+00  0.74505805969E-08  0.10566000000E+00  0.10566000000E+00 0. -1.
     999900   -1    0    0    0    0 -0.00000000000E+00 -0.00000000000E+00 -0.74505805969E-08  0.93827000000E+00  0.93827000000E+00 0. -1.
     999902    2    1    2    0    0  0.13119964650E-01 -0.40890144793E-02 -0.30101373193E-02  0.10298617933E+01  0.10297657010E+01 0.  0.
     999903    2    3    3    0    0  0.35232178821E-01  0.11855357036E+00 -0.47734472569E-01  0.13995706822E+00  0.44868091143E-01 0.  0.
         14    1    1    2    0    0 -0.13119964650E-01  0.40890144793E-02  0.30101373193E-02  0.14068206656E-01  0.00000000000E+00 0.  1.
     999901    1    3    3    0    0 -0.22112214170E-01 -0.12264258484E+00  0.44724335250E-01  0.88990472512E+00  0.88000000000E+00 0. -1.
        -11    1    4    4    0    0  0.25312428287E-01  0.11599707199E+00 -0.50964267047E-01  0.12920393714E+00  0.51100000000E-03 0.  1.
         11    1    4    4    0    0  0.99197505340E-02  0.25564983700E-02  0.32297944772E-02  0.10753131076E-01  0.51100000000E-03 0. -1.
</event>
<event>
 8    1  0.2824193E+004  0.1043930E+01  0.7957747E-01            NaN
         13   -1    0    0    0    0  0.00000000000E+00  0.00000000000E+00  0.74505805969E-08  0.10566000000E+00  0.10566000000E+00 0.  1.
     999900   -1    0    0    0    0 -0.00000000000E+00 -0.00000000000E+00 -0.74505805969E-08  0.93827000000E+00  0.93827000000E+00 0. -1.
     999902    2    1    2    0    0  0.12649137427E-02 -0.72524580086E-02 -0.11848493498E-01  0.10299806290E+01  0.10298861641E+01 0.  0.
     999903    2    3    3    0    0  0.57750661912E-01  0.10795768175E+00 -0.47983979479E-01  0.13994142231E+00  0.47865847847E-01 0.  0.
         14    1    1    2    0    0 -0.12649137427E-02  0.72524580086E-02  0.11848493498E-01  0.13949371029E-01  0.00000000000E+00 0.  1.
     999901    1    3    3    0    0 -0.56485748169E-01 -0.11521013976E+00  0.36135485981E-01  0.89003920666E+00  0.88000000000E+00 0.  1.
        -11    1    4    4    0    0  0.27212841147E-01  0.30336049995E-01 -0.38367872980E-01  0.55974721532E-01  0.51100000000E-03 0. -1.
         11    1    4    4    0    0  0.30537820765E-01  0.77621631759E-01 -0.96161064984E-02  0.83966700776E-01  0.51100000000E-03 0.  1.
</event>
<event>
 8    1  0.2824193E+004  0.1043930E+01  0.7957747E-01            NaN
         13   -1    0    0    0    0  0.00000000000E+00  0.00000000000E+00  0.74505805969E-08  0.10566000000E+00  0.10566000000E+00 0.  1.
     999900   -1    0    0    0    0 -0.00000000000E+00 -0.00000000000E+00 -0.74505805969E-08  0.93827000000E+00  0.93827000000E+00 0. -1.
     999902    2    1    2    0    0 -0.10231513252E-01  0.77110070169E-02 -0.64080018412E-02  0.10296049876E+01  0.10295053300E+01 0.  0.
     999903    2    3    3    0    0 -0.72364602995E-01  0.10490710061E+00  0.40887530870E-01  0.14081678512E+00  0.43765754488E-01 0.  0.
         14    1    1    2    0    0  0.10231513252E-01 -0.77110070169E-02  0.64080018412E-02  0.14325012399E-01  0.00000000000E+00 0.  1.
     999901    1    3    3    0    0  0.62133089743E-01 -0.97196093596E-01 -0.47295532712E-01  0.88878820248E+00  0.88000000000E+00 0.  1.
        -11    1    4    4    0    0 -0.81107729519E-02  0.22094687613E-01  0.25787370386E-01  0.34917179884E-01  0.51100000000E-03 0.  1.
         11    1    4    4    0    0 -0.64253830043E-01  0.82812412999E-01  0.15100160484E-01  0.10589960524E+00  0.51100000000E-03 0. -1.
</event>
<event>
 7    1  0.2824193E+004  0.1043930E+01  0.7957747E-01            NaN
         13   -1    0    0    0    0  0.00000000000E+00  0.00000000000E+00  0.74505805969E-08  0.10566000000E+00  0.10566000000E+00 0.  1.
     999900   -1    0    0    0    0 -0.00000000000E+00 -0.00000000000E+00 -0.74505805969E-08  0.93827000000E+00  0.93827000000E+00 0.  1.
     999903    2    1    2    0    0 -0.10944889576E+00 -0.18641682170E-01 -0.35431557150E-02  0.11949388130E+00  0.44041578297E-01 0.  0.
         14    1    1    2    0    0  0.15992187550E-01 -0.28115716269E-02 -0.34795419278E-01  0.38397606702E-01  0.00000000000E+00 0. -1.
     999901    1    1    2    0    0  0.93456708210E-01  0.21453253797E-01  0.38338574993E-01  0.88603851200E+00  0.88000000000E+00 0. -1.
        -11    1    3    3    0    0 -0.47663745014E-01 -0.25994252841E-01 -0.14768222953E-01  0.56266289195E-01  0.51100000000E-03 0.  1.
         11    1    3    3    0    0 -0.61785150746E-01  0.73525706709E-02  0.11225067238E-01  0.63227592108E-01  0.51100000000E-03 0. -1.
</event>
<event>
 8    1  0.2824193E+004  0.1043930E+01  0.7957747E-01            NaN
         13   -1    0    0    0    0  0.00000000000E+00  0.00000000000E+00  0.74505805969E-08  0.10566000000E+00  0.10566000000E+00 0. -1.
     999900   -1    0    0    0    0 -0.00000000000E+00 -0.00000000000E+00 -0.74505805969E-08  0.93827000000E+00  0.93827000000E+00 0.  1.
     999902    2    1    2    0    0 -0.10885200490E-01 -0.28677629149E-02  0.89379863227E-02  0.10295564391E+01  0.10294561001E+01 0.  0.
     999903    2    3    3    0    0 -0.11971031629E+00 -0.12235909509E-01 -0.56469318378E-01  0.14039459583E+00  0.45183861191E-01 0.  0.
         14    1    1    2    0    0  0.10885200490E-01  0.28677629149E-02 -0.89379863227E-02  0.14373560914E-01  0.00000000000E+00 0.  1.
     999901    1    3    3    0    0  0.10882511580E+00  0.93681465940E-02  0.65407304701E-01  0.88916184326E+00  0.88000000000E+00 0.  1.
        -11    1    4    4    0    0 -0.91993408396E-01 -0.23955711678E-03 -0.60226180788E-01  0.10995589365E+00  0.51100000000E-03 0.  1.
         11    1    4    4    0    0 -0.27716907892E-01 -0.11996352392E-01  0.37568624104E-02  0.30438702173E-01  0.51100000000E-03 0. -1.
</event>
<event>
 8    1  0.2824193E+004  0.1043930E+01  0.7957747E-01            NaN
         13   -1    0    0    0    0  0.00000000000E+00  0.00000000000E+00  0.74505805969E-08  0.10566000000E+00  0.10566000000E+00 0.  1.
     999900   -1    0    0    0    0 -0.00000000000E+00 -0.00000000000E+00 -0.74505805969E-08  0.93827000000E+00  0.93827000000E+00 0. -1.
     999902    2    1    2    0    0 -0.20750830229E-02  0.11994577056E-01 -0.34441509624E-02  0.10312793864E+01  0.10312017915E+01 0.  0.
     999903    2    3    3    0    0 -0.10424188315E+00  0.27124160789E-01  0.79460051397E-01  0.14136924144E+00  0.45489255404E-01 0.  0.
         14    1    1    2    0    0  0.20750830229E-02 -0.11994577056E-01  0.34441509624E-02  0.12650613588E-01  0.00000000000E+00 0.  1.
     999901    1    3    3    0    0  0.10216680012E+00 -0.15129583733E-01 -0.82904202359E-01  0.88991014497E+00  0.88000000000E+00 0. -1.
        -11    1    4    4    0    0 -0.24208224670E-01 -0.12903610782E-01  0.18846554055E-01  0.33286559355E-01  0.51100000000E-03 0.  1.
         11    1    4    4    0    0 -0.80033658477E-01  0.40027771572E-01  0.60613497341E-01  0.10808268209E+00  0.51100000000E-03 0. -1.
</event>
<event>
 8    1  0.2824193E+004  0.1043930E+01  0.7957747E-01            NaN
         13   -1    0    0    0    0  0.00000000000E+00  0.00000000000E+00  0.74505805969E-08  0.10566000000E+00  0.10566000000E+00 0.  1.
     999900   -1    0    0    0    0 -0.00000000000E+00 -0.00000000000E+00 -0.74505805969E-08  0.93827000000E+00  0.93827000000E+00 0.  1.
     999902    2    1    2    0    0 -0.63359809591E-02  0.32724940219E-02 -0.12568778626E-01  0.10294791153E+01  0.10293776862E+01 0.  0.
     999903    2    3    3    0    0 -0.11841636029E+00 -0.58731978187E-01 -0.87078360680E-02  0.14019767906E+00  0.45909510537E-01 0.  0.
         14    1    1    2    0    0  0.63359809591E-02 -0.32724940219E-02  0.12568778626E-01  0.14450884678E-01  0.00000000000E+00 0.  1.
     999901    1    3    3    0    0  0.11208037933E+00  0.62004472209E-01 -0.38609425575E-02  0.88928143626E+00  0.88000000000E+00 0.  1.
        -11    1    4    4    0    0 -0.64206693644E-01 -0.56651984277E-01 -0.35647967635E-02  0.85702483793E-01  0.51100000000E-03 0.  1.
         11    1    4    4    0    0 -0.54209666648E-01 -0.20799939097E-02 -0.51430393045E-02  0.54495195266E-01  0.51100000000E-03 0. -1.
</event>
<event>
 8    1  0.2824193E+004  0.1043930E+01  0.7957747E-01            NaN
         13   -1    0    0    0    0  0.00000000000E+00  0.00000000000E+00  0.74505805969E-08  0.10566000000E+00  0.10566000000E+00 0.  1.
     999900   -1    0    0    0    0 -0.00000000000E+00 -0.00000000000E+00 -0.74505805969E-08  0.93827000000E+00  0.93827000000E+00 0. -1.
     999902    2    1    2    0    0  0.35475073219E-02 -0.52038143210E-02  0.12377911934E-01  0.10300419765E+01  0.10299483464E+01 0.  0.
     999903    2    3    3    0    0 -0.65072054958E-01 -0.10951992237E+00  0.40094525939E-01  0.14079583209E+00  0.44574764088E-01 0.  0.
         14    1    1    2    0    0 -0.35475073219E-02  0.52038143210E-02 -0.12377911934E-01  0.13888023457E-01  0.00000000000E+00 0. -1.
     999901    1    3    3    0    0  0.68619562280E-01  0.10431610804E+00 -0.27716614005E-01  0.88924614445E+00  0.88000000000E+00 0. -1.
        -11    1    4    4    0    0 -0.39695045320E-01 -0.38957770822E-01  0.34822656740E-01  0.65622275744E-01  0.51100000000E-03 0. -1.
         11    1    4    4    0    0 -0.25377009638E-01 -0.70562151543E-01  0.52718691996E-02  0.75173556351E-01  0.51100000000E-03 0.  1.
</event>
<event>
 8    1  0.2824193E+004  0.1043930E+01  0.7957747E-01            NaN
         13   -1    0    0    0    0  0.00000000000E+00  0.00000000000E+00  0.74505805969E-08  0.10566000000E+00  0.10566000000E+00 0.  1.
     999900   -1    0    0    0    0 -0.00000000000E+00 -0.00000000000E+00 -0.74505805969E-08  0.93827000000E+00  0.93827000000E+00 0.  1.
     999902    2    1    2    0    0  0.98978843094E-02  0.53255672314E-02  0.13483769011E-01  0.10263760316E+01  0.10262259091E+01 0.  0.
     999903    2    3    3    0    0  0.11776289369E+00 -0.14928553019E-01  0.55194599201E-01  0.13857826014E+00  0.45459097865E-01 0.  0.
         14    1    1    2    0    0 -0.98978843094E-02 -0.53255672314E-02 -0.13483769011E-01  0.17553968408E-01  0.00000000000E+00 0. -1.
     999901    1    3    3    0    0 -0.10786500938E+00  0.20254120251E-01 -0.41710830190E-01  0.88779777145E+00  0.88000000000E+00 0.  1.
        -11    1    4    4    0    0  0.59329829083E-01 -0.28552949124E-01  0.38592175795E-01  0.76321141739E-01  0.51100000000E-03 0. -1.
         11    1    4    4    0    0  0.58433064602E-01  0.13624396104E-01  0.16602423407E-01  0.62257118404E-01  0.51100000000E-03 0.  1.
</event>
<event>
 8    1  0.2824193E+004  0.1043930E+01  0.7957747E-01            NaN
         13   -1    0    0    0    0  0.00000000000E+00  0.00000000000E+00  0.74505805969E-08  0.10566000000E+00  0.10566000000E+00 0.  1.
     999900   -1    0    0    0    0 -0.00000000000E+00 -0.00000000000E+00 -0.74505805969E-08  0.93827000000E+00  0.93827000000E+00 0. -1.
     999902    2    1    2    0    0  0.10345299742E-01  0.17300202868E-01  0.10212385545E-01  0.10213332068E+01  0.10210832014E+01 0.  0.
     999903    2    3    3    0    0 -0.76721192574E-01  0.79510468113E-02 -0.95239753354E-01  0.13072210510E+00  0.45478540086E-01 0.  0.
         14    1    1    2    0    0 -0.10345299742E-01 -0.17300202868E-01 -0.10212385545E-01  0.22596793236E-01  0.00000000000E+00 0. -1.
     999901    1    3    3    0    0  0.87066492316E-01  0.93491560570E-02  0.10545213890E+00  0.89061110166E+00  0.88000000000E+00 0.  1.
        -11    1    4    4    0    0 -0.33978738266E-01  0.21187987855E-01 -0.24283341559E-01  0.46834039776E-01  0.51100000000E-03 0.  1.
         11    1    4    4    0    0 -0.42742454308E-01 -0.13236941044E-01 -0.70956411795E-01  0.83888065327E-01  0.51100000000E-03 0. -1.
</event>
<event>
 8    1  0.2824193E+004  0.1043930E+01  0.7957747E-01            NaN
         13   -1    0    0    0    0  0.00000000000E+00  0.00000000000E+00  0.74505805969E-08  0.10566000000E+00  0.10566000000E+00 0.  1.
     999900   -1    0    0    0    0 -0.00000000000E+00 -0.00000000000E+00 -0.74505805969E-08  0.93827000000E+00  0.93827000000E+00 0. -1.
     999902    2    1    2    0    0  0.12183051490E-01  0.67948515880E-02  0.17743376904E-02  0.10298678157E+01  0.10297718062E+01 0.  0.
     999903    2    3    3    0    0  0.12344872550E+00 -0.70792870633E-02 -0.51755740952E-01  0.14113950448E+00  0.44181431260E-01 0.  0.
         14    1    1    2    0    0 -0.12183051490E-01 -0.67948515880E-02 -0.17743376904E-02  0.14062184252E-01  0.00000000000E+00 0.  1.
     999901    1    3    3    0    0 -0.11126567401E+00  0.13874138651E-01  0.53530078642E-01  0.88872831127E+00  0.88000000000E+00 0.  1.
        -11    1    4    4    0    0  0.96883814408E-01 -0.10384123764E-01 -0.19767927097E-01  0.99425024934E-01  0.51100000000E-03 0. -1.
         11    1    4    4    0    0  0.26564911097E-01  0.33048367008E-02 -0.31987813855E-01  0.41714479541E-01  0.51100000000E-03 0.  1.
</event>
<event>
 8    1  0.2824193E+004  0.1043930E+01  0.7957747E-01            NaN
         13   -1    0    0    0    0  0.00000000000E+00  0.00000000000E+00  0.74505805969E-08  0.10566000000E+00  0.10566000000E+00 0.  1.
     999900   -1    0    0    0    0 -0.00000000000E+00 -0.00000000000E+00 -0.74505805969E-08  0.93827000000E+00  0.93827000000E+00 0. -1.
     999902    2    1    2    0    0 -0.66298751036E-02  0.26377881894E-02 -0.11370825271E-01  0.10305058115E+01  0.10304183707E+01 0.  0.
     999903    2    3    3    0    0  0.72081195401E-01 -0.65502839914E-01 -0.91100199651E-01  0.14078936734E+00  0.45122929993E-01 0.  0.
         14    1    1    2    0    0  0.66298751036E-02 -0.26377881894E-02  0.11370825271E-01  0.13424188533E-01  0.00000000000E+00 0.  1.
     999901    1    3    3    0    0 -0.78711070505E-01  0.68140628104E-01  0.79729374380E-01  0.88971644413E+00  0.88000000000E+00 0. -1.
        -11    1    4    4    0    0  0.55566525149E-01 -0.69557532770E-01 -0.67637699159E-01  0.11180790916E+00  0.51100000000E-03 0.  1.
         11    1    4    4    0    0  0.16514670252E-01  0.40546928556E-02 -0.23462500492E-01  0.28981458176E-01  0.51100000000E-03 0. -1.
</event>
<event>
 8    1  0.2824193E+004  0.1043930E+01  0.7957747E-01            NaN
         13   -1    0    0    0    0  0.00000000000E+00  0.00000000000E+00  0.74505805969E-08  0.10566000000E+00  0.10566000000E+00 0. -1.
     999900   -1    0    0    0    0 -0.00000000000E+00 -0.00000000000E+00 -0.74505805969E-08  0.93827000000E+00  0.93827000000E+00 0.  1.
     999902    2    1    2    0    0 -0.12528708111E-01  0.55951951157E-02 -0.38225462191E-02  0.10296861734E+01  0.10295876501E+01 0.  0.
     999903    2    3    3    0    0  0.52866390871E-01  0.10882119095E+00  0.52234164381E-01  0.13947581629E+00  0.45696701392E-01 0.  0.
         14    1    1    2    0    0  0.12528708111E-01 -0.55951951157E-02  0.38225462191E-02  0.14243826555E-01  0.00000000000E+00 0. -1.
     999901    1    3    3    0    0 -0.65395098982E-01 -0.10322599583E+00 -0.56056710600E-01  0.89021035716E+00  0.88000000000E+00 0.  1.
        -11    1    4    4    0    0  0.56675595451E-01  0.71940063987E-01  0.30686761813E-01  0.96588997291E-01  0.51100000000E-03 0. -1.
         11    1    4    4    0    0 -0.38092045793E-02  0.36881126959E-01  0.21547402568E-01  0.42886818998E-01  0.51100000000E-03 0.  1.
</event>
<event>
 8    1  0.2824193E+004  0.1043930E+01  0.7957747E-01            NaN
         13   -1    0    0    0    0  0.00000000000E+00  0.00000000000E+00  0.74505805969E-08  0.10566000000E+00  0.10566000000E+00 0.  1.
     999900   -1    0    0    0    0 -0.00000000000E+00 -0.00000000000E+00 -0.74505805969E-08  0.93827000000E+00  0.93827000000E+00 0.  1.
     999902    2    1    2    0    0 -0.86898119234E-02  0.10443251074E-01  0.38931376938E-02  0.10297973836E+01  0.10297004033E+01 0.  0.
     999903    2    3    3    0    0  0.43489908863E-01 -0.24714148321E-01  0.12197902515E+00  0.13968332195E+00  0.46156110677E-01 0.  0.
         14    1    1    2    0    0  0.86898119234E-02 -0.10443251074E-01 -0.38931376938E-02  0.14132616366E-01  0.00000000000E+00 0.  1.
     999901    1    3    3    0    0 -0.52179720787E-01  0.35157399395E-01 -0.11808588746E+00  0.89011406169E+00  0.88000000000E+00 0.  1.
        -11    1    4    4    0    0  0.49867967154E-01 -0.17982894452E-01  0.75303101295E-01  0.92092436315E-01  0.51100000000E-03 0. -1.
         11    1    4    4    0    0 -0.63780582907E-02 -0.67312538697E-02  0.46675923859E-01  0.47590885633E-01  0.51100000000E-03 0.  1.
</event>
<event>
 8    1  0.2824193E+004  0.1043930E+01  0.7957747E-01            NaN
         13   -1    0    0    0    0  0.00000000000E+00  0.00000000000E+00  0.74505805969E-08  0.10566000000E+00  0.10566000000E+00 0.  1.
     999900   -1    0    0    0    0 -0.00000000000E+00 -0.00000000000E+00 -0.74505805969E-08  0.93827000000E+00  0.93827000000E+00 0.  1.
     999902    2    1    2    0    0  0.12801931223E-01  0.52106804624E-02 -0.10539158845E-02  0.10300681324E+01  0.10299748570E+01 0.  0.
     999903    2    3    3    0    0 -0.35891332744E-01 -0.97921496163E-01  0.80331084876E-01  0.13898407457E+00  0.44572217925E-01 0.  0.
         14    1    1    2    0    0 -0.12801931223E-01 -0.52106804624E-02  0.10539158845E-02  0.13861867573E-01  0.00000000000E+00 0. -1.
     999901    1    3    3    0    0  0.48693263967E-01  0.10313217663E+00 -0.81385000761E-01  0.89108405785E+00  0.88000000000E+00 0.  1.
        -11    1    4    4    0    0 -0.10113607046E-01 -0.13269099075E-01 -0.35381829543E-02  0.17062646259E-01  0.51100000000E-03 0.  1.
         11    1    4    4    0    0 -0.25777725698E-01 -0.84652397088E-01  0.83869267831E-01  0.12192142831E+00  0.51100000000E-03 0. -1.
</event>
<event>
 8    1  0.2824193E+004  0.1043930E+01  0.7957747E-01            NaN
         13   -1    0    0    0    0  0.00000000000E+00  0.00000000000E+00  0.74505805969E-08  0.10566000000E+00  0.10566000000E+00 0. -1.
     999900   -1    0    0    0    0 -0.00000000000E+00 -0.00000000000E+00 -0.74505805969E-08  0.93827000000E+00  0.93827000000E+00 0. -1.
     999902    2    1    2    0    0  0.29901858696E-02 -0.11563185509E-01  0.60163007045E-02  0.10305567302E+01  0.10304699558E+01 0.  0.
     999903    2    3    3    0    0  0.48395488671E-02  0.68521204687E-02 -0.13180090213E+00  0.13963803300E+00  0.45353386554E-01 0.  0.
         14    1    1    2    0    0 -0.29901858696E-02  0.11563185509E-01 -0.60163007045E-02  0.13373269788E-01  0.00000000000E+00 0.  1.
     999901    1    3    3    0    0 -0.18493629975E-02 -0.18415305978E-01  0.13781720283E+00  0.89091869721E+00  0.88000000000E+00 0.  1.
        -11    1    4    4    0    0  0.14546910402E-02 -0.19151389668E-01 -0.44207626422E-01  0.48202356863E-01  0.51100000000E-03 0. -1.
         11    1    4    4    0    0  0.33848578269E-02  0.26003510137E-01 -0.87593275704E-01  0.91435676142E-01  0.51100000000E-03 0.  1.
</event>
<event>
 8    1  0.2824193E+004  0.1043930E+01  0.7957747E-01            NaN
         13   -1    0    0    0    0  0.00000000000E+00  0.00000000000E+00  0.74505805969E-08  0.10566000000E+00  0.10566000000E+00 0. -1.
     999900   -1    0    0    0    0 -0.00000000000E+00 -0.00000000000E+00 -0.74505805969E-08  0.93827000000E+00  0.93827000000E+00 0.  1.
     999902    2    1    2    0    0  0.11289558778E-01 -0.56781474951E-02 -0.72180834589E-02  0.10293767796E+01  0.10292738985E+01 0.  0.
     999903    2    3    3    0    0 -0.12221898911E+00  0.37636645618E-01 -0.26507327220E-01  0.13804475467E+00  0.44718201047E-01 0.  0.
         14    1    1    2    0    0 -0.11289558778E-01  0.56781474951E-02  0.72180834589E-02  0.14553220441E-01  0.00000000000E+00 0. -1.
     999901    1    3    3    0    0  0.13350854789E+00 -0.43314793113E-01  0.19289243761E-01  0.89133202489E+00  0.88000000000E+00 0.  1.
        -11    1    4    4    0    0 -0.91754988777E-01  0.11400910571E-01 -0.31154881641E-01  0.97569700719E-01  0.51100000000E-03 0. -1.
         11    1    4    4    0    0 -0.30464000331E-01  0.26235735047E-01  0.46475544211E-02  0.40475053956E-01  0.51100000000E-03 0.  1.
</event>
<event>
 8    1  0.2824193E+004  0.1043930E+01  0.7957747E-01            NaN
         13   -1    0    0    0    0  0.00000000000E+00  0.00000000000E+00  0.74505805969E-08  0.10566000000E+00  0.10566000000E+00 0. -1.
     999900   -1    0    0    0    0 -0.00000000000E+00 -0.00000000000E+00 -0.74505805969E-08  0.93827000000E+00  0.93827000000E+00 0.  1.
     999902    2    1    2    0    0 -0.21065263633E-01 -0.85911320711E-02 -0.65735806333E-02  0.10202495261E+01  0.10199746716E+01 0.  0.
     999903    2    3    3    0    0  0.36224107811E-01 -0.40734539001E-01  0.10909691861E+00  0.13025237155E+00  0.45738976715E-01 0.  0.
         14    1    1    2    0    0  0.21065263633E-01  0.85911320711E-02  0.65735806333E-02  0.23680473909E-01  0.00000000000E+00 0. -1.
     999901    1    3    3    0    0 -0.57289371444E-01  0.32143406930E-01 -0.11567049924E+00  0.88999715454E+00  0.88000000000E+00 0.  1.
        -11    1    4    4    0    0  0.31069261767E-01 -0.46995939147E-01  0.67752370204E-01  0.88116752733E-01  0.51100000000E-03 0.  1.
         11    1    4    4    0    0  0.51548460434E-02  0.62614001452E-02  0.41344548406E-01  0.42135618821E-01  0.51100000000E-03 0. -1.
</event>
<event>
 8    1  0.2824193E+004  0.1043930E+01  0.7957747E-01            NaN
         13   -1    0    0    0    0  0.00000000000E+00  0.00000000000E+00  0.74505805969E-08  0.10566000000E+00  0.10566000000E+00 0. -1.
     999900   -1    0    0    0    0 -0.00000000000E+00 -0.00000000000E+00 -0.74505805969E-08  0.93827000000E+00  0.93827000000E+00 0.  1.
     999902    2    1    2    0    0  0.81023074674E-02 -0.93782548971E-02  0.90772310075E-02  0.10285678656E+01  0.10284531389E+01 0.  0.
     999903    2    3    3    0    0  0.10848176199E+00  0.30644912361E-01  0.69672200035E-01  0.13988927403E+00  0.44803908234E-01 0.  0.
         14    1    1    2    0    0 -0.81023074674E-02  0.93782548971E-02 -0.90772310075E-02  0.15362134421E-01  0.00000000000E+00 0.  1.
     999901    1    3    3    0    0 -0.10037945452E+00 -0.40023167258E-01 -0.60594969027E-01  0.88867859155E+00  0.88000000000E+00 0. -1.
        -11    1    4    4    0    0  0.67584154210E-01 -0.24729654892E-02  0.48201081309E-01  0.83050218657E-01  0.51100000000E-03 0.  1.
         11    1    4    4    0    0  0.40897607778E-01  0.33117877850E-01  0.21471118726E-01  0.56839055373E-01  0.51100000000E-03 0. -1.
</event>
<event>
 8    1  0.2824193E+004  0.1043930E+01  0.7957747E-01            NaN
         13   -1    0    0    0    0  0.00000000000E+00  0.00000000000E+00  0.74505805969E-08  0.10566000000E+00  0.10566000000E+00 0. -1.
     999900   -1    0    0    0    0 -0.00000000000E+00 -0.00000000000E+00 -0.74505805969E-08  0.93827000000E+00  0.93827000000E+00 0.  1.
     999902    2    1    2    0    0 -0.15399637765E-01 -0.27288682106E-02 -0.41433571631E-02  0.10277509094E+01  0.10276235540E+01 0.  0.
     999903    2    3    3    0    0  0.79105191997E-01 -0.87631085956E-01 -0.54050355107E-01  0.13722844594E+00  0.44422594047E-01 0.  0.
         14    1    1    2    0    0  0.15399637765E-01  0.27288682106E-02  0.41433571631E-02  0.16179090629E-01  0.00000000000E+00 0.  1.
     999901    1    3    3    0    0 -0.94504829762E-01  0.84902217745E-01  0.49906997944E-01  0.89052246343E+00  0.88000000000E+00 0. -1.
        -11    1    4    4    0    0  0.63167269792E-01 -0.86041726345E-01 -0.34995665814E-01  0.11233094138E+00  0.51100000000E-03 0. -1.
         11    1    4    4    0    0  0.15937922205E-01 -0.15893596110E-02 -0.19054689293E-01  0.24897504559E-01  0.51100000000E-03 0.  1.
</event>
<event>
 8    1  0.2824193E+004  0.1043930E+01  0.7957747E-01            NaN
         13   -1    0    0    0    0  0.00000000000E+00  0.00000000000E+00  0.74505805969E-08  0.10566000000E+00  0.10566000000E+00 0.  1.
     999900   -1    0    0    0    0 -0.00000000000E+00 -0.00000000000E+00 -0.74505805969E-08  0.93827000000E+00  0.93827000000E+00 0. -1.
     999902    2    1    2    0    0  0.35790665192E-02 -0.17289609435E-02  0.14118132399E-01  0.10292630069E+01  0.10291584993E+01 0.  0.
     999903    2    3    3    0    0  0.34377174389E-03  0.13017937297E+00 -0.16303127070E-01  0.13890592760E+00  0.45631978324E-01 0.  0.
         14    1    1    2    0    0 -0.35790665192E-02  0.17289609435E-02 -0.14118132399E-01  0.14666993064E-01  0.00000000000E+00 0. -1.
     999901    1    3    3    0    0  0.32352947753E-02 -0.13190833391E+00  0.30421259469E-01  0.89035707933E+00  0.88000000000E+00 0.  1.
        -11    1    4    4    0    0 -0.60292043901E-02  0.80827606038E-01 -0.31367456265E-01  0.86911631195E-01  0.51100000000E-03 0. -1.
         11    1    4    4    0    0  0.63729761340E-02  0.49351766931E-01  0.15064329195E-01  0.51994296410E-01  0.51100000000E-03 0.  1.
</event>
<event>
 8    1  0.2824193E+004  0.1043930E+01  0.7957747E-01            NaN
         13   -1    0    0    0    0  0.00000000000E+00  0.00000000000E+00  0.74505805969E-08  0.10566000000E+00  0.10566000000E+00 0. -1.
     999900   -1    0    0    0    0 -0.00000000000E+00 -0.00000000000E+00 -0.74505805969E-08  0.93827000000E+00  0.93827000000E+00 0.  1.
     999902    2    1    2    0    0  0.13170548280E-01  0.18760188631E-02  0.46723075037E-02  0.10298298849E+01  0.10297333531E+01 0.  0.
     999903    2    3    3    0    0 -0.49526757834E-01  0.88624370486E-01  0.85059065679E-01  0.13970727558E+00  0.44451090106E-01 0.  0.
         14    1    1    2    0    0 -0.13170548280E-01 -0.18760188631E-02 -0.46723075037E-02  0.14100115112E-01  0.00000000000E+00 0.  1.
     999901    1    3    3    0    0  0.62697306113E-01 -0.86748351623E-01 -0.80386758175E-01  0.89012260930E+00  0.88000000000E+00 0. -1.
        -11    1    4    4    0    0 -0.12807229120E-01  0.57028702862E-01  0.64602234073E-01  0.87120651032E-01  0.51100000000E-03 0.  1.
         11    1    4    4    0    0 -0.36719528714E-01  0.31595667624E-01  0.20456831605E-01  0.52586624553E-01  0.51100000000E-03 0. -1.
</event>
<event>
 8    1  0.2824193E+004  0.1043930E+01  0.7957747E-01            NaN
         13   -1    0    0    0    0  0.00000000000E+00  0.00000000000E+00  0.74505805969E-08  0.10566000000E+00  0.10566000000E+00 0. -1.
     999900   -1    0    0    0    0 -0.00000000000E+00 -0.00000000000E+00 -0.74505805969E-08  0.93827000000E+00  0.93827000000E+00 0.  1.
     999902    2    1    2    0    0 -0.40856485555E-02  0.10080338336E-01 -0.82106764623E-02  0.10303020525E+01  0.10302119192E+01 0.  0.
     999903    2    3    3    0    0  0.87326798633E-01 -0.43926277742E-01  0.87530518012E-01  0.13876443333E+00  0.45149626105E-01 0.  0.
         14    1    1    2    0    0  0.40856485555E-02 -0.10080338336E-01  0.82106764623E-02  0.13627947500E-01  0.00000000000E+00 0. -1.
     999901    1    3    3    0    0 -0.91412447189E-01  0.54006616078E-01 -0.95741194474E-01  0.89153761917E+00  0.88000000000E+00 0.  1.
        -11    1    4    4    0    0  0.66061034328E-01 -0.26463846522E-01  0.85392650606E-01  0.11116007074E+00  0.51100000000E-03 0. -1.
         11    1    4    4    0    0  0.21265764305E-01 -0.17462431219E-01  0.21378674054E-02  0.27604362583E-01  0.51100000000E-03 0.  1.
</event>
<event>
 8    1  0.2824193E+004  0.1043930E+01  0.7957747E-01            NaN
         13   -1    0    0    0    0  0.00000000000E+00  0.00000000000E+00  0.74505805969E-08  0.10566000000E+00  0.10566000000E+00 0. -1.
     999900   -1    0    0    0    0 -0.00000000000E+00 -0.00000000000E+00 -0.74505805969E-08  0.93827000000E+00  0.93827000000E+00 0.  1.
     999902    2    1    2    0    0 -0.12364206092E-01 -0.81495584548E-02  0.59877286524E-03  0.10291094931E+01  0.10290027704E+01 0.  0.
     999903    2    3    3    0    0  0.42504712397E-01 -0.27578560290E-01  0.12128676254E+00  0.13896699038E+00  0.45101198272E-01 0.  0.
         14    1    1    2    0    0  0.12364206092E-01  0.81495584548E-02 -0.59877286524E-03  0.14820506882E-01  0.00000000000E+00 0. -1.
     999901    1    3    3    0    0 -0.54868918489E-01  0.19429001835E-01 -0.12068798967E+00  0.89014250274E+00  0.88000000000E+00 0.  1.
        -11    1    4    4    0    0  0.46711620704E-02  0.11599362939E-01  0.32237742006E-01  0.34581759735E-01  0.51100000000E-03 0.  1.
         11    1    4    4    0    0  0.37833550326E-01 -0.39177923229E-01  0.89049020529E-01  0.10438523065E+00  0.51100000000E-03 0. -1.
</event>
<event>
 8    1  0.2824193E+004  0.1043930E+01  0.7957747E-01            NaN
         13   -1    0    0    0    0  0.00000000000E+00  0.00000000000E+00  0.74505805969E-08  0.10566000000E+00  0.10566000000E+00 0. -1.
     999900   -1    0    0    0    0 -0.00000000000E+00 -0.00000000000E+00 -0.74505805969E-08  0.93827000000E+00  0.93827000000E+00 0.  1.
     999902    2    1    2    0    0  0.12656514297E-01  0.41953312052E-02  0.11301801850E-02  0.10305484655E+01  0.10304615831E+01 0.  0.
     999903    2    3    3    0    0 -0.10732223381E+00  0.76553435566E-01 -0.25829050857E-02  0.13945678545E+00  0.45420625750E-01 0.  0.
         14    1    1    2    0    0 -0.12656514297E-01 -0.41953312052E-02 -0.11301801850E-02  0.13381534491E-01  0.00000000000E+00 0.  1.
     999901    1    3    3    0    0  0.11997874811E+00 -0.72358104361E-01  0.37130852707E-02  0.89109168006E+00  0.88000000000E+00 0. -1.
        -11    1    4    4    0    0 -0.83004586527E-01  0.32577560780E-01 -0.23898811277E-02  0.89202194500E-01  0.51100000000E-03 0. -1.
         11    1    4    4    0    0 -0.24317647281E-01  0.43975874787E-01 -0.19302395800E-03  0.50254590952E-01  0.51100000000E-03 0.  1.
</event>
<event>
 8    1  0.2824193E+004  0.1043930E+01  0.7957747E-01            NaN
         13   -1    0    0    0    0  0.00000000000E+00  0.00000000000E+00  0.74505805969E-08  0.10566000000E+00  0.10566000000E+00 0.  1.
     999900   -1    0    0    0    0 -0.00000000000E+00 -0.00000000000E+00 -0.74505805969E-08  0.93827000000E+00  0.93827000000E+00 0.  1.
     999902    2    1    2    0    0  0.30252420738E-02  0.28766769335E-02 -0.13568268670E-01  0.10297340402E+01  0.10296361825E+01 0.  0.
     999903    2    3    3    0    0  0.39505937291E-02 -0.17575567943E-01  0.12937384667E+00  0.13796523668E+00  0.44410658092E-01 0.  0.
         14    1    1    2    0    0 -0.30252420738E-02 -0.28766769335E-02  0.13568268670E-01  0.14195959795E-01  0.00000000000E+00 0.  1.
     999901    1    3    3    0    0 -0.92535165527E-03  0.20452244876E-01 -0.14294211534E+00  0.89176880352E+00  0.88000000000E+00 0.  1.
        -11    1    4    4    0    0  0.18061698088E-01 -0.31176112954E-02  0.10361471995E+00  0.10522459670E+00  0.51100000000E-03 0.  1.
         11    1    4    4    0    0 -0.14111104359E-01 -0.14457956647E-01  0.25759126715E-01  0.32740639987E-01  0.51100000000E-03 0. -1.
</event>
<event>
 8    1  0.2824193E+004  0.1043930E+01  0.7957747E-01            NaN
         13   -1    0    0    0    0  0.00000000000E+00  0.00000000000E+00  0.74505805969E-08  0.10566000000E+00  0.10566000000E+00 0.  1.
     999900   -1    0    0    0    0 -0.00000000000E+00 -0.00000000000E+00 -0.74505805969E-08  0.93827000000E+00  0.93827000000E+00 0. -1.
     999902    2    1    2    0    0  0.30609044460E-02 -0.65887839476E-04 -0.14745718830E-01  0.10288697974E+01  0.10287595688E+01 0.  0.
     999903    2    3    3    0    0  0.68359733924E-01 -0.86452255002E-01 -0.74457665415E-01  0.14022360343E+00  0.44403484139E-01 0.  0.
         14    1    1    2    0    0 -0.30609044460E-02  0.65887839476E-04  0.14745718830E-01  0.15060202557E-01  0.00000000000E+00 0.  1.
     999901    1    3    3    0    0 -0.65298829477E-01  0.86386367163E-01  0.59711946585E-01  0.88864619401E+00  0.88000000000E+00 0.  1.
        -11    1    4    4    0    0  0.29285032595E-01 -0.51794001506E-01 -0.15563507735E-01  0.61503785412E-01  0.51100000000E-03 0.  1.
         11    1    4    4    0    0  0.39074701329E-01 -0.34658253497E-01 -0.58894157681E-01  0.78719818021E-01  0.51100000000E-03 0. -1.
</event>
<event>
 8    1  0.2824193E+004  0.1043930E+01  0.7957747E-01            NaN
         13   -1    0    0    0    0  0.00000000000E+00  0.00000000000E+00  0.74505805969E-08  0.10566000000E+00  0.10566000000E+00 0.  1.
     999900   -1    0    0    0    0 -0.00000000000E+00 -0.00000000000E+00 -0.74505805969E-08  0.93827000000E+00  0.93827000000E+00 0.  1.
     999902    2    1    2    0    0 -0.31083447225E-02 -0.59965515959E-02 -0.12090384979E-01  0.10300808900E+01  0.10299877874E+01 0.  0.
     999903    2    3    3    0    0 -0.47660649786E-04  0.85602530380E-01  0.98267500646E-01  0.13846515300E+00  0.46779284227E-01 0.  0.
         14    1    1    2    0    0  0.31083447225E-02  0.59965515959E-02  0.12090384979E-01  0.13849109968E-01  0.00000000000E+00 0.  1.
     999901    1    3    3    0    0 -0.30606840727E-02 -0.91599081976E-01 -0.11035788563E+00  0.89161573703E+00  0.88000000000E+00 0.  1.
        -11    1    4    4    0    0  0.15717264187E-01  0.16796491113E-01  0.91129368597E-02  0.24747954389E-01  0.51100000000E-03 0.  1.
         11    1    4    4    0    0 -0.15764924837E-01  0.68806039267E-01  0.89154563786E-01  0.11371719861E+00  0.51100000000E-03 0. -1.
</event>
<event>
 8    1  0.2824193E+004  0.1043930E+01  0.7957747E-01            NaN
         13   -1    0    0    0    0  0.00000000000E+00  0.00000000000E+00  0.74505805969E-08  0.10566000000E+00  0.10566000000E+00 0.  1.
     999900   -1    0    0    0    0 -0.00000000000E+00 -0.00000000000E+00 -0.74505805969E-08  0.93827000000E+00  0.93827000000E+00 0.  1.
     999902    2    1    2    0    0 -0.92048532722E-02 -0.94427194995E-03  0.99449736720E-02  0.10303460582E+01  0.10302565099E+01 0.  0.
     999903    2    3    3    0    0 -0.13289908086E+00 -0.15870825250E-01  0.11705361673E-01  0.14156815406E+00  0.44614772962E-01 0.  0.
         14    1    1    2    0    0  0.92048532722E-02  0.94427194995E-03 -0.99449736720E-02  0.13583941792E-01  0.00000000000E+00 0.  1.
     999901    1    3    3    0    0  0.12369422758E+00  0.14926553300E-01 -0.17603880012E-02  0.88877790415E+00  0.88000000000E+00 0.  1.
        -11    1    4    4    0    0 -0.18270186928E-01  0.12546095831E-01 -0.36732412392E-02  0.22471272175E-01  0.51100000000E-03 0. -1.
         11    1    4    4    0    0 -0.11462889393E+00 -0.28416921081E-01  0.15378602912E-01  0.11909688189E+00  0.51100000000E-03 0.  1.
</event>
<event>
 8    1  0.2824193E+004  0.1043930E+01  0.7957747E-01            NaN
         13   -1    0    0    0    0  0.00000000000E+00  0.00000000000E+00  0.74505805969E-08  0.10566000000E+00  0.10566000000E+00 0. -1.
     999900   -1    0    0    0    0 -0.00000000000E+00 -0.00000000000E+00 -0.74505805969E-08  0.93827000000E+00  0.93827000000E+00 0. -1.
     999902    2    1    2    0    0 -0.61823075789E-02  0.99939279756E-02  0.66331733050E-02  0.10304356119E+01  0.10303472481E+01 0.  0.
     999903    2    3    3    0    0 -0.96481591838E-01  0.93584085022E-01 -0.80572357928E-02  0.14175283200E+00  0.44297492000E-01 0.  0.
         14    1    1    2    0    0  0.61823075789E-02 -0.99939279756E-02 -0.66331733050E-02  0.13494388147E-01  0.00000000000E+00 0.  1.
     999901    1    3    3    0    0  0.90299284259E-01 -0.83590157047E-01  0.14690409098E-01  0.88868277986E+00  0.88000000000E+00 0. -1.
        -11    1    4    4    0    0 -0.28823975555E-01  0.13606731604E-01  0.13803400198E-01  0.34738446853E-01  0.51100000000E-03 0. -1.
         11    1    4    4    0    0 -0.67657616283E-01  0.79977353418E-01 -0.21860635990E-01  0.10701438514E+00  0.51100000000E-03 0.  1.
</event>
<event>
 8    1  0.2824193E+004  0.1043930E+01  0.7957747E-01            NaN
         13   -1    0    0    0    0  0.00000000000E+00  0.00000000000E+00  0.74505805969E-08  0.10566000000E+00  0.10566000000E+00 0. -1.
     999900   -1    0    0    0    0 -0.00000000000E+00 -0.00000000000E+00 -0.74505805969E-08  0.93827000000E+00  0.93827000000E+00 0.  1.
     999902    2    1    2    0    0  0.87801640881E-04 -0.10657805777E-01 -0.70949686097E-02  0.10311262852E+01  0.10310467889E+01 0.  0.
     999903    2    3    3    0    0 -0.13225325853E+00  0.84902300747E-02  0.15686345208E-01  0.14073323057E+00  0.44685258887E-01 0.  0.
         14    1    1    2    0    0 -0.87801640881E-04  0.10657805777E-01  0.70949686097E-02  0.12803714800E-01  0.00000000000E+00 0. -1.
     999901    1    3    3    0    0  0.13234106017E+00 -0.19148035851E-01 -0.22781313817E-01  0.89039305464E+00  0.88000000000E+00 0. -1.
        -11    1    4    4    0    0 -0.10076411828E+00 -0.13081208752E-01  0.13419905987E-01  0.10249331956E+00  0.51100000000E-03 0. -1.
         11    1    4    4    0    0 -0.31489140243E-01  0.21571438827E-01  0.22664392208E-02  0.38239911010E-01  0.51100000000E-03 0.  1.
</event>
<event>
 8    1  0.2824193E+004  0.1043930E+01  0.7957747E-01            NaN
         13   -1    0    0    0    0  0.00000000000E+00  0.00000000000E+00  0.74505805969E-08  0.10566000000E+00  0.10566000000E+00 0.  1.
     999900   -1    0    0    0    0 -0.00000000000E+00 -0.00000000000E+00 -0.74505805969E-08  0.93827000000E+00  0.93827000000E+00 0. -1.
     999902    2    1    2    0    0  0.64006786849E-02 -0.30934786147E-03  0.10912586426E-01  0.10312750039E+01  0.10311973549E+01 0.  0.
     999903    2    3    3    0    0  0.30376637810E-01 -0.11269677033E+00 -0.64095659891E-01  0.14063926671E+00  0.45253149682E-01 0.  0.
         14    1    1    2    0    0 -0.64006786849E-02  0.30934786147E-03 -0.10912586426E-01  0.12654996097E-01  0.00000000000E+00 0.  1.
     999901    1    3    3    0    0 -0.23975959126E-01  0.11238742247E+00  0.75008246317E-01  0.89063573719E+00  0.88000000000E+00 0.  1.
        -11    1    4    4    0    0 -0.84097227545E-02 -0.29489253807E-01 -0.29435648041E-01  0.42509505096E-01  0.51100000000E-03 0.  1.
         11    1    4    4    0    0  0.38786360565E-01 -0.83207516526E-01 -0.34660011850E-01  0.98129761616E-01  0.51100000000E-03 0. -1.
</event>
<event>
 8    1  0.2824193E+004  0.1043930E+01  0.7957747E-01            NaN
         13   -1    0    0    0    0  0.00000000000E+00  0.00000000000E+00  0.74505805969E-08  0.10566000000E+00  0.10566000000E+00 0.  1.
     999900   -1    0    0    0    0 -0.00000000000E+00 -0.00000000000E+00 -0.74505805969E-08  0.93827000000E+00  0.93827000000E+00 0. -1.
     999902    2    1    2    0    0  0.63324736621E-02  0.11578017268E-01  0.44817302249E-02  0.10299931204E+01  0.10298988259E+01 0.  0.
     999903    2    3    3    0    0 -0.13132012166E+00 -0.35068540325E-02  0.78164550024E-02  0.13915816897E+00  0.45239657859E-01 0.  0.
         14    1    1    2    0    0 -0.63324736621E-02 -0.11578017268E-01 -0.44817302249E-02  0.13936879577E-01  0.00000000000E+00 0. -1.
     999901    1    3    3    0    0  0.13765259533E+00  0.15084871300E-01 -0.33347247776E-02  0.89083495145E+00  0.88000000000E+00 0.  1.
        -11    1    4    4    0    0 -0.54155135162E-01 -0.10663261599E-01  0.23664948643E-01  0.60056429528E-01  0.51100000000E-03 0.  1.
         11    1    4    4    0    0 -0.77164986502E-01  0.71564075663E-02 -0.15848493640E-01  0.79101739442E-01  0.51100000000E-03 0. -1.
</event>
<event>
 8    1  0.2824193E+004  0.1043930E+01  0.7957747E-01            NaN
         13   -1    0    0    0    0  0.00000000000E+00  0.00000000000E+00  0.74505805969E-08  0.10566000000E+00  0.10566000000E+00 0. -1.
     999900   -1    0    0    0    0 -0.00000000000E+00 -0.00000000000E+00 -0.74505805969E-08  0.93827000000E+00  0.93827000000E+00 0.  1.
     999902    2    1    2    0    0 -0.11626451873E-01  0.34752516943E-02  0.11847443489E-01  0.10269708233E+01  0.10268307836E+01 0.  0.
     999903    2    3    3    0    0  0.10318019621E+00 -0.32201010120E-01 -0.67722119485E-01  0.13523954232E+00  0.44948753007E-01 0.  0.
         14    1    1    2    0    0  0.11626451873E-01 -0.34752516943E-02 -0.11847443489E-01  0.16959176712E-01  0.00000000000E+00 0.  1.
     999901    1    3    3    0    0 -0.11480664808E+00  0.35676261814E-01  0.79569562975E-01  0.89173128097E+00  0.88000000000E+00 0. -1.
        -11    1    4    4    0    0  0.35067456100E-01 -0.21317370762E-01 -0.38353041700E-02  0.41220473707E-01  0.51100000000E-03 0.  1.
         11    1    4    4    0    0  0.68112740112E-01 -0.10883639358E-01 -0.63886815315E-01  0.94019068616E-01  0.51100000000E-03 0. -1.
</event>
<event>
 8    1  0.2824193E+004  0.1043930E+01  0.7957747E-01            NaN
         13   -1    0    0    0    0  0.00000000000E+00  0.00000000000E+00  0.74505805969E-08  0.10566000000E+00  0.10566000000E+00 0. -1.
     999900   -1    0    0    0    0 -0.00000000000E+00 -0.00000000000E+00 -0.74505805969E-08  0.93827000000E+00  0.93827000000E+00 0. -1.
     999902    2    1    2    0    0  0.62407199516E-02  0.42320463749E-02  0.12224613480E-01  0.10295669231E+01  0.10294667315E+01 0.  0.
     999903    2    3    3    0    0  0.16349880191E-01  0.10515128249E+00 -0.79205939344E-01  0.13903537776E+00  0.41631053908E-01 0.  0.
         14    1    1    2    0    0 -0.62407199516E-02 -0.42320463749E-02 -0.12224613480E-01  0.14363076856E-01  0.00000000000E+00 0.  1.
     999901    1    3    3    0    0 -0.10109160239E-01 -0.10091923611E+00  0.91430552824E-01  0.89053154539E+00  0.88000000000E+00 0. -1.
        -11    1    4    4    0    0  0.27251861211E-01  0.69537762012E-01 -0.39115154083E-01  0.84311450498E-01  0.51100000000E-03 0.  1.
         11    1    4    4    0    0 -0.10901981020E-01  0.35613520477E-01 -0.40090785260E-01  0.54723927260E-01  0.51100000000E-03 0. -1.
</event>
<event>
 8    1  0.2824193E+004  0.1043930E+01  0.7957747E-01            NaN
         13   -1    0    0    0    0  0.00000000000E+00  0.00000000000E+00  0.74505805969E-08  0.10566000000E+00  0.10566000000E+00 0. -1.
     999900   -1    0    0    0    0 -0.00000000000E+00 -0.00000000000E+00 -0.74505805969E-08  0.93827000000E+00  0.93827000000E+00 0.  1.
     999902    2    1    2    0    0  0.27388890374E-02 -0.13567916012E-01  0.10247535559E-02  0.10300505195E+01  0.10299570053E+01 0.  0.
     999903    2    3    3    0    0 -0.29894100473E-01  0.12600091607E+00  0.17929267630E-01  0.13829375142E+00  0.45097837534E-01 0.  0.
         14    1    1    2    0    0 -0.27388890374E-02  0.13567916012E-01 -0.10247535559E-02  0.13879480463E-01  0.00000000000E+00 0.  1.
     999901    1    3    3    0    0  0.32632989510E-01 -0.13956883208E+00 -0.16904514075E-01  0.89175676812E+00  0.88000000000E+00 0. -1.
        -11    1    4    4    0    0 -0.11247973335E-01  0.41390481009E-01  0.27762957856E-01  0.51095320453E-01  0.51100000000E-03 0.  1.
         11    1    4    4    0    0 -0.18646127139E-01  0.84610435058E-01 -0.98336902260E-02  0.87198430963E-01  0.51100000000E-03 0. -1.
</event>
<event>
 8    1  0.2824193E+004  0.1043930E+01  0.7957747E-01            NaN
         13   -1    0    0    0    0  0.00000000000E+00  0.00000000000E+00  0.74505805969E-08  0.10566000000E+00  0.10566000000E+00 0. -1.
     999900   -1    0    0    0    0 -0.00000000000E+00 -0.00000000000E+00 -0.74505805969E-08  0.93827000000E+00  0.93827000000E+00 0. -1.
     999902    2    1    2    0    0 -0.13053568236E-02  0.95903386032E-02 -0.99801244529E-02  0.10300274306E+01  0.10299336029E+01 0.  0.
     999903    2    3    3    0    0  0.11042385451E+00  0.97625285269E-02  0.70949036122E-01  0.13927888287E+00  0.45564315842E-01 0.  0.
         14    1    1    2    0    0  0.13053568236E-02 -0.95903386032E-02  0.99801244529E-02  0.13902569369E-01  0.00000000000E+00 0. -1.
     999901    1    3    3    0    0 -0.11172921133E+00 -0.17218992364E-03 -0.80929160575E-01  0.89074854777E+00  0.88000000000E+00 0. -1.
        -11    1    4    4    0    0  0.52968456217E-01 -0.26902861902E-02  0.58907142961E-01  0.79266686613E-01  0.51100000000E-03 0. -1.
         11    1    4    4    0    0  0.57455398292E-01  0.12452814717E-01  0.12041893161E-01  0.60012196253E-01  0.51100000000E-03 0.  1.
</event>
<event>
 8    1  0.2824193E+004  0.1043930E+01  0.7957747E-01            NaN
         13   -1    0    0    0    0  0.00000000000E+00  0.00000000000E+00  0.74505805969E-08  0.10566000000E+00  0.10566000000E+00 0.  1.
     999900   -1    0    0    0    0 -0.00000000000E+00 -0.00000000000E+00 -0.74505805969E-08  0.93827000000E+00  0.93827000000E+00 0.  1.
     999902    2    1    2    0    0  0.84820907992E-02  0.61915619596E-02 -0.81123490658E-02  0.10306600523E+01  0.10305746222E+01 0.  0.
     999903    2    3    3    0    0  0.12873618552E+00 -0.36321968775E-01 -0.11465447471E-01  0.14145833682E+00  0.44572566608E-01 0.  0.
         14    1    1    2    0    0 -0.84820907992E-02 -0.61915619596E-02  0.81123490658E-02  0.13269947671E-01  0.00000000000E+00 0.  1.
     999901    1    3    3    0    0 -0.12025409472E+00  0.42513530735E-01  0.33530984055E-02  0.88920171551E+00  0.88000000000E+00 0.  1.
        -11    1    4    4    0    0  0.96689007085E-01 -0.31709843649E-01  0.10548650920E-01  0.10230255829E+00  0.51100000000E-03 0.  1.
         11    1    4    4    0    0  0.32047178430E-01 -0.46121251257E-02 -0.22014098391E-01  0.39155778532E-01  0.51100000000E-03 0. -1.
</event>
<event>
 8    1  0.2824193E+004  0.1043930E+01  0.7957747E-01            NaN
         13   -1    0    0    0    0  0.00000000000E+00  0.00000000000E+00  0.74505805969E-08  0.10566000000E+00  0.10566000000E+00 0.  1.
     999900   -1    0    0    0    0 -0.00000000000E+00 -0.00000000000E+00 -0.74505805969E-08  0.93827000000E+00  0.93827000000E+00 0.  1.
     999902    2    1    2    0    0 -0.78437626137E-02 -0.95463230948E-02 -0.40080069453E-02  0.10309407346E+01  0.10308589027E+01 0.  0.
     999903    2    3    3    0    0 -0.92399909627E-01 -0.57891708769E-01  0.78528828952E-01  0.14172796612E+00  0.45064910514E-01 0.  0.
         14    1    1    2    0    0  0.78437626137E-02  0.95463230948E-02  0.40080069453E-02  0.12989265424E-01  0.00000000000E+00 0.  1.
     999901    1    3    3    0    0  0.84556147013E-01  0.48345385674E-01 -0.82536835897E-01  0.88921276846E+00  0.88000000000E+00 0. -1.
        -11    1    4    4    0    0 -0.28648656727E-01 -0.84354085051E-02  0.45749231401E-01  0.54636571485E-01  0.51100000000E-03 0. -1.
         11    1    4    4    0    0 -0.63751252900E-01 -0.49456300264E-01  0.32779597551E-01  0.87091394631E-01  0.51100000000E-03 0.  1.
</event>
<event>
 8    1  0.2824193E+004  0.1043930E+01  0.7957747E-01            NaN
         13   -1    0    0    0    0  0.00000000000E+00  0.00000000000E+00  0.74505805969E-08  0.10566000000E+00  0.10566000000E+00 0.  1.
     999900   -1    0    0    0    0 -0.00000000000E+00 -0.00000000000E+00 -0.74505805969E-08  0.93827000000E+00  0.93827000000E+00 0. -1.
     999902    2    1    2    0    0  0.60778317470E-03  0.15196948332E-01  0.47502862178E-02  0.10279963294E+01  0.10278728382E+01 0.  0.
     999903    2    3    3    0    0  0.24554410585E-01 -0.92500742207E-01  0.87083315699E-01  0.13729381946E+00  0.45899701524E-01 0.  0.
         14    1    1    2    0    0 -0.60778317470E-03 -0.15196948332E-01 -0.47502862178E-02  0.15933670580E-01  0.00000000000E+00 0.  1.
     999901    1    3    3    0    0 -0.23946627410E-01  0.10769769054E+00 -0.82333029481E-01  0.89070250996E+00  0.88000000000E+00 0. -1.
        -11    1    4    4    0    0 -0.68958077488E-02 -0.54138644188E-01  0.32443686806E-01  0.63493298021E-01  0.51100000000E-03 0. -1.
         11    1    4    4    0    0  0.31450218334E-01 -0.38362098019E-01  0.54639628893E-01  0.73800521436E-01  0.51100000000E-03 0.  1.
</event>
<event>
 8    1  0.2824193E+004  0.1043930E+01  0.7957747E-01            NaN
         13   -1    0    0    0    0  0.00000000000E+00  0.00000000000E+00  0.74505805969E-08  0.10566000000E+00  0.10566000000E+00 0. -1.
     999900   -1    0    0    0    0 -0.00000000000E+00 -0.00000000000E+00 -0.74505805969E-08  0.93827000000E+00  0.93827000000E+00 0.  1.
     999902    2    1    2    0    0 -0.15179784025E-01  0.35388658363E-02  0.12251694155E-01  0.10241044250E+01  0.10239125060E+01 0.  0.
     999903    2    3    3    0    0  0.91409954563E-02 -0.93893998393E-01 -0.82886845009E-01  0.13329804594E+00  0.44704577421E-01 0.  0.
         14    1    1    2    0    0  0.15179784025E-01 -0.35388658363E-02 -0.12251694155E-01  0.19825575001E-01  0.00000000000E+00 0. -1.
     999901    1    3    3    0    0 -0.24320779482E-01  0.97432864229E-01  0.95138539164E-01  0.89080637906E+00  0.88000000000E+00 0.  1.
        -11    1    4    4    0    0  0.15301105773E-01 -0.16597714036E-01 -0.44747414277E-02  0.23019391411E-01  0.51100000000E-03 0. -1.
         11    1    4    4    0    0 -0.61601103166E-02 -0.77296284357E-01 -0.78412103582E-01  0.11027865452E+00  0.51100000000E-03 0.  1.
</event>
<event>
 8    1  0.2824193E+004  0.1043930E+01  0.7957747E-01            NaN
         13   -1    0    0    0    0  0.00000000000E+00  0.00000000000E+00  0.74505805969E-08  0.10566000000E+00  0.10566000000E+00 0. -1.
     999900   -1    0    0    0    0 -0.00000000000E+00 -0.00000000000E+00 -0.74505805969E-08  0.93827000000E+00  0.93827000000E+00 0.  1.
     999902    2    1    2    0    0  0.11434761210E-01  0.10157565410E-01  0.79154829223E-03  0.10286147642E+01  0.10285007422E+01 0.  0.
     999903    2    3    3    0    0  0.46127725105E-01 -0.53531643159E-01  0.11011075710E+00  0.13888974688E+00  0.46610933426E-01 0.  0.
         14    1    1    2    0    0 -0.11434761210E-01 -0.10157565410E-01 -0.79154829223E-03  0.15315235802E-01  0.00000000000E+00 0. -1.
     999901    1    3    3    0    0 -0.34692963895E-01  0.63689208569E-01 -0.10931920881E+00  0.88972501732E+00  0.88000000000E+00 0. -1.
        -11    1    4    4    0    0  0.19128798944E-01 -0.51952932521E-01  0.58037346674E-01  0.80209805364E-01  0.51100000000E-03 0.  1.
         11    1    4    4    0    0  0.26998926161E-01 -0.15787106376E-02  0.52073410429E-01  0.58679941512E-01  0.51100000000E-03 0. -1.
</event>
<event>
 8    1  0.2824193E+004  0.1043930E+01  0.7957747E-01            NaN
         13   -1    0    0    0    0  0.00000000000E+00  0.00000000000E+00  0.74505805969E-08  0.10566000000E+00  0.10566000000E+00 0. -1.
     999900   -1    0    0    0    0 -0.00000000000E+00 -0.00000000000E+00 -0.74505805969E-08  0.93827000000E+00  0.93827000000E+00 0.  1.
     999902    2    1    2    0    0 -0.11037881669E-01 -0.77895809585E-02  0.59534623347E-03  0.10304071734E+01  0.10303184343E+01 0.  0.
     999903    2    3    3    0    0  0.90240367380E-01  0.92444001858E-01  0.22820233097E-01  0.13866842212E+00  0.44932737192E-01 0.  0.
         14    1    1    2    0    0  0.11037881669E-01  0.77895809585E-02 -0.59534623347E-03  0.13522826642E-01  0.00000000000E+00 0. -1.
     999901    1    3    3    0    0 -0.10127824905E+00 -0.10023358282E+00 -0.22224886863E-01  0.89173875123E+00  0.88000000000E+00 0. -1.
        -11    1    4    4    0    0  0.65965812254E-01  0.58509598535E-01 -0.53251445367E-02  0.88337306912E-01  0.51100000000E-03 0. -1.
         11    1    4    4    0    0  0.24274555126E-01  0.33934403323E-01  0.28145377633E-01  0.50331115213E-01  0.51100000000E-03 0.  1.
</event>
<event>
 8    1  0.2824193E+004  0.1043930E+01  0.7957747E-01            NaN
         13   -1    0    0    0    0  0.00000000000E+00  0.00000000000E+00  0.74505805969E-08  0.10566000000E+00  0.10566000000E+00 0.  1.
     999900   -1    0    0    0    0 -0.00000000000E+00 -0.00000000000E+00 -0.74505805969E-08  0.93827000000E+00  0.93827000000E+00 0. -1.
     999902    2    1    2    0    0  0.86461269408E-02  0.26092171406E-02 -0.10550205654E-01  0.10300422225E+01  0.10299485957E+01 0.  0.
     999903    2    3    3    0    0 -0.62418533750E-01 -0.17766438705E-01  0.11362114310E+00  0.13825532125E+00  0.44643588517E-01 0.  0.
         14    1    1    2    0    0 -0.86461269408E-02 -0.26092171406E-02  0.10550205654E-01  0.13887777522E-01  0.00000000000E+00 0.  1.
     999901    1    3    3    0    0  0.71064660691E-01  0.20375655846E-01 -0.12417134875E+00  0.89178690123E+00  0.88000000000E+00 0. -1.
        -11    1    4    4    0    0 -0.42536783578E-01 -0.26650301288E-01  0.10172425380E+00  0.11343589136E+00  0.51100000000E-03 0. -1.
         11    1    4    4    0    0 -0.19881750172E-01  0.88838625821E-02  0.11896889297E-01  0.24819429894E-01  0.51100000000E-03 0.  1.
</event>
<event>
 8    1  0.2824193E+004  0.1043930E+01  0.7957747E-01            NaN
         13   -1    0    0    0    0  0.00000000000E+00  0.00000000000E+00  0.74505805969E-08  0.10566000000E+00  0.10566000000E+00 0.  1.
     999900   -1    0    0    0    0 -0.00000000000E+00 -0.00000000000E+00 -0.74505805969E-08  0.93827000000E+00  0.93827000000E+00 0. -1.
     999902    2    1    2    0    0 -0.51962307948E-02 -0.12434595773E-01  0.10639951744E-02  0.10304114175E+01  0.10303227345E+01 0.  0.
     999903    2    3    3    0    0  0.13787249644E-01  0.12915700607E+00  0.18317403420E-01  0.13872412125E+00  0.45135729508E-01 0.  0.
         14    1    1    2    0    0  0.51962307948E-02  0.12434595773E-01 -0.10639951744E-02  0.13518582479E-01  0.00000000000E+00 0.  1.
     999901    1    3    3    0    0 -0.18983480439E-01 -0.14159160184E+00 -0.17253408246E-01  0.89168729627E+00  0.88000000000E+00 0.  1.
        -11    1    4    4    0    0  0.12281487136E-01  0.61967323666E-01  0.30933910934E-01  0.70341681066E-01  0.51100000000E-03 0. -1.
         11    1    4    4    0    0  0.15057625080E-02  0.67189682402E-01 -0.12616507514E-01  0.68382440180E-01  0.51100000000E-03 0.  1.
</event>
<event>
 8    1  0.2824193E+004  0.1043930E+01  0.7957747E-01            NaN
         13   -1    0    0    0    0  0.00000000000E+00  0.00000000000E+00  0.74505805969E-08  0.10566000000E+00  0.10566000000E+00 0. -1.
     999900   -1    0    0    0    0 -0.00000000000E+00 -0.00000000000E+00 -0.74505805969E-08  0.93827000000E+00  0.93827000000E+00 0.  1.
     999902    2    1    2    0    0 -0.68422756190E-02 -0.12400343198E-01 -0.35071173608E-02  0.10293394168E+01  0.10292360030E+01 0.  0.
     999903    2    3    3    0    0 -0.12008031185E+00 -0.56852389028E-01 -0.94368864757E-02  0.14095098854E+00  0.46115625485E-01 0.  0.
         14    1    1    2    0    0  0.68422756190E-02  0.12400343198E-01  0.35071173608E-02  0.14590583239E-01  0.00000000000E+00 0. -1.
     999901    1    3    3    0    0  0.11323803623E+00  0.44452045831E-01  0.59297691148E-02  0.88838842822E+00  0.88000000000E+00 0.  1.
        -11    1    4    4    0    0 -0.77534897582E-01 -0.56522148451E-01 -0.17796360071E-01  0.97587833060E-01  0.51100000000E-03 0. -1.
         11    1    4    4    0    0 -0.42545414265E-01 -0.33024057772E-03  0.83594735952E-02  0.43363155485E-01  0.51100000000E-03 0.  1.
</event>
<event>
 8    1  0.2824193E+004  0.1043930E+01  0.7957747E-01            NaN
         13   -1    0    0    0    0  0.00000000000E+00  0.00000000000E+00  0.74505805969E-08  0.10566000000E+00  0.10566000000E+00 0. -1.
     999900   -1    0    0    0    0 -0.00000000000E+00 -0.00000000000E+00 -0.74505805969E-08  0.93827000000E+00  0.93827000000E+00 0. -1.
     999902    2    1    2    0    0  0.93841831247E-02 -0.77296979069E-02 -0.66464939100E-02  0.10300740625E+01  0.10299808674E+01 0.  0.
     999903    2    3    3    0    0  0.10602019039E+00  0.39149306661E-01  0.69573730408E-01  0.14027314007E+00  0.45421370296E-01 0.  0.
         14    1    1    2    0    0 -0.93841831247E-02  0.77296979069E-02  0.66464939100E-02  0.13855937498E-01  0.00000000000E+00 0.  1.
     999901    1    3    3    0    0 -0.96636007265E-01 -0.46879004567E-01 -0.76220224318E-01  0.88980092243E+00  0.88000000000E+00 0.  1.
        -11    1    4    4    0    0  0.29828048684E-01  0.31774020158E-01  0.14360572807E-01  0.45888865945E-01  0.51100000000E-03 0. -1.
         11    1    4    4    0    0  0.76192141705E-01  0.73752865022E-02  0.55213157600E-01  0.94384274124E-01  0.51100000000E-03 0.  1.
</event>
<event>
 7    1  0.2824193E+004  0.1043930E+01  0.7957747E-01            NaN
         13   -1    0    0    0    0  0.00000000000E+00  0.00000000000E+00  0.74505805969E-08  0.10566000000E+00  0.10566000000E+00 0.  1.
     999900   -1    0    0    0    0 -0.00000000000E+00 -0.00000000000E+00 -0.74505805969E-08  0.93827000000E+00  0.93827000000E+00 0. -1.
     999903    2    1    2    0    0 -0.72681904667E-01  0.64318876833E-01  0.16997115751E-01  0.10798563465E+00  0.44186176173E-01 0.  0.
         14    1    1    2    0    0 -0.34280119651E-01 -0.10369909095E-02  0.30566057544E-01  0.45940024240E-01  0.00000000000E+00 0.  1.
     999901    1    1    2    0    0  0.10696202432E+00 -0.63281885924E-01 -0.47563173295E-01  0.89000434111E+00  0.88000000000E+00 0.  1.
        -11    1    3    3    0    0 -0.44680089129E-01  0.13841660439E-01 -0.30510410120E-02  0.46877200220E-01  0.51100000000E-03 0.  1.
         11    1    3    3    0    0 -0.28001815538E-01  0.50477216395E-01  0.20048156763E-01  0.61108434434E-01  0.51100000000E-03 0. -1.
</event>
<event>
 8    1  0.2824193E+004  0.1043930E+01  0.7957747E-01            NaN
         13   -1    0    0    0    0  0.00000000000E+00  0.00000000000E+00  0.74505805969E-08  0.10566000000E+00  0.10566000000E+00 0. -1.
     999900   -1    0    0    0    0 -0.00000000000E+00 -0.00000000000E+00 -0.74505805969E-08  0.93827000000E+00  0.93827000000E+00 0.  1.
     999902    2    1    2    0    0 -0.56625493974E-02  0.17108901608E-02 -0.71052242816E-02  0.10346846864E+01  0.10346433804E+01 0.  0.
     999903    2    3    3    0    0 -0.11916728605E+00 -0.66111941829E-01 -0.20300059797E-01  0.14470863874E+00  0.44236486990E-01 0.  0.
         14    1    1    2    0    0  0.56625493974E-02 -0.17108901608E-02  0.71052242816E-02  0.92453135648E-02  0.00000000000E+00 0. -1.
     999901    1    3    3    0    0  0.11350473666E+00  0.67822831990E-01  0.13194835515E-01  0.88997604769E+00  0.88000000000E+00 0.  1.
        -11    1    4    4    0    0 -0.20662020157E-01 -0.22708104286E-02 -0.17681907496E-01  0.27294443220E-01  0.51100000000E-03 0. -1.
         11    1    4    4    0    0 -0.98505265896E-01 -0.63841131400E-01 -0.26181523007E-02  0.11741419552E+00  0.51100000000E-03 0.  1.
</event>
<event>
 8    1  0.2824193E+004  0.1043930E+01  0.7957747E-01            NaN
         13   -1    0    0    0    0  0.00000000000E+00  0.00000000000E+00  0.74505805969E-08  0.10566000000E+00  0.10566000000E+00 0.  1.
     999900   -1    0    0    0    0 -0.00000000000E+00 -0.00000000000E+00 -0.74505805969E-08  0.93827000000E+00  0.93827000000E+00 0. -1.
     999902    2    1    2    0    0 -0.14875403299E-02  0.47118382931E-02  0.15118558305E-01  0.10280244978E+01  0.10279014461E+01 0.  0.
     999903    2    3    3    0    0  0.12224776254E+00 -0.37570683363E-01 -0.23582165232E-01  0.13752127889E+00  0.44720374942E-01 0.  0.
         14    1    1    2    0    0  0.14875403299E-02 -0.47118382931E-02 -0.15118558305E-01  0.15905502241E-01  0.00000000000E+00 0. -1.
     999901    1    3    3    0    0 -0.12373530287E+00  0.42282521656E-01  0.38700723537E-01  0.89050321887E+00  0.88000000000E+00 0.  1.
        -11    1    4    4    0    0  0.46840212788E-01 -0.37593021163E-01 -0.11383159769E-01  0.61131646645E-01  0.51100000000E-03 0.  1.
         11    1    4    4    0    0  0.75407549755E-01  0.22337799897E-04 -0.12199005463E-01  0.76389632244E-01  0.51100000000E-03 0. -1.
</event>
<event>
 8    1  0.2824193E+004  0.1043930E+01  0.7957747E-01            NaN
         13   -1    0    0    0    0  0.00000000000E+00  0.00000000000E+00  0.74505805969E-08  0.10566000000E+00  0.10566000000E+00 0.  1.
     999900   -1    0    0    0    0 -0.00000000000E+00 -0.00000000000E+00 -0.74505805969E-08  0.93827000000E+00  0.93827000000E+00 0.  1.
     999902    2    1    2    0    0 -0.64393779049E-03 -0.13852059152E-01 -0.47732473188E-03  0.10300547689E+01  0.10299613123E+01 0.  0.
     999903    2    3    3    0    0 -0.10001303605E+00  0.74717225439E-01  0.40754003108E-01  0.13908969763E+00  0.45823400807E-01 0.  0.
         14    1    1    2    0    0  0.64393779049E-03  0.13852059152E-01  0.47732473188E-03  0.13875231080E-01  0.00000000000E+00 0. -1.
     999901    1    3    3    0    0  0.99369098255E-01 -0.88569284591E-01 -0.41231327840E-01  0.89096507129E+00  0.88000000000E+00 0. -1.
        -11    1    4    4    0    0 -0.69208054622E-01  0.27524364326E-01  0.10788895170E-01  0.75259596306E-01  0.51100000000E-03 0. -1.
         11    1    4    4    0    0 -0.30804981423E-01  0.47192861113E-01  0.29965107938E-01  0.63830101325E-01  0.51100000000E-03 0.  1.
</event>
<event>
 8    1  0.2824193E+004  0.1043930E+01  0.7957747E-01            NaN
         13   -1    0    0    0    0  0.00000000000E+00  0.00000000000E+00  0.74505805969E-08  0.10566000000E+00  0.10566000000E+00 0.  1.
     999900   -1    0    0    0    0 -0.00000000000E+00 -0.00000000000E+00 -0.74505805969E-08  0.93827000000E+00  0.93827000000E+00 0. -1.
     999902    2    1    2    0    0 -0.41957932339E-02  0.99286909760E-02 -0.80317318497E-02  0.10304878163E+01  0.10304001394E+01 0.  0.
     999903    2    3    3    0    0  0.12764153126E+00  0.31145307189E-01  0.17623987592E-01  0.14004442067E+00  0.45160205470E-01 0.  0.
         14    1    1    2    0    0  0.41957932339E-02 -0.99286909760E-02  0.80317318497E-02  0.13442183672E-01  0.00000000000E+00 0. -1.
     999901    1    3    3    0    0 -0.13183732450E+00 -0.21216616213E-01 -0.25655719442E-01  0.89044339566E+00  0.88000000000E+00 0. -1.
        -11    1    4    4    0    0  0.81654162326E-01  0.19761168819E-01  0.32958325479E-01  0.90246431274E-01  0.51100000000E-03 0.  1.
         11    1    4    4    0    0  0.45987368939E-01  0.11384138371E-01 -0.15334337886E-01  0.49797989395E-01  0.51100000000E-03 0. -1.
</event>
<event>
 8    1  0.2824193E+004  0.1043930E+01  0.7957747E-01            NaN
         13   -1    0    0    0    0  0.00000000000E+00  0.00000000000E+00  0.74505805969E-08  0.10566000000E+00  0.10566000000E+00 0. -1.
     999900   -1    0    0    0    0 -0.00000000000E+00 -0.00000000000E+00 -0.74505805969E-08  0.93827000000E+00  0.93827000000E+00 0. -1.
     999902    2    1    2    0    0 -0.31420686079E-02 -0.12354277374E-01 -0.42574246715E-02  0.10304902668E+01  0.10304026220E+01 0.  0.
     999903    2    3    3    0    0  0.12629542247E+00  0.36488956087E-01  0.12142472499E-01  0.13953085008E+00  0.45160168655E-01 0.  0.
         14    1    1    2    0    0  0.31420686079E-02  0.12354277374E-01  0.42574246715E-02  0.13439733234E-01  0.00000000000E+00 0. -1.
     999901    1    3    3    0    0 -0.12943749108E+00 -0.48843233461E-01 -0.16399897171E-01  0.89095941668E+00  0.88000000000E+00 0.  1.
        -11    1    4    4    0    0  0.93571660531E-01  0.43957751765E-01  0.19394708845E-01  0.10518723994E+00  0.51100000000E-03 0.  1.
         11    1    4    4    0    0  0.32723761939E-01 -0.74687956776E-02 -0.72522363456E-02  0.34343610138E-01  0.51100000000E-03 0. -1.
</event>
<event>
 8    1  0.2824193E+004  0.1043930E+01  0.7957747E-01            NaN
         13   -1    0    0    0    0  0.00000000000E+00  0.00000000000E+00  0.74505805969E-08  0.10566000000E+00  0.10566000000E+00 0. -1.
     999900   -1    0    0    0    0 -0.00000000000E+00 -0.00000000000E+00 -0.74505805969E-08  0.93827000000E+00  0.93827000000E+00 0.  1.
     999902    2    1    2    0    0  0.49160967786E-03  0.13657084901E-01  0.28699003222E-02  0.10299659757E+01  0.10298713109E+01 0.  0.
     999903    2    3    3    0    0  0.58779218493E-01 -0.26795543904E-01  0.11605403059E+00  0.13988479516E+00  0.43888725217E-01 0.  0.
         14    1    1    2    0    0 -0.49160967786E-03 -0.13657084901E-01 -0.28699003222E-02  0.13964024346E-01  0.00000000000E+00 0.  1.
     999901    1    3    3    0    0 -0.58287608815E-01  0.40452628805E-01 -0.11318413027E+00  0.89008118049E+00  0.88000000000E+00 0. -1.
        -11    1    4    4    0    0  0.65029724433E-01 -0.27069329888E-01  0.97397044164E-01  0.12020007909E+00  0.51100000000E-03 0. -1.
         11    1    4    4    0    0 -0.62505059395E-02  0.27378598464E-03  0.18656986429E-01  0.19684716073E-01  0.51100000000E-03 0.  1.
</event>
<event>
 8    1  0.2824193E+004  0.1043930E+01  0.7957747E-01            NaN
         13   -1    0    0    0    0  0.00000000000E+00  0.00000000000E+00  0.74505805969E-08  0.10566000000E+00  0.10566000000E+00 0. -1.
     999900   -1    0    0    0    0 -0.00000000000E+00 -0.00000000000E+00 -0.74505805969E-08  0.93827000000E+00  0.93827000000E+00 0.  1.
     999902    2    1    2    0    0  0.38549192604E-02  0.55642598749E-02  0.12901019894E-01  0.10293609333E+01  0.10292578264E+01 0.  0.
     999903    2    3    3    0    0 -0.10304084089E+00  0.28051044358E-01 -0.75301972383E-01  0.13823124191E+00  0.45091165603E-01 0.  0.
         14    1    1    2    0    0 -0.38549192604E-02 -0.55642598749E-02 -0.12901019894E-01  0.14569066709E-01  0.00000000000E+00 0. -1.
     999901    1    3    3    0    0  0.10689576015E+00 -0.22486784483E-01  0.88202992277E-01  0.89112969138E+00  0.88000000000E+00 0. -1.
        -11    1    4    4    0    0 -0.27995970769E-01  0.12151776383E-01  0.30092024219E-03  0.30525263677E-01  0.51100000000E-03 0. -1.
         11    1    4    4    0    0 -0.75044870117E-01  0.15899267975E-01 -0.75602892625E-01  0.10770597823E+00  0.51100000000E-03 0.  1.
</event>
<event>
 8    1  0.2824193E+004  0.1043930E+01  0.7957747E-01            NaN
         13   -1    0    0    0    0  0.00000000000E+00  0.00000000000E+00  0.74505805969E-08  0.10566000000E+00  0.10566000000E+00 0. -1.
     999900   -1    0    0    0    0 -0.00000000000E+00 -0.00000000000E+00 -0.74505805969E-08  0.93827000000E+00  0.93827000000E+00 0.  1.
     999902    2    1    2    0    0 -0.85633501361E-02  0.29871573376E-02 -0.11826054786E-01  0.10290266565E+01  0.10289187287E+01 0.  0.
     999903    2    3    3    0    0  0.78649769760E-01  0.67717465089E-02 -0.10601195427E+00  0.13970588479E+00  0.45249938822E-01 0.  0.
         14    1    1    2    0    0  0.85633501361E-02 -0.29871573376E-02  0.11826054786E-01  0.14903343461E-01  0.00000000000E+00 0. -1.
     999901    1    3    3    0    0 -0.87213119896E-01 -0.37845891713E-02  0.94185899484E-01  0.88932077175E+00  0.88000000000E+00 0. -1.
        -11    1    4    4    0    0  0.61129168766E-01 -0.25313431951E-02 -0.46140399083E-01  0.76631459081E-01  0.51100000000E-03 0.  1.
         11    1    4    4    0    0  0.17520600994E-01  0.93030897040E-02 -0.59871555188E-01  0.63074425711E-01  0.51100000000E-03 0. -1.
</event>
<event>
 8    1  0.2824193E+004  0.1043930E+01  0.7957747E-01            NaN
         13   -1    0    0    0    0  0.00000000000E+00  0.00000000000E+00  0.74505805969E-08  0.10566000000E+00  0.10566000000E+00 0. -1.
     999900   -1    0    0    0    0 -0.00000000000E+00 -0.00000000000E+00 -0.74505805969E-08  0.93827000000E+00  0.93827000000E+00 0.  1.
     999902    2    1    2    0    0  0.75048992123E-02 -0.18331546727E-02 -0.12759842156E-01  0.10290136486E+01  0.10289055308E+01 0.  0.
     999903    2    3    3    0    0 -0.48372545693E-02  0.12974165447E+00 -0.20066658863E-01  0.13911609900E+00  0.45763765867E-01 0.  0.
         14    1    1    2    0    0 -0.75048992123E-02  0.18331546727E-02  0.12759842156E-01  0.14916351434E-01  0.00000000000E+00 0. -1.
     999901    1    3    3    0    0  0.12342153782E-01 -0.13157480914E+00  0.73068167065E-02  0.88989754957E+00  0.88000000000E+00 0. -1.
        -11    1    4    4    0    0  0.80346963851E-02  0.86288120069E-01 -0.31776603450E-01  0.92304981766E-01  0.51100000000E-03 0. -1.
         11    1    4    4    0    0 -0.12871950954E-01  0.43453534399E-01  0.11709944588E-01  0.46811117230E-01  0.51100000000E-03 0.  1.
</event>
<event>
 8    1  0.2824193E+004  0.1043930E+01  0.7957747E-01            NaN
         13   -1    0    0    0    0  0.00000000000E+00  0.00000000000E+00  0.74505805969E-08  0.10566000000E+00  0.10566000000E+00 0.  1.
     999900   -1    0    0    0    0 -0.00000000000E+00 -0.00000000000E+00 -0.74505805969E-08  0.93827000000E+00  0.93827000000E+00 0. -1.
     999902    2    1    2    0    0 -0.34399013686E-03  0.11609568729E-01 -0.81784560692E-02  0.10297248052E+01  0.10296268192E+01 0.  0.
     999903    2    3    3    0    0 -0.78824999269E-01 -0.16998152318E-01  0.10360002679E+00  0.13872979977E+00  0.44840540809E-01 0.  0.
         14    1    1    2    0    0  0.34399013686E-03 -0.11609568729E-01  0.81784560692E-02  0.14205194788E-01  0.00000000000E+00 0.  1.
     999901    1    3    3    0    0  0.78481009132E-01  0.28607721047E-01 -0.11177848286E+00  0.89099500545E+00  0.88000000000E+00 0. -1.
        -11    1    4    4    0    0 -0.36021515878E-01  0.14285508254E-01  0.36764662093E-01  0.53418413043E-01  0.51100000000E-03 0.  1.
         11    1    4    4    0    0 -0.42803483390E-01 -0.31283660573E-01  0.66835364699E-01  0.85311386723E-01  0.51100000000E-03 0. -1.
</event>
<event>
 8    1  0.2824193E+004  0.1043930E+01  0.7957747E-01            NaN
         13   -1    0    0    0    0  0.00000000000E+00  0.00000000000E+00  0.74505805969E-08  0.10566000000E+00  0.10566000000E+00 0. -1.
     999900   -1    0    0    0    0 -0.00000000000E+00 -0.00000000000E+00 -0.74505805969E-08  0.93827000000E+00  0.93827000000E+00 0. -1.
     999902    2    1    2    0    0 -0.57944023884E-02  0.47321270206E-02 -0.11139456667E-01  0.10305115195E+01  0.10304241535E+01 0.  0.
     999903    2    3    3    0    0  0.49136106550E-01  0.93979428488E-01  0.79583163208E-01  0.13966190511E+00  0.43880268080E-01 0.  0.
         14    1    1    2    0    0  0.57944023884E-02 -0.47321270206E-02  0.11139456667E-01  0.13418480540E-01  0.00000000000E+00 0. -1.
     999901    1    3    3    0    0 -0.54930508939E-01 -0.89247301468E-01 -0.90722619874E-01  0.89084961435E+00  0.88000000000E+00 0. -1.
        -11    1    4    4    0    0  0.78865819950E-02  0.20965772641E-02  0.22392719221E-01  0.23838808840E-01  0.51100000000E-03 0.  1.
         11    1    4    4    0    0  0.41249524555E-01  0.91882851224E-01  0.57190443987E-01  0.11582309627E+00  0.51100000000E-03 0. -1.
</event>
<event>
 8    1  0.2824193E+004  0.1043930E+01  0.7957747E-01            NaN
         13   -1    0    0    0    0  0.00000000000E+00  0.00000000000E+00  0.74505805969E-08  0.10566000000E+00  0.10566000000E+00 0.  1.
     999900   -1    0    0    0    0 -0.00000000000E+00 -0.00000000000E+00 -0.74505805969E-08  0.93827000000E+00  0.93827000000E+00 0. -1.
     999902    2    1    2    0    0 -0.12835746015E-01  0.49988317616E-02 -0.47042352053E-03  0.10301471849E+01  0.10300549774E+01 0.  0.
     999903    2    3    3    0    0  0.88334915007E-01 -0.26933621445E-02  0.97476364249E-01  0.13891868121E+00  0.44569574736E-01 0.  0.
         14    1    1    2    0    0  0.12835746015E-01 -0.49988317616E-02  0.47042352053E-03  0.13782815135E-01  0.00000000000E+00 0. -1.
     999901    1    3    3    0    0 -0.10117066102E+00  0.76921939061E-02 -0.97946787770E-01  0.89122850366E+00  0.88000000000E+00 0. -1.
        -11    1    4    4    0    0  0.82445663946E-01  0.69765638317E-02  0.97109213415E-01  0.12757907508E+00  0.51100000000E-03 0.  1.
         11    1    4    4    0    0  0.58892510613E-02 -0.96699259762E-02  0.36715083354E-03  0.11339606130E-01  0.51100000000E-03 0. -1.
</event>
<event>
 8    1  0.2824193E+004  0.1043930E+01  0.7957747E-01            NaN
         13   -1    0    0    0    0  0.00000000000E+00  0.00000000000E+00  0.74505805969E-08  0.10566000000E+00  0.10566000000E+00 0. -1.
     999900   -1    0    0    0    0 -0.00000000000E+00 -0.00000000000E+00 -0.74505805969E-08  0.93827000000E+00  0.93827000000E+00 0. -1.
     999902    2    1    2    0    0  0.12782912721E-01  0.45666119719E-02  0.53729023184E-02  0.10293312027E+01  0.10292276716E+01 0.  0.
     999903    2    3    3    0    0  0.11130291121E+00 -0.41802371927E-02  0.73724077118E-01  0.14115634350E+00  0.45651520629E-01 0.  0.
         14    1    1    2    0    0 -0.12782912721E-01 -0.45666119719E-02 -0.53729023184E-02  0.14598797275E-01  0.00000000000E+00 0.  1.
     999901    1    3    3    0    0 -0.98519998486E-01  0.87468491645E-02 -0.68351174800E-01  0.88817485923E+00  0.88000000000E+00 0. -1.
        -11    1    4    4    0    0  0.71601440661E-02 -0.12725462527E-01  0.28275273787E-02  0.14881568857E-01  0.51100000000E-03 0.  1.
         11    1    4    4    0    0  0.10414276714E+00  0.85452253344E-02  0.70896549740E-01  0.12627477464E+00  0.51100000000E-03 0. -1.
</event>
<event>
 8    1  0.2824193E+004  0.1043930E+01  0.7957747E-01            NaN
         13   -1    0    0    0    0  0.00000000000E+00  0.00000000000E+00  0.74505805969E-08  0.10566000000E+00  0.10566000000E+00 0. -1.
     999900   -1    0    0    0    0 -0.00000000000E+00 -0.00000000000E+00 -0.74505805969E-08  0.93827000000E+00  0.93827000000E+00 0. -1.
     999902    2    1    2    0    0 -0.15026059554E-01 -0.17701369899E-02  0.80279635570E-02  0.10268021265E+01  0.10266592633E+01 0.  0.
     999903    2    3    3    0    0 -0.10802604129E+00 -0.41910889375E-01  0.62788077693E-01  0.13930060726E+00  0.45123920914E-01 0.  0.
         14    1    1    2    0    0  0.15026059554E-01  0.17701369899E-02 -0.80279635570E-02  0.17127873468E-01  0.00000000000E+00 0.  1.
     999901    1    3    3    0    0  0.92999981735E-01  0.40140752385E-01 -0.54760114136E-01  0.88750151927E+00  0.88000000000E+00 0. -1.
        -11    1    4    4    0    0 -0.32905210838E-01 -0.19981567256E-01 -0.73347597374E-03  0.38507337461E-01  0.51100000000E-03 0. -1.
         11    1    4    4    0    0 -0.75120830450E-01 -0.21929322119E-01  0.63521553666E-01  0.10079326980E+00  0.51100000000E-03 0.  1.
</event>
<event>
 8    1  0.2824193E+004  0.1043930E+01  0.7957747E-01            NaN
         13   -1    0    0    0    0  0.00000000000E+00  0.00000000000E+00  0.74505805969E-08  0.10566000000E+00  0.10566000000E+00 0.  1.
     999900   -1    0    0    0    0 -0.00000000000E+00 -0.00000000000E+00 -0.74505805969E-08  0.93827000000E+00  0.93827000000E+00 0.  1.
     999902    2    1    2    0    0  0.45480123544E-02 -0.21867680050E-02  0.12702383812E-01  0.10302619012E+01  0.10301712324E+01 0.  0.
     999903    2    3    3    0    0 -0.12718209372E+00 -0.16826247077E-01  0.33304125972E-01  0.14009811459E+00  0.45386224248E-01 0.  0.
         14    1    1    2    0    0 -0.45480123544E-02  0.21867680050E-02 -0.12702383812E-01  0.13668098814E-01  0.00000000000E+00 0. -1.
     999901    1    3    3    0    0  0.13173010607E+00  0.14639479072E-01 -0.20601742160E-01  0.89016378660E+00  0.88000000000E+00 0. -1.
        -11    1    4    4    0    0 -0.68184448235E-01 -0.20943570585E-01  0.37904693904E-01  0.80776104579E-01  0.51100000000E-03 0. -1.
         11    1    4    4    0    0 -0.58997645480E-01  0.41173235081E-02 -0.46005679321E-02  0.59322010008E-01  0.51100000000E-03 0.  1.
</event>
<event>
 8    1  0.2824193E+004  0.1043930E+01  0.7957747E-01            NaN
         13   -1    0    0    0    0  0.00000000000E+00  0.00000000000E+00  0.74505805969E-08  0.10566000000E+00  0.10566000000E+00 0.  1.
     999900   -1    0    0    0    0 -0.00000000000E+00 -0.00000000000E+00 -0.74505805969E-08  0.93827000000E+00  0.93827000000E+00 0. -1.
     999902    2    1    2    0    0  0.67510945604E-03 -0.56507090754E-03  0.13910206811E-01  0.10299919610E+01  0.10298976506E+01 0.  0.
     999903    2    3    3    0    0  0.57097816329E-01 -0.60862017948E-01  0.10531848096E+00  0.14141179226E+00  0.44056403639E-01 0.  0.
         14    1    1    2    0    0 -0.67510945604E-03  0.56507090754E-03 -0.13910206811E-01  0.13938039009E-01  0.00000000000E+00 0. -1.
     999901    1    3    3    0    0 -0.56422706873E-01  0.60296947040E-01 -0.91408274147E-01  0.88858016873E+00  0.88000000000E+00 0. -1.
        -11    1    4    4    0    0  0.98651491545E-02  0.64017727459E-02  0.17882352013E-01  0.21408958327E-01  0.51100000000E-03 0.  1.
         11    1    4    4    0    0  0.47232667174E-01 -0.67263790694E-01  0.87436128945E-01  0.12000283394E+00  0.51100000000E-03 0. -1.
</event>
<event>
 8    1  0.2824193E+004  0.1043930E+01  0.7957747E-01            NaN
         13   -1    0    0    0    0  0.00000000000E+00  0.00000000000E+00  0.74505805969E-08  0.10566000000E+00  0.10566000000E+00 0. -1.
     999900   -1    0    0    0    0 -0.00000000000E+00 -0.00000000000E+00 -0.74505805969E-08  0.93827000000E+00  0.93827000000E+00 0. -1.
     999902    2    1    2    0    0  0.98540503500E-02  0.73132803909E-02 -0.58756783304E-02  0.10303244874E+01  0.10302346525E+01 0.  0.
     999903    2    3    3    0    0  0.40735060384E-02 -0.10441018869E+00 -0.80514117601E-01  0.14010740998E+00  0.47217393449E-01 0.  0.
         14    1    1    2    0    0 -0.98540503500E-02 -0.73132803909E-02  0.58756783304E-02  0.13605512641E-01  0.00000000000E+00 0. -1.
     999901    1    3    3    0    0  0.57805443116E-02  0.11172346909E+00  0.74638439271E-01  0.89021707738E+00  0.88000000000E+00 0.  1.
        -11    1    4    4    0    0  0.92117393083E-02 -0.40283136692E-01 -0.59468669002E-01  0.72418029224E-01  0.51100000000E-03 0.  1.
         11    1    4    4    0    0 -0.51382332698E-02 -0.64127052003E-01 -0.21045448599E-01  0.67689380759E-01  0.51100000000E-03 0. -1.
</event>
<event>
 8    1  0.2824193E+004  0.1043930E+01  0.7957747E-01            NaN
         13   -1    0    0    0    0  0.00000000000E+00  0.00000000000E+00  0.74505805969E-08  0.10566000000E+00  0.10566000000E+00 0.  1.
     999900   -1    0    0    0    0 -0.00000000000E+00 -0.00000000000E+00 -0.74505805969E-08  0.93827000000E+00  0.93827000000E+00 0.  1.
     999902    2    1    2    0    0 -0.12974451832E-01  0.33317151503E-02 -0.39300806404E-02  0.10299699764E+01  0.10298753662E+01 0.  0.
     999903    2    3    3    0    0 -0.11576511997E+00  0.49222133631E-01  0.45911312978E-01  0.14140032997E+00  0.45407303551E-01 0.  0.
         14    1    1    2    0    0  0.12974451832E-01 -0.33317151503E-02  0.39300806404E-02  0.13960023639E-01  0.00000000000E+00 0.  1.
     999901    1    3    3    0    0  0.10279066814E+00 -0.45890418480E-01 -0.49841393618E-01  0.88856964639E+00  0.88000000000E+00 0.  1.
        -11    1    4    4    0    0 -0.34540553504E-01  0.37669219558E-01  0.24096797602E-01  0.56506076789E-01  0.51100000000E-03 0. -1.
         11    1    4    4    0    0 -0.81224566468E-01  0.11552914073E-01  0.21814515377E-01  0.84894253183E-01  0.51100000000E-03 0.  1.
</event>
<event>
 8    1  0.2824193E+004  0.1043930E+01  0.7957747E-01            NaN
         13   -1    0    0    0    0  0.00000000000E+00  0.00000000000E+00  0.74505805969E-08  0.10566000000E+00  0.10566000000E+00 0.  1.
     999900   -1    0    0    0    0 -0.00000000000E+00 -0.00000000000E+00 -0.74505805969E-08  0.93827000000E+00  0.93827000000E+00 0. -1.
     999902    2    1    2    0    0 -0.10714256461E-01 -0.90017283536E-02  0.62688616312E-04  0.10299360608E+01  0.10298409872E+01 0.  0.
     999903    2    3    3    0    0 -0.66685981162E-01 -0.64103545777E-01  0.96803022156E-01  0.14115727144E+00  0.44701963250E-01 0.  0.
         14    1    1    2    0    0  0.10714256461E-01  0.90017283536E-02 -0.62688616312E-04  0.13993939214E-01  0.00000000000E+00 0.  1.
     999901    1    3    3    0    0  0.55971724701E-01  0.55101817424E-01 -0.96740333539E-01  0.88877878934E+00  0.88000000000E+00 0. -1.
        -11    1    4    4    0    0 -0.55406934675E-01 -0.22824749804E-01  0.55322389606E-01  0.81558111346E-01  0.51100000000E-03 0. -1.
         11    1    4    4    0    0 -0.11279046487E-01 -0.41278795974E-01  0.41480632550E-01  0.59599160099E-01  0.51100000000E-03 0.  1.
</event>
<event>
 8    1  0.2824193E+004  0.1043930E+01  0.7957747E-01            NaN
         13   -1    0    0    0    0  0.00000000000E+00  0.00000000000E+00  0.74505805969E-08  0.10566000000E+00  0.10566000000E+00 0. -1.
     999900   -1    0    0    0    0 -0.00000000000E+00 -0.00000000000E+00 -0.74505805969E-08  0.93827000000E+00  0.93827000000E+00 0. -1.
     999902    2    1    2    0    0 -0.42361364890E-02  0.13077408982E-01  0.14741192158E-02  0.10301047873E+01  0.10300120079E+01 0.  0.
     999903    2    3    3    0    0  0.10323919742E+00  0.16139164822E-02 -0.82338365084E-01  0.13953929755E+00  0.45062984631E-01 0.  0.
         14    1    1    2    0    0  0.42361364890E-02 -0.13077408982E-01 -0.14741192158E-02  0.13825212674E-01  0.00000000000E+00 0.  1.
     999901    1    3    3    0    0 -0.10747533391E+00  0.11463492500E-01  0.83812484300E-01  0.89056548978E+00  0.88000000000E+00 0.  1.
        -11    1    4    4    0    0  0.13318504151E-01  0.16803403832E-01 -0.16530549731E-01  0.27078720955E-01  0.51100000000E-03 0.  1.
         11    1    4    4    0    0  0.89920693274E-01 -0.15189487350E-01 -0.65807815353E-01  0.11246057659E+00  0.51100000000E-03 0. -1.
</event>
<event>
 8    1  0.2824193E+004  0.1043930E+01  0.7957747E-01            NaN
         13   -1    0    0    0    0  0.00000000000E+00  0.00000000000E+00  0.74505805969E-08  0.10566000000E+00  0.10566000000E+00 0.  1.
     999900   -1    0    0    0    0 -0.00000000000E+00 -0.00000000000E+00 -0.74505805969E-08  0.93827000000E+00  0.93827000000E+00 0. -1.
     999902    2    1    2    0    0 -0.42147220134E-02  0.11977420513E-01  0.63825703612E-02  0.10297187478E+01  0.10296206777E+01 0.  0.
     999903    2    3    3    0    0  0.12661891775E+00 -0.34689607207E-01  0.11756065285E-02  0.13880777291E+00  0.45061031820E-01 0.  0.
         14    1    1    2    0    0  0.42147220134E-02 -0.11977420513E-01 -0.63825703612E-02  0.14211252169E-01  0.00000000000E+00 0. -1.
     999901    1    3    3    0    0 -0.13083363976E+00  0.46667027721E-01  0.52069638327E-02  0.89091097492E+00  0.88000000000E+00 0.  1.
        -11    1    4    4    0    0  0.67732874522E-01 -0.19948017350E-01  0.23055415386E-01  0.74279734698E-01  0.51100000000E-03 0. -1.
         11    1    4    4    0    0  0.58886043225E-01 -0.14741589858E-01 -0.21879808858E-01  0.64528038208E-01  0.51100000000E-03 0.  1.
</event>
<event>
 8    1  0.2824193E+004  0.1043930E+01  0.7957747E-01            NaN
         13   -1    0    0    0    0  0.00000000000E+00  0.00000000000E+00  0.74505805969E-08  0.10566000000E+00  0.10566000000E+00 0.  1.
     999900   -1    0    0    0    0 -0.00000000000E+00 -0.00000000000E+00 -0.74505805969E-08  0.93827000000E+00  0.93827000000E+00 0.  1.
     999902    2    1    2    0    0 -0.58048867943E-02  0.12280893938E-01 -0.12356584378E-01  0.10255669326E+01  0.10254025215E+01 0.  0.
     999903    2    3    3    0    0 -0.83253876079E-01 -0.75719272355E-01  0.58627949664E-01  0.13495973564E+00  0.45959522136E-01 0.  0.
         14    1    1    2    0    0  0.58048867943E-02 -0.12280893938E-01  0.12356584378E-01  0.18363067394E-01  0.00000000000E+00 0. -1.
     999901    1    3    3    0    0  0.77448989284E-01  0.88000166293E-01 -0.70984534042E-01  0.89060719696E+00  0.88000000000E+00 0. -1.
        -11    1    4    4    0    0 -0.15277849285E-01 -0.24913457426E-01 -0.39797820360E-02  0.29499030929E-01  0.51100000000E-03 0.  1.
         11    1    4    4    0    0 -0.67976026793E-01 -0.50805814929E-01  0.62607731700E-01  0.10546070471E+00  0.51100000000E-03 0. -1.
</event>
<event>
 8    1  0.2824193E+004  0.1043930E+01  0.7957747E-01            NaN
         13   -1    0    0    0    0  0.00000000000E+00  0.00000000000E+00  0.74505805969E-08  0.10566000000E+00  0.10566000000E+00 0. -1.
     999900   -1    0    0    0    0 -0.00000000000E+00 -0.00000000000E+00 -0.74505805969E-08  0.93827000000E+00  0.93827000000E+00 0.  1.
     999902    2    1    2    0    0  0.16925761244E-02 -0.10139087741E-01 -0.87040649215E-02  0.10304605286E+01  0.10303724930E+01 0.  0.
     999903    2    3    3    0    0  0.12140625800E+00  0.92325373223E-02  0.53193095919E-01  0.13998993165E+00  0.44078977792E-01 0.  0.
         14    1    1    2    0    0 -0.16925761244E-02  0.10139087741E-01  0.87040649215E-02  0.13469471419E-01  0.00000000000E+00 0. -1.
     999901    1    3    3    0    0 -0.11971368187E+00 -0.19371625063E-01 -0.61897160840E-01  0.89047059693E+00  0.88000000000E+00 0. -1.
        -11    1    4    4    0    0  0.59834116630E-01  0.25384352298E-01  0.34803637255E-01  0.73729513369E-01  0.51100000000E-03 0. -1.
         11    1    4    4    0    0  0.61572141365E-01 -0.16151814976E-01  0.18389458663E-01  0.66260418277E-01  0.51100000000E-03 0.  1.
</event>
<event>
 8    1  0.2824193E+004  0.1043930E+01  0.7957747E-01            NaN
         13   -1    0    0    0    0  0.00000000000E+00  0.00000000000E+00  0.74505805969E-08  0.10566000000E+00  0.10566000000E+00 0. -1.
     999900   -1    0    0    0    0 -0.00000000000E+00 -0.00000000000E+00 -0.74505805969E-08  0.93827000000E+00  0.93827000000E+00 0. -1.
     999902    2    1    2    0    0 -0.47224088074E-02  0.95107889491E-02  0.13657540721E-01  0.10266301540E+01  0.10264843830E+01 0.  0.
     999903    2    3    3    0    0  0.12658119128E-01  0.10120242599E+00  0.83146790453E-01  0.13897132607E+00  0.44693195258E-01 0.  0.
         14    1    1    2    0    0  0.47224088074E-02 -0.95107889491E-02 -0.13657540721E-01  0.17299845951E-01  0.00000000000E+00 0.  1.
     999901    1    3    3    0    0 -0.17380527936E-01 -0.91691637039E-01 -0.69489249732E-01  0.88765882798E+00  0.88000000000E+00 0. -1.
        -11    1    4    4    0    0  0.22750090000E-01  0.76855710149E-01  0.43043028035E-01  0.90979833815E-01  0.51100000000E-03 0. -1.
         11    1    4    4    0    0 -0.10091970872E-01  0.24346715839E-01  0.40103762418E-01  0.47991492259E-01  0.51100000000E-03 0.  1.
</event>
