<event>
 8    1  0.2091070E+004  0.1043930E+01  0.7957747E-01            NaN
         13   -1    0    0    0    0  0.00000000000E+00  0.00000000000E+00  0.74505805969E-08  0.10566000000E+00  0.10566000000E+00 0.  1.
     999900   -1    0    0    0    0 -0.00000000000E+00 -0.00000000000E+00 -0.74505805969E-08  0.93827000000E+00  0.93827000000E+00 0.  1.
     999902    2    1    2    0    0  0.14309978017E-01 -0.28666598647E-02  0.95984851882E-02  0.10264621974E+01  0.10263135576E+01 0.  0.
     999903    2    3    3    0    0  0.12337053194E+00  0.19721506838E-01 -0.45204742566E-01  0.13775086999E+00  0.36367670408E-01 0.  0.
         14    1    1    2    0    0 -0.14309978017E-01  0.28666598647E-02 -0.95984851882E-02  0.17467802596E-01  0.00000000000E+00 0. -1.
     999901    1    3    3    0    0 -0.10906055392E+00 -0.22588166703E-01  0.54803227754E-01  0.88871132741E+00  0.88000000000E+00 0. -1.
        -11    1    4    4    0    0  0.41995663926E-01  0.14681541004E-01 -0.32812603703E-01  0.55282108476E-01  0.51100000000E-03 0. -1.
         11    1    4    4    0    0  0.81374868011E-01  0.50399658346E-02 -0.12392138863E-01  0.82468761517E-01  0.51100000000E-03 0.  1.
</event>
<event>
 8    1  0.2091070E+004  0.1043930E+01  0.7957747E-01            NaN
         13   -1    0    0    0    0  0.00000000000E+00  0.00000000000E+00  0.74505805969E-08  0.10566000000E+00  0.10566000000E+00 0.  1.
     999900   -1    0    0    0    0 -0.00000000000E+00 -0.00000000000E+00 -0.74505805969E-08  0.93827000000E+00  0.93827000000E+00 0. -1.
     999902    2    1    2    0    0 -0.10775782065E-01  0.78205954143E-02 -0.21399212148E-01  0.10187267170E+01  0.10184149049E+01 0.  0.
     999903    2    3    3    0    0  0.86819432451E-01 -0.80696733480E-01 -0.15681788983E-01  0.12889929987E+00  0.48161544361E-01 0.  0.
         14    1    1    2    0    0  0.10775782065E-01 -0.78205954143E-02  0.21399212148E-01  0.25203282967E-01  0.00000000000E+00 0.  1.
     999901    1    3    3    0    0 -0.97595214516E-01  0.88517328895E-01 -0.57174231653E-02  0.88982741717E+00  0.88000000000E+00 0.  1.
        -11    1    4    4    0    0  0.26360064920E-01  0.90409883407E-03 -0.29414015053E-02  0.26543989548E-01  0.51100000000E-03 0.  1.
         11    1    4    4    0    0  0.60459367531E-01 -0.81600832315E-01 -0.12740387478E-01  0.10235531032E+00  0.51100000000E-03 0. -1.
</event>
<event>
 8    1  0.2091070E+004  0.1043930E+01  0.7957747E-01            NaN
         13   -1    0    0    0    0  0.00000000000E+00  0.00000000000E+00  0.74505805969E-08  0.10566000000E+00  0.10566000000E+00 0. -1.
     999900   -1    0    0    0    0 -0.00000000000E+00 -0.00000000000E+00 -0.74505805969E-08  0.93827000000E+00  0.93827000000E+00 0. -1.
     999902    2    1    2    0    0  0.13373332944E-01  0.46012539274E-02  0.13430106633E-02  0.10297236194E+01  0.10296256170E+01 0.  0.
     999903    2    3    3    0    0  0.86955470824E-01  0.93306841240E-01 -0.40429324568E-01  0.14122604473E+00  0.45197841710E-01 0.  0.
         14    1    1    2    0    0 -0.13373332944E-01 -0.46012539274E-02 -0.13430106633E-02  0.14206380587E-01  0.00000000000E+00 0.  1.
     999901    1    3    3    0    0 -0.73582137881E-01 -0.88705587313E-01  0.41772335231E-01  0.88849757469E+00  0.88000000000E+00 0. -1.
        -11    1    4    4    0    0  0.25956005570E-01  0.28340527375E-02 -0.97775351173E-02  0.27885612671E-01  0.51100000000E-03 0. -1.
         11    1    4    4    0    0  0.60999465255E-01  0.90472788503E-01 -0.30651789451E-01  0.11334043205E+00  0.51100000000E-03 0.  1.
</event>
<event>
 8    1  0.2091070E+004  0.1043930E+01  0.7957747E-01            NaN
         13   -1    0    0    0    0  0.00000000000E+00  0.00000000000E+00  0.74505805969E-08  0.10566000000E+00  0.10566000000E+00 0. -1.
     999900   -1    0    0    0    0 -0.00000000000E+00 -0.00000000000E+00 -0.74505805969E-08  0.93827000000E+00  0.93827000000E+00 0. -1.
     999902    2    1    2    0    0  0.13515023791E-01 -0.49342748831E-02  0.11817229992E-02  0.10294939546E+01  0.10293927352E+01 0.  0.
     999903    2    3    3    0    0 -0.67354698837E-01 -0.10617485020E+00 -0.39633581188E-01  0.13906964275E+00  0.44269521189E-01 0.  0.
         14    1    1    2    0    0 -0.13515023791E-01  0.49342748831E-02 -0.11817229992E-02  0.14436045370E-01  0.00000000000E+00 0. -1.
     999901    1    3    3    0    0  0.80869722628E-01  0.10124057532E+00  0.40815304187E-01  0.89042431188E+00  0.88000000000E+00 0.  1.
        -11    1    4    4    0    0 -0.59833506572E-01 -0.89771920052E-01 -0.49272983533E-01  0.11860495001E+00  0.51100000000E-03 0.  1.
         11    1    4    4    0    0 -0.75211922645E-02 -0.16402930150E-01  0.96394023457E-02  0.20464692745E-01  0.51100000000E-03 0. -1.
</event>
<event>
 8    1  0.2091070E+004  0.1043930E+01  0.7957747E-01            NaN
         13   -1    0    0    0    0  0.00000000000E+00  0.00000000000E+00  0.74505805969E-08  0.10566000000E+00  0.10566000000E+00 0. -1.
     999900   -1    0    0    0    0 -0.00000000000E+00 -0.00000000000E+00 -0.74505805969E-08  0.93827000000E+00  0.93827000000E+00 0. -1.
     999902    2    1    2    0    0  0.92963707537E-02  0.65419110757E-02 -0.84779685343E-02  0.10297492010E+01  0.10296515536E+01 0.  0.
     999903    2    3    3    0    0 -0.46534489719E-01 -0.12154026171E+00  0.11643964565E-01  0.13849894425E+00  0.45922561971E-01 0.  0.
         14    1    1    2    0    0 -0.92963707537E-02 -0.65419110757E-02  0.84779685343E-02  0.14180798997E-01  0.00000000000E+00 0. -1.
     999901    1    3    3    0    0  0.55830860473E-01  0.12808217279E+00 -0.20121933099E-01  0.89125025675E+00  0.88000000000E+00 0.  1.
        -11    1    4    4    0    0 -0.67209363710E-02 -0.43599993389E-01  0.23814431526E-01  0.50135004529E-01  0.51100000000E-03 0. -1.
         11    1    4    4    0    0 -0.39813553348E-01 -0.77940268322E-01 -0.12170466961E-01  0.88363939723E-01  0.51100000000E-03 0.  1.
</event>
<event>
 7    1  0.2759378E+004  0.1043930E+01  0.7957747E-01            NaN
         13   -1    0    0    0    0  0.00000000000E+00  0.00000000000E+00  0.74505805969E-08  0.10566000000E+00  0.10566000000E+00 0.  1.
     999900   -1    0    0    0    0 -0.00000000000E+00 -0.00000000000E+00 -0.74505805969E-08  0.93827000000E+00  0.93827000000E+00 0. -1.
     999903    2    1    2    0    0  0.30647950193E-01  0.31566570290E-01  0.61715248377E-01  0.86737605633E-01  0.42176950314E-01 0.  0.
         14    1    1    2    0    0 -0.16082004964E-01  0.67078659079E-01  0.42303353888E-02  0.69109139230E-01  0.00000000000E+00 0.  1.
     999901    1    1    2    0    0 -0.14565945229E-01 -0.98645229369E-01 -0.65945583766E-01  0.88808325514E+00  0.88000000000E+00 0. -1.
        -11    1    3    3    0    0  0.32832627992E-01  0.39083875900E-02  0.30720101230E-01  0.45135824962E-01  0.51100000000E-03 0. -1.
         11    1    3    3    0    0 -0.21846777990E-02  0.27658182700E-01  0.30995147147E-01  0.41601780671E-01  0.51100000000E-03 0.  1.
</event>
<event>
 8    1  0.2091070E+004  0.1043930E+01  0.7957747E-01            NaN
         13   -1    0    0    0    0  0.00000000000E+00  0.00000000000E+00  0.74505805969E-08  0.10566000000E+00  0.10566000000E+00 0.  1.
     999900   -1    0    0    0    0 -0.00000000000E+00 -0.00000000000E+00 -0.74505805969E-08  0.93827000000E+00  0.93827000000E+00 0. -1.
     999902    2    1    2    0    0 -0.20115441902E-02  0.11921420893E-01  0.68165050541E-02  0.10300508312E+01  0.10299573212E+01 0.  0.
     999903    2    3    3    0    0  0.67665262182E-01 -0.47983318650E-01  0.10323162996E+00  0.14002874635E+00  0.45500481375E-01 0.  0.
         14    1    1    2    0    0  0.20115441902E-02 -0.11921420893E-01 -0.68165050541E-02  0.13879168825E-01  0.00000000000E+00 0. -1.
     999901    1    3    3    0    0 -0.69676806372E-01  0.59904739543E-01 -0.96415124905E-01  0.89002208483E+00  0.88000000000E+00 0.  1.
        -11    1    4    4    0    0  0.30960372070E-01 -0.19018307002E-01  0.13353475902E-01  0.38714559013E-01  0.51100000000E-03 0. -1.
         11    1    4    4    0    0  0.36704890112E-01 -0.28965011648E-01  0.89878154057E-01  0.10131418734E+00  0.51100000000E-03 0.  1.
</event>
<event>
 8    1  0.2091070E+004  0.1043930E+01  0.7957747E-01            NaN
         13   -1    0    0    0    0  0.00000000000E+00  0.00000000000E+00  0.74505805969E-08  0.10566000000E+00  0.10566000000E+00 0.  1.
     999900   -1    0    0    0    0 -0.00000000000E+00 -0.00000000000E+00 -0.74505805969E-08  0.93827000000E+00  0.93827000000E+00 0. -1.
     999902    2    1    2    0    0  0.24421089521E-02 -0.38404279656E-02 -0.13761376822E-01  0.10294355778E+01  0.10293335322E+01 0.  0.
     999903    2    3    3    0    0  0.10057752704E+00  0.38426249770E-01  0.74645384969E-01  0.13857487720E+00  0.45151383993E-01 0.  0.
         14    1    1    2    0    0 -0.24421089521E-02  0.38404279656E-02  0.13761376822E-01  0.14494422208E-01  0.00000000000E+00 0.  1.
     999901    1    3    3    0    0 -0.98135418089E-01 -0.42266677736E-01 -0.88406761791E-01  0.89086070059E+00  0.88000000000E+00 0. -1.
        -11    1    4    4    0    0  0.65545084442E-01  0.42618034848E-01  0.35478043003E-01  0.85856902141E-01  0.51100000000E-03 0. -1.
         11    1    4    4    0    0  0.35032442599E-01 -0.41917850782E-02  0.39167341966E-01  0.52717975059E-01  0.51100000000E-03 0.  1.
</event>
<event>
 8    1  0.2091070E+004  0.1043930E+01  0.7957747E-01            NaN
         13   -1    0    0    0    0  0.00000000000E+00  0.00000000000E+00  0.74505805969E-08  0.10566000000E+00  0.10566000000E+00 0. -1.
     999900   -1    0    0    0    0 -0.00000000000E+00 -0.00000000000E+00 -0.74505805969E-08  0.93827000000E+00  0.93827000000E+00 0.  1.
     999902    2    1    2    0    0 -0.68624767232E-02 -0.88257515785E-02 -0.85291619138E-02  0.10298682049E+01  0.10297722008E+01 0.  0.
     999903    2    3    3    0    0  0.16730189753E-02  0.12436552625E+00  0.45731192359E-01  0.13815246703E+00  0.39053541190E-01 0.  0.
         14    1    1    2    0    0  0.68624767232E-02  0.88257515785E-02  0.85291619138E-02  0.14061795072E-01  0.00000000000E+00 0. -1.
     999901    1    3    3    0    0 -0.85354956985E-02 -0.13319127783E+00 -0.54260354273E-01  0.89171573790E+00  0.88000000000E+00 0. -1.
        -11    1    4    4    0    0 -0.68288236703E-02  0.54478080779E-01  0.39162355763E-01  0.67442162984E-01  0.51100000000E-03 0.  1.
         11    1    4    4    0    0  0.85018426456E-02  0.69887445468E-01  0.65688365960E-02  0.70710304042E-01  0.51100000000E-03 0. -1.
</event>
<event>
 8    1  0.2091070E+004  0.1043930E+01  0.7957747E-01            NaN
         13   -1    0    0    0    0  0.00000000000E+00  0.00000000000E+00  0.74505805969E-08  0.10566000000E+00  0.10566000000E+00 0. -1.
     999900   -1    0    0    0    0 -0.00000000000E+00 -0.00000000000E+00 -0.74505805969E-08  0.93827000000E+00  0.93827000000E+00 0.  1.
     999902    2    1    2    0    0 -0.87951520503E-02 -0.10974618423E-01  0.22466313357E-02  0.10296876581E+01  0.10295891555E+01 0.  0.
     999903    2    3    3    0    0 -0.34310096050E-02 -0.13317998907E+00  0.12461946326E-01  0.14116794576E+00  0.44993416063E-01 0.  0.
         14    1    1    2    0    0  0.87951520503E-02  0.10974618423E-01 -0.22466313357E-02  0.14242341854E-01  0.00000000000E+00 0.  1.
     999901    1    3    3    0    0 -0.53641424453E-02  0.12220537064E+00 -0.10215314990E-01  0.88851971239E+00  0.88000000000E+00 0. -1.
        -11    1    4    4    0    0 -0.20844787023E-01 -0.52794227625E-01  0.15563478099E-01  0.58857612830E-01  0.51100000000E-03 0.  1.
         11    1    4    4    0    0  0.17413777418E-01 -0.80385761442E-01 -0.31015317733E-02  0.82310332930E-01  0.51100000000E-03 0. -1.
</event>
<event>
 8    1  0.2091070E+004  0.1043930E+01  0.7957747E-01            NaN
         13   -1    0    0    0    0  0.00000000000E+00  0.00000000000E+00  0.74505805969E-08  0.10566000000E+00  0.10566000000E+00 0. -1.
     999900   -1    0    0    0    0 -0.00000000000E+00 -0.00000000000E+00 -0.74505805969E-08  0.93827000000E+00  0.93827000000E+00 0.  1.
     999902    2    1    2    0    0  0.20284096907E-03 -0.35378346086E-02 -0.13771059537E-01  0.10297103130E+01  0.10296121256E+01 0.  0.
     999903    2    3    3    0    0 -0.87177341111E-01 -0.71465049698E-01  0.67715165598E-01  0.13904235709E+00  0.45169583576E-01 0.  0.
         14    1    1    2    0    0 -0.20284096907E-03  0.35378346086E-02  0.13771059537E-01  0.14219687020E-01  0.00000000000E+00 0. -1.
     999901    1    3    3    0    0  0.87380182080E-01  0.67927215089E-01 -0.81486225135E-01  0.89066795589E+00  0.88000000000E+00 0.  1.
        -11    1    4    4    0    0 -0.36510884403E-01 -0.10809389362E-01  0.40154628716E-01  0.55340246715E-01  0.51100000000E-03 0. -1.
         11    1    4    4    0    0 -0.50666456709E-01 -0.60655660336E-01  0.27560536882E-01  0.83702110370E-01  0.51100000000E-03 0.  1.
</event>
<event>
 8    1  0.2091070E+004  0.1043930E+01  0.7957747E-01            NaN
         13   -1    0    0    0    0  0.00000000000E+00  0.00000000000E+00  0.74505805969E-08  0.10566000000E+00  0.10566000000E+00 0.  1.
     999900   -1    0    0    0    0 -0.00000000000E+00 -0.00000000000E+00 -0.74505805969E-08  0.93827000000E+00  0.93827000000E+00 0. -1.
     999902    2    1    2    0    0 -0.17803606162E-02 -0.14550364971E-01 -0.91872060997E-03  0.10292423572E+01  0.10291375530E+01 0.  0.
     999903    2    3    3    0    0 -0.81874864843E-02 -0.11023932783E+00 -0.74497576364E-01  0.14097928977E+00  0.45886021008E-01 0.  0.
         14    1    1    2    0    0  0.17803606162E-02  0.14550364971E-01  0.91872060997E-03  0.14687642843E-01  0.00000000000E+00 0. -1.
     999901    1    3    3    0    0  0.64071258681E-02  0.95688962858E-01  0.73578855754E-01  0.88826306739E+00  0.88000000000E+00 0.  1.
        -11    1    4    4    0    0 -0.27232386135E-01 -0.60772579195E-01 -0.38876619405E-01  0.77113953952E-01  0.51100000000E-03 0.  1.
         11    1    4    4    0    0  0.19044899651E-01 -0.49466748634E-01 -0.35620956959E-01  0.63865335816E-01  0.51100000000E-03 0. -1.
</event>
<event>
 8    1  0.2091070E+004  0.1043930E+01  0.7957747E-01            NaN
         13   -1    0    0    0    0  0.00000000000E+00  0.00000000000E+00  0.74505805969E-08  0.10566000000E+00  0.10566000000E+00 0. -1.
     999900   -1    0    0    0    0 -0.00000000000E+00 -0.00000000000E+00 -0.74505805969E-08  0.93827000000E+00  0.93827000000E+00 0.  1.
     999902    2    1    2    0    0 -0.52204698065E-02 -0.16083739563E-01 -0.12931984697E-01  0.10226420642E+01  0.10224204689E+01 0.  0.
     999903    2    3    3    0    0  0.18434117246E-01  0.66910598669E-01 -0.10490543087E+00  0.13365009882E+00  0.45170284425E-01 0.  0.
         14    1    1    2    0    0  0.52204698065E-02  0.16083739563E-01  0.12931984697E-01  0.21287935822E-01  0.00000000000E+00 0.  1.
     999901    1    3    3    0    0 -0.23654587053E-01 -0.82994338232E-01  0.91973446177E-01  0.88899196536E+00  0.88000000000E+00 0.  1.
        -11    1    4    4    0    0 -0.61677357131E-02 -0.34528789963E-02 -0.16851140628E-01  0.18280738460E-01  0.51100000000E-03 0. -1.
         11    1    4    4    0    0  0.24601852960E-01  0.70363477665E-01 -0.88054290247E-01  0.11536936036E+00  0.51100000000E-03 0.  1.
</event>
<event>
 8    1  0.2091070E+004  0.1043930E+01  0.7957747E-01            NaN
         13   -1    0    0    0    0  0.00000000000E+00  0.00000000000E+00  0.74505805969E-08  0.10566000000E+00  0.10566000000E+00 0. -1.
     999900   -1    0    0    0    0 -0.00000000000E+00 -0.00000000000E+00 -0.74505805969E-08  0.93827000000E+00  0.93827000000E+00 0.  1.
     999902    2    1    2    0    0  0.13202643230E-01 -0.97787748148E-02  0.14212538089E-02  0.10274389665E+01  0.10273066123E+01 0.  0.
     999903    2    3    3    0    0 -0.12617374098E+00  0.22614401364E-01  0.10398761221E-01  0.13583608962E+00  0.43727393552E-01 0.  0.
         14    1    1    2    0    0 -0.13202643230E-01  0.97787748148E-02 -0.14212538089E-02  0.16491033549E-01  0.00000000000E+00 0. -1.
     999901    1    3    3    0    0  0.13937638421E+00 -0.32393176179E-01 -0.89775074126E-02  0.89160287683E+00  0.88000000000E+00 0. -1.
        -11    1    4    4    0    0 -0.27315312183E-01  0.23990341933E-01  0.61562599638E-02  0.36875783971E-01  0.51100000000E-03 0. -1.
         11    1    4    4    0    0 -0.98858428793E-01 -0.13759405690E-02  0.42425012577E-02  0.98960305647E-01  0.51100000000E-03 0.  1.
</event>
<event>
 8    1  0.2091070E+004  0.1043930E+01  0.7957747E-01            NaN
         13   -1    0    0    0    0  0.00000000000E+00  0.00000000000E+00  0.74505805969E-08  0.10566000000E+00  0.10566000000E+00 0.  1.
     999900   -1    0    0    0    0 -0.00000000000E+00 -0.00000000000E+00 -0.74505805969E-08  0.93827000000E+00  0.93827000000E+00 0. -1.
     999902    2    1    2    0    0 -0.13692152165E-01  0.27883106294E-02  0.45102604963E-03  0.10299495447E+01  0.10298546555E+01 0.  0.
     999903    2    3    3    0    0 -0.35104470713E-01  0.82634451754E-01 -0.98290282734E-01  0.14057687828E+00  0.45167494359E-01 0.  0.
         14    1    1    2    0    0  0.13692152165E-01 -0.27883106294E-02 -0.45102604963E-03  0.13980455342E-01  0.00000000000E+00 0.  1.
     999901    1    3    3    0    0  0.21412318548E-01 -0.79846141124E-01  0.98741308784E-01  0.88937266638E+00  0.88000000000E+00 0.  1.
        -11    1    4    4    0    0 -0.34534696689E-01  0.28287576083E-01 -0.56537947721E-01  0.72039106668E-01  0.51100000000E-03 0. -1.
         11    1    4    4    0    0 -0.56977402430E-03  0.54346875671E-01 -0.41752335013E-01  0.68537771613E-01  0.51100000000E-03 0.  1.
</event>
<event>
 8    1  0.2091070E+004  0.1043930E+01  0.7957747E-01            NaN
         13   -1    0    0    0    0  0.00000000000E+00  0.00000000000E+00  0.74505805969E-08  0.10566000000E+00  0.10566000000E+00 0. -1.
     999900   -1    0    0    0    0 -0.00000000000E+00 -0.00000000000E+00 -0.74505805969E-08  0.93827000000E+00  0.93827000000E+00 0. -1.
     999902    2    1    2    0    0  0.90310453339E-02 -0.98977131539E-02  0.52434685871E-02  0.10295418636E+01  0.10294413196E+01 0.  0.
     999903    2    3    3    0    0  0.12946045292E+00  0.26619714042E-01 -0.18447184265E-01  0.14027361853E+00  0.43217720947E-01 0.  0.
         14    1    1    2    0    0 -0.90310453339E-02  0.98977131539E-02 -0.52434685871E-02  0.14388136374E-01  0.00000000000E+00 0. -1.
     999901    1    3    3    0    0 -0.12042940758E+00 -0.36517427196E-01  0.23690652852E-01  0.88926824509E+00  0.88000000000E+00 0.  1.
        -11    1    4    4    0    0  0.61155061967E-01 -0.29338919534E-02  0.69785498558E-02  0.61623945064E-01  0.51100000000E-03 0. -1.
         11    1    4    4    0    0  0.68305390949E-01  0.29553605996E-01 -0.25425734121E-01  0.78649673468E-01  0.51100000000E-03 0.  1.
</event>
<event>
 8    1  0.2091070E+004  0.1043930E+01  0.7957747E-01            NaN
         13   -1    0    0    0    0  0.00000000000E+00  0.00000000000E+00  0.74505805969E-08  0.10566000000E+00  0.10566000000E+00 0.  1.
     999900   -1    0    0    0    0 -0.00000000000E+00 -0.00000000000E+00 -0.74505805969E-08  0.93827000000E+00  0.93827000000E+00 0. -1.
     999902    2    1    2    0    0 -0.36482273638E-02  0.90375601642E-02 -0.10407290606E-01  0.10296717128E+01  0.10295729879E+01 0.  0.
     999903    2    3    3    0    0 -0.16647367919E-01 -0.43924465780E-01 -0.12453297720E+00  0.14062805458E+00  0.45401473245E-01 0.  0.
         14    1    1    2    0    0  0.36482273638E-02 -0.90375601642E-02  0.10407290606E-01  0.14258287217E-01  0.00000000000E+00 0. -1.
     999901    1    3    3    0    0  0.12999140556E-01  0.52962025944E-01  0.11412568659E+00  0.88904365820E+00  0.88000000000E+00 0.  1.
        -11    1    4    4    0    0  0.21496592737E-02 -0.80119985323E-02 -0.79910639675E-01  0.80341674178E-01  0.51100000000E-03 0. -1.
         11    1    4    4    0    0 -0.18797027193E-01 -0.35912467248E-01 -0.44622337523E-01  0.60286380404E-01  0.51100000000E-03 0.  1.
</event>
<event>
 8    1  0.2091070E+004  0.1043930E+01  0.7957747E-01            NaN
         13   -1    0    0    0    0  0.00000000000E+00  0.00000000000E+00  0.74505805969E-08  0.10566000000E+00  0.10566000000E+00 0.  1.
     999900   -1    0    0    0    0 -0.00000000000E+00 -0.00000000000E+00 -0.74505805969E-08  0.93827000000E+00  0.93827000000E+00 0.  1.
     999902    2    1    2    0    0  0.11745535507E-01  0.22156636942E-02  0.83617229512E-02  0.10293428419E+01  0.10292394770E+01 0.  0.
     999903    2    3    3    0    0  0.71202348041E-01 -0.10770550577E+00  0.31314115193E-01  0.14021709808E+00  0.44833140023E-01 0.  0.
         14    1    1    2    0    0 -0.11745535507E-01 -0.22156636942E-02 -0.83617229512E-02  0.14587158073E-01  0.00000000000E+00 0. -1.
     999901    1    3    3    0    0 -0.59456812534E-01  0.10992116947E+00 -0.22952392242E-01  0.88912574384E+00  0.88000000000E+00 0.  1.
        -11    1    4    4    0    0  0.34943664714E-01 -0.61831945245E-01 -0.53043971524E-02  0.71222516851E-01  0.51100000000E-03 0.  1.
         11    1    4    4    0    0  0.36258683327E-01 -0.45873560528E-01  0.36618512345E-01  0.68994581233E-01  0.51100000000E-03 0. -1.
</event>
<event>
 8    1  0.2091070E+004  0.1043930E+01  0.7957747E-01            NaN
         13   -1    0    0    0    0  0.00000000000E+00  0.00000000000E+00  0.74505805969E-08  0.10566000000E+00  0.10566000000E+00 0.  1.
     999900   -1    0    0    0    0 -0.00000000000E+00 -0.00000000000E+00 -0.74505805969E-08  0.93827000000E+00  0.93827000000E+00 0. -1.
     999902    2    1    2    0    0  0.23637515809E-02 -0.10998009592E-01 -0.75803498046E-02  0.10303651469E+01  0.10302758518E+01 0.  0.
     999903    2    3    3    0    0  0.62120691439E-01 -0.96284009920E-01 -0.70935160803E-01  0.14196297120E+00  0.44632917021E-01 0.  0.
         14    1    1    2    0    0 -0.23637515809E-02  0.10998009592E-01  0.75803498046E-02  0.13564853102E-01  0.00000000000E+00 0. -1.
     999901    1    3    3    0    0 -0.59756939858E-01  0.85286000328E-01  0.63354810999E-01  0.88840217570E+00  0.88000000000E+00 0.  1.
        -11    1    4    4    0    0  0.64881801721E-01 -0.94054066079E-01 -0.74894801361E-01  0.13662103766E+00  0.51100000000E-03 0. -1.
         11    1    4    4    0    0 -0.27611102818E-02 -0.22299438406E-02  0.39596405578E-02  0.53419335327E-02  0.51100000000E-03 0.  1.
</event>
<event>
 8    1  0.2091070E+004  0.1043930E+01  0.7957747E-01            NaN
         13   -1    0    0    0    0  0.00000000000E+00  0.00000000000E+00  0.74505805969E-08  0.10566000000E+00  0.10566000000E+00 0. -1.
     999900   -1    0    0    0    0 -0.00000000000E+00 -0.00000000000E+00 -0.74505805969E-08  0.93827000000E+00  0.93827000000E+00 0. -1.
     999902    2    1    2    0    0 -0.70016466843E-02 -0.10689297858E-01 -0.56644446953E-02  0.10299525153E+01  0.10298576667E+01 0.  0.
     999903    2    3    3    0    0 -0.12815640396E+00  0.30406981676E-01  0.20376925371E-01  0.14032026972E+00  0.43885197938E-01 0.  0.
         14    1    1    2    0    0  0.70016466843E-02  0.10689297858E-01  0.56644446953E-02  0.13977484706E-01  0.00000000000E+00 0. -1.
     999901    1    3    3    0    0  0.12115475727E+00 -0.41096279534E-01 -0.26041370067E-01  0.88963224557E+00  0.88000000000E+00 0.  1.
        -11    1    4    4    0    0 -0.77758253896E-01  0.39413546305E-01  0.18304953880E-01  0.89079212720E-01  0.51100000000E-03 0. -1.
         11    1    4    4    0    0 -0.50398150062E-01 -0.90065646296E-02  0.20719714915E-02  0.51241057005E-01  0.51100000000E-03 0.  1.
</event>
<event>
 8    1  0.2091070E+004  0.1043930E+01  0.7957747E-01            NaN
         13   -1    0    0    0    0  0.00000000000E+00  0.00000000000E+00  0.74505805969E-08  0.10566000000E+00  0.10566000000E+00 0. -1.
     999900   -1    0    0    0    0 -0.00000000000E+00 -0.00000000000E+00 -0.74505805969E-08  0.93827000000E+00  0.93827000000E+00 0.  1.
     999902    2    1    2    0    0  0.64480806290E-02  0.84474121299E-02  0.90530268070E-02  0.10299695627E+01  0.10298749469E+01 0.  0.
     999903    2    3    3    0    0  0.10510545214E+00  0.58821214492E-01  0.59964106346E-01  0.14156496177E+00  0.44021051860E-01 0.  0.
         14    1    1    2    0    0 -0.64480806290E-02 -0.84474121299E-02 -0.90530268070E-02  0.13960437309E-01  0.00000000000E+00 0.  1.
     999901    1    3    3    0    0 -0.98657371513E-01 -0.50373802362E-01 -0.50911079539E-01  0.88840460092E+00  0.88000000000E+00 0.  1.
        -11    1    4    4    0    0  0.73553028039E-01  0.53006764845E-01  0.61311050533E-01  0.10944894285E+00  0.51100000000E-03 0.  1.
         11    1    4    4    0    0  0.31552424103E-01  0.58144496468E-02 -0.13469441877E-02  0.32116018918E-01  0.51100000000E-03 0. -1.
</event>
<event>
 8    1  0.2091070E+004  0.1043930E+01  0.7957747E-01            NaN
         13   -1    0    0    0    0  0.00000000000E+00  0.00000000000E+00  0.74505805969E-08  0.10566000000E+00  0.10566000000E+00 0.  1.
     999900   -1    0    0    0    0 -0.00000000000E+00 -0.00000000000E+00 -0.74505805969E-08  0.93827000000E+00  0.93827000000E+00 0.  1.
     999902    2    1    2    0    0 -0.56169149730E-02  0.13527360190E-01 -0.52145064116E-02  0.10283823222E+01  0.10282647861E+01 0.  0.
     999903    2    3    3    0    0  0.17341974829E-01  0.51918873078E-01  0.12137227359E+00  0.13819962649E+00  0.37035044146E-01 0.  0.
         14    1    1    2    0    0  0.56169149730E-02 -0.13527360190E-01  0.52145064116E-02  0.15547677789E-01  0.00000000000E+00 0.  1.
     999901    1    3    3    0    0 -0.22958889802E-01 -0.38391512888E-01 -0.12658678000E+00  0.89018269572E+00  0.88000000000E+00 0.  1.
        -11    1    4    4    0    0  0.17093316160E-01  0.17373314472E-01  0.83270781925E-01  0.86765763735E-01  0.51100000000E-03 0.  1.
         11    1    4    4    0    0  0.24865866902E-03  0.34545558606E-01  0.38101491662E-01  0.51433862760E-01  0.51100000000E-03 0. -1.
</event>
<event>
 8    1  0.2091070E+004  0.1043930E+01  0.7957747E-01            NaN
         13   -1    0    0    0    0  0.00000000000E+00  0.00000000000E+00  0.74505805969E-08  0.10566000000E+00  0.10566000000E+00 0.  1.
     999900   -1    0    0    0    0 -0.00000000000E+00 -0.00000000000E+00 -0.74505805969E-08  0.93827000000E+00  0.93827000000E+00 0. -1.
     999902    2    1    2    0    0 -0.19591348226E-02 -0.25525421204E-02  0.16607060281E-01  0.10270140864E+01  0.10268747663E+01 0.  0.
     999903    2    3    3    0    0  0.11834695210E+00 -0.26340149290E-01 -0.43177624066E-01  0.13650096846E+00  0.45479694746E-01 0.  0.
         14    1    1    2    0    0  0.19591348226E-02  0.25525421204E-02 -0.16607060281E-01  0.16915913564E-01  0.00000000000E+00 0. -1.
     999901    1    3    3    0    0 -0.12030608692E+00  0.23787607170E-01  0.59784684347E-01  0.89051311798E+00  0.88000000000E+00 0.  1.
        -11    1    4    4    0    0  0.47932354736E-01 -0.12493070983E-01 -0.41650835201E-01  0.64719708336E-01  0.51100000000E-03 0.  1.
         11    1    4    4    0    0  0.70414597365E-01 -0.13847078307E-01 -0.15267888655E-02  0.71781260124E-01  0.51100000000E-03 0. -1.
</event>
<event>
 8    1  0.2091070E+004  0.1043930E+01  0.7957747E-01            NaN
         13   -1    0    0    0    0  0.00000000000E+00  0.00000000000E+00  0.74505805969E-08  0.10566000000E+00  0.10566000000E+00 0. -1.
     999900   -1    0    0    0    0 -0.00000000000E+00 -0.00000000000E+00 -0.74505805969E-08  0.93827000000E+00  0.93827000000E+00 0.  1.
     999902    2    1    2    0    0  0.89464108590E-02  0.10027292709E-01  0.38244961549E-02  0.10299581842E+01  0.10298634130E+01 0.  0.
     999903    2    3    3    0    0  0.45053889281E-01 -0.97328270713E-01 -0.76145800949E-01  0.13910229493E+00  0.45261686162E-01 0.  0.
         14    1    1    2    0    0 -0.89464108590E-02 -0.10027292709E-01 -0.38244961549E-02  0.13971815815E-01  0.00000000000E+00 0. -1.
     999901    1    3    3    0    0 -0.36107478422E-01  0.10735556342E+00  0.79970297104E-01  0.89085588925E+00  0.88000000000E+00 0. -1.
        -11    1    4    4    0    0  0.31760720149E-01 -0.83620093377E-01 -0.39513518051E-01  0.97788765155E-01  0.51100000000E-03 0.  1.
         11    1    4    4    0    0  0.13293169131E-01 -0.13708177337E-01 -0.36632282898E-01  0.41313529779E-01  0.51100000000E-03 0. -1.
</event>
<event>
 8    1  0.2091070E+004  0.1043930E+01  0.7957747E-01            NaN
         13   -1    0    0    0    0  0.00000000000E+00  0.00000000000E+00  0.74505805969E-08  0.10566000000E+00  0.10566000000E+00 0.  1.
     999900   -1    0    0    0    0 -0.00000000000E+00 -0.00000000000E+00 -0.74505805969E-08  0.93827000000E+00  0.93827000000E+00 0. -1.
     999902    2    1    2    0    0 -0.11186938624E-01  0.46279363096E-02 -0.76559618633E-02  0.10296059244E+01  0.10295062799E+01 0.  0.
     999903    2    3    3    0    0  0.24475205877E-01  0.11407983208E-01  0.12828356762E+00  0.13842843742E+00  0.44458753721E-01 0.  0.
         14    1    1    2    0    0  0.11186938624E-01 -0.46279363096E-02  0.76559618633E-02  0.14324075619E-01  0.00000000000E+00 0. -1.
     999901    1    3    3    0    0 -0.35662144502E-01 -0.67800468983E-02 -0.13593952948E+00  0.89117748696E+00  0.88000000000E+00 0. -1.
        -11    1    4    4    0    0 -0.41681558589E-02  0.18298839158E-01  0.26575229730E-01  0.32538054551E-01  0.51100000000E-03 0. -1.
         11    1    4    4    0    0  0.28643361736E-01 -0.68908559501E-02  0.10170833789E+00  0.10589038287E+00  0.51100000000E-03 0.  1.
</event>
<event>
 8    1  0.2091070E+004  0.1043930E+01  0.7957747E-01            NaN
         13   -1    0    0    0    0  0.00000000000E+00  0.00000000000E+00  0.74505805969E-08  0.10566000000E+00  0.10566000000E+00 0. -1.
     999900   -1    0    0    0    0 -0.00000000000E+00 -0.00000000000E+00 -0.74505805969E-08  0.93827000000E+00  0.93827000000E+00 0.  1.
     999902    2    1    2    0    0  0.58862505680E-02  0.10271470650E-01 -0.67957158272E-02  0.10302796224E+01  0.10301891902E+01 0.  0.
     999903    2    3    3    0    0  0.14833869063E-01  0.11953968249E+00 -0.60003430745E-01  0.14188181571E+00  0.44947286539E-01 0.  0.
         14    1    1    2    0    0 -0.58862505680E-02 -0.10271470650E-01  0.67957158272E-02  0.13650377601E-01  0.00000000000E+00 0.  1.
     999901    1    3    3    0    0 -0.89476184952E-02 -0.10926821184E+00  0.53207714918E-01  0.88839780669E+00  0.88000000000E+00 0.  1.
        -11    1    4    4    0    0 -0.10706062639E-02 -0.23959220785E-02 -0.78805665834E-02  0.83217240433E-02  0.51100000000E-03 0. -1.
         11    1    4    4    0    0  0.15904475327E-01  0.12193560457E+00 -0.52122864162E-01  0.13356009167E+00  0.51100000000E-03 0.  1.
</event>
<event>
 8    1  0.2091070E+004  0.1043930E+01  0.7957747E-01            NaN
         13   -1    0    0    0    0  0.00000000000E+00  0.00000000000E+00  0.74505805969E-08  0.10566000000E+00  0.10566000000E+00 0. -1.
     999900   -1    0    0    0    0 -0.00000000000E+00 -0.00000000000E+00 -0.74505805969E-08  0.93827000000E+00  0.93827000000E+00 0.  1.
     999902    2    1    2    0    0  0.10005685421E-01 -0.30396155781E-02  0.93346500556E-02  0.10299125575E+01  0.10298171621E+01 0.  0.
     999903    2    3    3    0    0 -0.10052929065E+00  0.58360637890E-01 -0.59863188824E-01  0.13818596654E+00  0.44717531661E-01 0.  0.
         14    1    1    2    0    0 -0.10005685421E-01  0.30396155781E-02 -0.93346500556E-02  0.14017442537E-01  0.00000000000E+00 0.  1.
     999901    1    3    3    0    0  0.11053497607E+00 -0.61400253468E-01  0.69197838879E-01  0.89172659093E+00  0.88000000000E+00 0.  1.
        -11    1    4    4    0    0 -0.77411700556E-02  0.29530230237E-03 -0.20403610326E-01  0.21830743291E-01  0.51100000000E-03 0. -1.
         11    1    4    4    0    0 -0.92788120594E-01  0.58065335588E-01 -0.39459578497E-01  0.11635522325E+00  0.51100000000E-03 0.  1.
</event>
<event>
 8    1  0.2091070E+004  0.1043930E+01  0.7957747E-01            NaN
         13   -1    0    0    0    0  0.00000000000E+00  0.00000000000E+00  0.74505805969E-08  0.10566000000E+00  0.10566000000E+00 0.  1.
     999900   -1    0    0    0    0 -0.00000000000E+00 -0.00000000000E+00 -0.74505805969E-08  0.93827000000E+00  0.93827000000E+00 0.  1.
     999902    2    1    2    0    0  0.50814857582E-02 -0.97564391008E-03 -0.13458407233E-01  0.10295111892E+01  0.10294102130E+01 0.  0.
     999903    2    3    3    0    0 -0.72915341185E-01  0.14463833572E-01  0.10649428328E+00  0.13782148399E+00  0.46128945544E-01 0.  0.
         14    1    1    2    0    0 -0.50814857582E-02  0.97564391008E-03  0.13458407233E-01  0.14418810763E-01  0.00000000000E+00 0.  1.
     999901    1    3    3    0    0  0.77996826944E-01 -0.15439477482E-01 -0.11995269051E+00  0.89168970524E+00  0.88000000000E+00 0.  1.
        -11    1    4    4    0    0 -0.25459199321E-01 -0.10990900661E-01  0.14685526666E-01  0.31383061384E-01  0.51100000000E-03 0.  1.
         11    1    4    4    0    0 -0.47456141865E-01  0.25454734232E-01  0.91808756613E-01  0.10643842261E+00  0.51100000000E-03 0. -1.
</event>
<event>
 8    1  0.2898035E+004  0.1043930E+01  0.7957747E-01            NaN
         13   -1    0    0    0    0  0.00000000000E+00  0.00000000000E+00  0.74505805969E-08  0.10566000000E+00  0.10566000000E+00 0. -1.
     999900   -1    0    0    0    0 -0.00000000000E+00 -0.00000000000E+00 -0.74505805969E-08  0.93827000000E+00  0.93827000000E+00 0.  1.
     999902    2    1    2    0    0 -0.10710144381E-01  0.22731511200E-01  0.70819041655E-03  0.10187917756E+01  0.10184815912E+01 0.  0.
     999903    2    3    3    0    0 -0.65064674861E-01  0.77996016710E-01  0.71785990622E-01  0.13252960542E+00  0.45761089640E-01 0.  0.
         14    1    1    2    0    0  0.10710144381E-01 -0.22731511200E-01 -0.70819041655E-03  0.25138224435E-01  0.00000000000E+00 0. -1.
     999901    1    3    3    0    0  0.54354530480E-01 -0.55264505510E-01 -0.71077800205E-01  0.88626217015E+00  0.88000000000E+00 0.  1.
        -11    1    4    4    0    0 -0.48320834151E-01  0.23191980827E-01  0.28459469903E-01  0.60687507248E-01  0.51100000000E-03 0.  1.
         11    1    4    4    0    0 -0.16743840710E-01  0.54804035883E-01  0.43326520719E-01  0.71842098169E-01  0.51100000000E-03 0. -1.
</event>
<event>
 8    1  0.2091070E+004  0.1043930E+01  0.7957747E-01            NaN
         13   -1    0    0    0    0  0.00000000000E+00  0.00000000000E+00  0.74505805969E-08  0.10566000000E+00  0.10566000000E+00 0.  1.
     999900   -1    0    0    0    0 -0.00000000000E+00 -0.00000000000E+00 -0.74505805969E-08  0.93827000000E+00  0.93827000000E+00 0. -1.
     999902    2    1    2    0    0 -0.14231751727E-01  0.29035317804E-02  0.91485153669E-03  0.10293762992E+01  0.10292734113E+01 0.  0.
     999903    2    3    3    0    0  0.56751613497E-02 -0.23825565800E-01 -0.12932927734E+00  0.13916606393E+00  0.45180375497E-01 0.  0.
         14    1    1    2    0    0  0.14231751727E-01 -0.29035317804E-02 -0.91485153669E-03  0.14553700813E-01  0.00000000000E+00 0. -1.
     999901    1    3    3    0    0 -0.19906913076E-01  0.26729097580E-01  0.13024412888E+00  0.89021023526E+00  0.88000000000E+00 0.  1.
        -11    1    4    4    0    0 -0.17316835268E-01 -0.17439812063E-01 -0.42308897000E-01  0.48931827218E-01  0.51100000000E-03 0.  1.
         11    1    4    4    0    0  0.22991996618E-01 -0.63857537368E-02 -0.87020380344E-01  0.90234236714E-01  0.51100000000E-03 0. -1.
</event>
<event>
 8    1  0.2091070E+004  0.1043930E+01  0.7957747E-01            NaN
         13   -1    0    0    0    0  0.00000000000E+00  0.00000000000E+00  0.74505805969E-08  0.10566000000E+00  0.10566000000E+00 0.  1.
     999900   -1    0    0    0    0 -0.00000000000E+00 -0.00000000000E+00 -0.74505805969E-08  0.93827000000E+00  0.93827000000E+00 0.  1.
     999902    2    1    2    0    0  0.10794444387E-01  0.81553722558E-02 -0.11792005186E-02  0.10303498439E+01  0.10302603458E+01 0.  0.
     999903    2    3    3    0    0 -0.33011221511E-02  0.10929723693E+00 -0.77425271675E-01  0.14116942060E+00  0.44467394910E-01 0.  0.
         14    1    1    2    0    0 -0.10794444387E-01 -0.81553722558E-02  0.11792005186E-02  0.13580156116E-01  0.00000000000E+00 0. -1.
     999901    1    3    3    0    0  0.14095566538E-01 -0.10114186468E+00  0.76246071157E-01  0.88918042328E+00  0.88000000000E+00 0. -1.
        -11    1    4    4    0    0  0.82708150437E-02  0.46181946364E-01 -0.97761035416E-02  0.47927151729E-01  0.51100000000E-03 0.  1.
         11    1    4    4    0    0 -0.11571937195E-01  0.63115290568E-01 -0.67649168134E-01  0.93242268870E-01  0.51100000000E-03 0. -1.
</event>
<event>
 8    1  0.2091070E+004  0.1043930E+01  0.7957747E-01            NaN
         13   -1    0    0    0    0  0.00000000000E+00  0.00000000000E+00  0.74505805969E-08  0.10566000000E+00  0.10566000000E+00 0.  1.
     999900   -1    0    0    0    0 -0.00000000000E+00 -0.00000000000E+00 -0.74505805969E-08  0.93827000000E+00  0.93827000000E+00 0. -1.
     999902    2    1    2    0    0 -0.23845266350E-02 -0.22838657060E-01 -0.15940327775E-01  0.10159767484E+01  0.10155921273E+01 0.  0.
     999903    2    3    3    0    0 -0.34965053595E-01 -0.11669550478E+00 -0.12771221727E-01  0.13038054144E+00  0.44671978627E-01 0.  0.
         14    1    1    2    0    0  0.23845266350E-02  0.22838657060E-01  0.15940327775E-01  0.27953251567E-01  0.00000000000E+00 0. -1.
     999901    1    3    3    0    0  0.32580526960E-01  0.93856847718E-01 -0.31691060481E-02  0.88559620699E+00  0.88000000000E+00 0.  1.
        -11    1    4    4    0    0 -0.11584712655E-01 -0.15841385790E-02 -0.47927831315E-02  0.12647013619E-01  0.51100000000E-03 0.  1.
         11    1    4    4    0    0 -0.23380340941E-01 -0.11511136620E+00 -0.79784385951E-02  0.11773352783E+00  0.51100000000E-03 0. -1.
</event>
<event>
 8    1  0.2091070E+004  0.1043930E+01  0.7957747E-01            NaN
         13   -1    0    0    0    0  0.00000000000E+00  0.00000000000E+00  0.74505805969E-08  0.10566000000E+00  0.10566000000E+00 0. -1.
     999900   -1    0    0    0    0 -0.00000000000E+00 -0.00000000000E+00 -0.74505805969E-08  0.93827000000E+00  0.93827000000E+00 0. -1.
     999902    2    1    2    0    0  0.79875588068E-02 -0.51173985145E-02  0.96597086715E-02  0.10303912100E+01  0.10303022599E+01 0.  0.
     999903    2    3    3    0    0  0.12438303406E+00 -0.25804254742E-01 -0.41400001266E-01  0.14101898946E+00  0.45115369424E-01 0.  0.
         14    1    1    2    0    0 -0.79875588068E-02  0.51173985145E-02 -0.96597086715E-02  0.13538790008E-01  0.00000000000E+00 0.  1.
     999901    1    3    3    0    0 -0.11639547525E+00  0.20686856227E-01  0.51059709938E-01  0.88937222053E+00  0.88000000000E+00 0.  1.
        -11    1    4    4    0    0  0.14328371524E-01 -0.24635009301E-02  0.96681170440E-02  0.17467245791E-01  0.51100000000E-03 0.  1.
         11    1    4    4    0    0  0.11005466254E+00 -0.23340753812E-01 -0.51068118310E-01  0.12355174367E+00  0.51100000000E-03 0. -1.
</event>
<event>
 8    1  0.2091070E+004  0.1043930E+01  0.7957747E-01            NaN
         13   -1    0    0    0    0  0.00000000000E+00  0.00000000000E+00  0.74505805969E-08  0.10566000000E+00  0.10566000000E+00 0. -1.
     999900   -1    0    0    0    0 -0.00000000000E+00 -0.00000000000E+00 -0.74505805969E-08  0.93827000000E+00  0.93827000000E+00 0.  1.
     999902    2    1    2    0    0 -0.64691916332E-02 -0.97809944985E-02  0.89101979390E-02  0.10292021379E+01  0.10290967548E+01 0.  0.
     999903    2    3    3    0    0  0.25781477474E-01  0.12595918178E+00  0.22522868189E-01  0.13810685352E+00  0.45120099095E-01 0.  0.
         14    1    1    2    0    0  0.64691916332E-02  0.97809944985E-02 -0.89101979390E-02  0.14727862068E-01  0.00000000000E+00 0.  1.
     999901    1    3    3    0    0 -0.32250669107E-01 -0.13574017628E+00 -0.13612670250E-01  0.89109528441E+00  0.88000000000E+00 0. -1.
        -11    1    4    4    0    0  0.14410670732E-01  0.63350573433E-01  0.34179850260E-01  0.73413117833E-01  0.51100000000E-03 0.  1.
         11    1    4    4    0    0  0.11370806742E-01  0.62608608345E-01 -0.11656982071E-01  0.64693735685E-01  0.51100000000E-03 0. -1.
</event>
<event>
 8    1  0.2091070E+004  0.1043930E+01  0.7957747E-01            NaN
         13   -1    0    0    0    0  0.00000000000E+00  0.00000000000E+00  0.74505805969E-08  0.10566000000E+00  0.10566000000E+00 0.  1.
     999900   -1    0    0    0    0 -0.00000000000E+00 -0.00000000000E+00 -0.74505805969E-08  0.93827000000E+00  0.93827000000E+00 0.  1.
     999902    2    1    2    0    0  0.67036187753E-02  0.92859630942E-03  0.11770536832E-01  0.10303525800E+01  0.10302631183E+01 0.  0.
     999903    2    3    3    0    0  0.73502018211E-01  0.10742677712E+00  0.23455815203E-01  0.14134164960E+00  0.49842025657E-01 0.  0.
         14    1    1    2    0    0 -0.67036187753E-02 -0.92859630942E-03 -0.11770536832E-01  0.13577419972E-01  0.00000000000E+00 0. -1.
     999901    1    3    3    0    0 -0.66798399436E-01 -0.10649818081E+00 -0.11685278371E-01  0.88901093042E+00  0.88000000000E+00 0. -1.
        -11    1    4    4    0    0  0.52607633305E-01  0.35615973408E-01  0.21203550913E-02  0.63567426174E-01  0.51100000000E-03 0.  1.
         11    1    4    4    0    0  0.20894384907E-01  0.71810803715E-01  0.21335460112E-01  0.77774223429E-01  0.51100000000E-03 0. -1.
</event>
<event>
 8    1  0.2091070E+004  0.1043930E+01  0.7957747E-01            NaN
         13   -1    0    0    0    0  0.00000000000E+00  0.00000000000E+00  0.74505805969E-08  0.10566000000E+00  0.10566000000E+00 0. -1.
     999900   -1    0    0    0    0 -0.00000000000E+00 -0.00000000000E+00 -0.74505805969E-08  0.93827000000E+00  0.93827000000E+00 0. -1.
     999902    2    1    2    0    0  0.61577011947E-02 -0.10547185289E-01 -0.56015537539E-02  0.10304935642E+01  0.10304059628E+01 0.  0.
     999903    2    3    3    0    0  0.44949569268E-01 -0.29777484898E-02  0.12485374178E+00  0.13999893229E+00  0.44518686424E-01 0.  0.
         14    1    1    2    0    0 -0.61577011947E-02  0.10547185289E-01  0.56015537539E-02  0.13436435762E-01  0.00000000000E+00 0. -1.
     999901    1    3    3    0    0 -0.38791868073E-01 -0.75694367991E-02 -0.13045529554E+00  0.89049463195E+00  0.88000000000E+00 0. -1.
        -11    1    4    4    0    0  0.48569028060E-01  0.10182801203E-01  0.10009622763E+00  0.11172356884E+00  0.51100000000E-03 0. -1.
         11    1    4    4    0    0 -0.36194587922E-02 -0.13160549693E-01  0.24757514152E-01  0.28275363449E-01  0.51100000000E-03 0.  1.
</event>
<event>
 8    1  0.2091070E+004  0.1043930E+01  0.7957747E-01            NaN
         13   -1    0    0    0    0  0.00000000000E+00  0.00000000000E+00  0.74505805969E-08  0.10566000000E+00  0.10566000000E+00 0.  1.
     999900   -1    0    0    0    0 -0.00000000000E+00 -0.00000000000E+00 -0.74505805969E-08  0.93827000000E+00  0.93827000000E+00 0.  1.
     999902    2    1    2    0    0 -0.13720616629E-02  0.55180137252E-02 -0.12926176250E-01  0.10298084894E+01  0.10297116625E+01 0.  0.
     999903    2    3    3    0    0 -0.13725103618E-01 -0.12275992804E+00  0.43184328677E-01  0.13865406018E+00  0.45844124587E-01 0.  0.
         14    1    1    2    0    0  0.13720616629E-02 -0.55180137252E-02  0.12926176250E-01  0.14121510582E-01  0.00000000000E+00 0.  1.
     999901    1    3    3    0    0  0.12353041955E-01  0.12827794177E+00 -0.56110504926E-01  0.89115442924E+00  0.88000000000E+00 0.  1.
        -11    1    4    4    0    0  0.31651535232E-03 -0.11590223117E+00  0.40587014440E-01  0.12280469957E+00  0.51100000000E-03 0. -1.
         11    1    4    4    0    0 -0.14041618971E-01 -0.68576968656E-02  0.25973142364E-02  0.15849360614E-01  0.51100000000E-03 0.  1.
</event>
<event>
 8    1  0.2091070E+004  0.1043930E+01  0.7957747E-01            NaN
         13   -1    0    0    0    0  0.00000000000E+00  0.00000000000E+00  0.74505805969E-08  0.10566000000E+00  0.10566000000E+00 0.  1.
     999900   -1    0    0    0    0 -0.00000000000E+00 -0.00000000000E+00 -0.74505805969E-08  0.93827000000E+00  0.93827000000E+00 0.  1.
     999902    2    1    2    0    0  0.13435110788E-01  0.42232900255E-02  0.10461149525E-02  0.10298079344E+01  0.10297110998E+01 0.  0.
     999903    2    3    3    0    0 -0.10025961408E+00  0.17949996801E-01 -0.83225818769E-01  0.13839519511E+00  0.43040684469E-01 0.  0.
         14    1    1    2    0    0 -0.13435110788E-01 -0.42232900255E-02 -0.10461149525E-02  0.14122065607E-01  0.00000000000E+00 0. -1.
     999901    1    3    3    0    0  0.11369472487E+00 -0.13726706775E-01  0.84271933722E-01  0.89141273928E+00  0.88000000000E+00 0. -1.
        -11    1    4    4    0    0 -0.36638055297E-01 -0.13967001316E-01 -0.33386536032E-01  0.51500933302E-01  0.51100000000E-03 0. -1.
         11    1    4    4    0    0 -0.63621558782E-01  0.31916998117E-01 -0.49839282737E-01  0.86894261809E-01  0.51100000000E-03 0.  1.
</event>
<event>
 8    1  0.2091070E+004  0.1043930E+01  0.7957747E-01            NaN
         13   -1    0    0    0    0  0.00000000000E+00  0.00000000000E+00  0.74505805969E-08  0.10566000000E+00  0.10566000000E+00 0. -1.
     999900   -1    0    0    0    0 -0.00000000000E+00 -0.00000000000E+00 -0.74505805969E-08  0.93827000000E+00  0.93827000000E+00 0.  1.
     999902    2    1    2    0    0 -0.17980075240E-02  0.70899193592E-02 -0.11762411286E-01  0.10300788590E+01  0.10299857289E+01 0.  0.
     999903    2    3    3    0    0  0.11790770393E+00 -0.58905684600E-01  0.11083091080E-01  0.13923274767E+00  0.43483523225E-01 0.  0.
         14    1    1    2    0    0  0.17980075240E-02 -0.70899193592E-02  0.11762411286E-01  0.13851140994E-01  0.00000000000E+00 0. -1.
     999901    1    3    3    0    0 -0.11970571146E+00  0.65995603959E-01 -0.22845502367E-01  0.89084611133E+00  0.88000000000E+00 0.  1.
        -11    1    4    4    0    0  0.54213398131E-01 -0.39227330230E-01  0.24437881153E-01  0.71241470578E-01  0.51100000000E-03 0.  1.
         11    1    4    4    0    0  0.63694305801E-01 -0.19678354370E-01 -0.13354790072E-01  0.67991277095E-01  0.51100000000E-03 0. -1.
</event>
<event>
 8    1  0.2091070E+004  0.1043930E+01  0.7957747E-01            NaN
         13   -1    0    0    0    0  0.00000000000E+00  0.00000000000E+00  0.74505805969E-08  0.10566000000E+00  0.10566000000E+00 0.  1.
     999900   -1    0    0    0    0 -0.00000000000E+00 -0.00000000000E+00 -0.74505805969E-08  0.93827000000E+00  0.93827000000E+00 0. -1.
     999902    2    1    2    0    0  0.24517027274E-02 -0.45645624824E-02  0.12814521719E-01  0.10301076252E+01  0.10300148841E+01 0.  0.
     999903    2    3    3    0    0 -0.13089943545E+00 -0.11947906417E-01  0.17490947217E-01  0.14001835513E+00  0.44964339990E-01 0.  0.
         14    1    1    2    0    0 -0.24517027274E-02  0.45645624824E-02 -0.12814521719E-01  0.13822374753E-01  0.00000000000E+00 0. -1.
     999901    1    3    3    0    0  0.13335113817E+00  0.73833439343E-02 -0.46764254972E-02  0.89008927012E+00  0.88000000000E+00 0.  1.
        -11    1    4    4    0    0 -0.34749348815E-01  0.68348129572E-02 -0.12503086234E-01  0.37560886539E-01  0.51100000000E-03 0. -1.
         11    1    4    4    0    0 -0.96150086633E-01 -0.18782719374E-01  0.29994033451E-01  0.10245746859E+00  0.51100000000E-03 0.  1.
</event>
<event>
 8    1  0.2091070E+004  0.1043930E+01  0.7957747E-01            NaN
         13   -1    0    0    0    0  0.00000000000E+00  0.00000000000E+00  0.74505805969E-08  0.10566000000E+00  0.10566000000E+00 0.  1.
     999900   -1    0    0    0    0 -0.00000000000E+00 -0.00000000000E+00 -0.74505805969E-08  0.93827000000E+00  0.93827000000E+00 0. -1.
     999902    2    1    2    0    0 -0.92948688371E-02  0.65962072992E-02  0.77546636423E-02  0.10301445241E+01  0.10300522808E+01 0.  0.
     999903    2    3    3    0    0 -0.66614187904E-01  0.10851747773E+00 -0.41691353882E-01  0.14103353084E+00  0.44031747970E-01 0.  0.
         14    1    1    2    0    0  0.92948688371E-02 -0.65962072992E-02 -0.77546636423E-02  0.13785475894E-01  0.00000000000E+00 0. -1.
     999901    1    3    3    0    0  0.57319319067E-01 -0.10192127043E+00  0.49446017525E-01  0.88911099327E+00  0.88000000000E+00 0.  1.
        -11    1    4    4    0    0 -0.24767627378E-01  0.10763537121E-01 -0.54734232436E-03  0.27015732489E-01  0.51100000000E-03 0.  1.
         11    1    4    4    0    0 -0.41846560525E-01  0.97753940606E-01 -0.41144011558E-01  0.11401779835E+00  0.51100000000E-03 0. -1.
</event>
<event>
 8    1  0.2091070E+004  0.1043930E+01  0.7957747E-01            NaN
         13   -1    0    0    0    0  0.00000000000E+00  0.00000000000E+00  0.74505805969E-08  0.10566000000E+00  0.10566000000E+00 0.  1.
     999900   -1    0    0    0    0 -0.00000000000E+00 -0.00000000000E+00 -0.74505805969E-08  0.93827000000E+00  0.93827000000E+00 0.  1.
     999902    2    1    2    0    0 -0.14047671180E-01 -0.37892915446E-02  0.53941527421E-02  0.10284125041E+01  0.10282954273E+01 0.  0.
     999903    2    3    3    0    0  0.11501826307E+00 -0.58757654005E-01  0.10373612677E-01  0.13728718669E+00  0.45370662838E-01 0.  0.
         14    1    1    2    0    0  0.14047671180E-01  0.37892915446E-02 -0.53941527421E-02  0.15517495925E-01  0.00000000000E+00 0. -1.
     999901    1    3    3    0    0 -0.12906593425E+00  0.54968362460E-01 -0.49794599347E-02  0.89112531738E+00  0.88000000000E+00 0. -1.
        -11    1    4    4    0    0  0.61365853959E-01 -0.30732762687E-01 -0.17221652864E-01  0.70760986305E-01  0.51100000000E-03 0. -1.
         11    1    4    4    0    0  0.53652409112E-01 -0.28024891318E-01  0.27595265541E-01  0.66526200389E-01  0.51100000000E-03 0.  1.
</event>
<event>
 8    1  0.2091070E+004  0.1043930E+01  0.7957747E-01            NaN
         13   -1    0    0    0    0  0.00000000000E+00  0.00000000000E+00  0.74505805969E-08  0.10566000000E+00  0.10566000000E+00 0. -1.
     999900   -1    0    0    0    0 -0.00000000000E+00 -0.00000000000E+00 -0.74505805969E-08  0.93827000000E+00  0.93827000000E+00 0. -1.
     999902    2    1    2    0    0 -0.24851913539E-02 -0.62411572479E-02  0.11737092844E-01  0.10304064070E+01  0.10303176578E+01 0.  0.
     999903    2    3    3    0    0  0.34369287106E-01 -0.43810076470E-01  0.12315734636E+00  0.14182093041E+00  0.42951992308E-01 0.  0.
         14    1    1    2    0    0  0.24851913539E-02  0.62411572479E-02 -0.11737092844E-01  0.13523593024E-01  0.00000000000E+00 0. -1.
     999901    1    3    3    0    0 -0.36854478460E-01  0.37568919222E-01 -0.11142025351E+00  0.88858547657E+00  0.88000000000E+00 0. -1.
        -11    1    4    4    0    0 -0.55744935879E-02 -0.25225336915E-01  0.53251035868E-01  0.59188905576E-01  0.51100000000E-03 0.  1.
         11    1    4    4    0    0  0.39943780694E-01 -0.18584739555E-01  0.69906310491E-01  0.82632024832E-01  0.51100000000E-03 0. -1.
</event>
<event>
 8    1  0.2091070E+004  0.1043930E+01  0.7957747E-01            NaN
         13   -1    0    0    0    0  0.00000000000E+00  0.00000000000E+00  0.74505805969E-08  0.10566000000E+00  0.10566000000E+00 0.  1.
     999900   -1    0    0    0    0 -0.00000000000E+00 -0.00000000000E+00 -0.74505805969E-08  0.93827000000E+00  0.93827000000E+00 0. -1.
     999902    2    1    2    0    0 -0.54103998370E-02 -0.11515752477E-02  0.14251137291E-01  0.10286429641E+01  0.10285293648E+01 0.  0.
     999903    2    3    3    0    0 -0.88093140004E-01 -0.69003686917E-01 -0.67217372130E-01  0.13843093173E+00  0.46076432373E-01 0.  0.
         14    1    1    2    0    0  0.54103998370E-02  0.11515752477E-02 -0.14251137291E-01  0.15287035881E-01  0.00000000000E+00 0. -1.
     999901    1    3    3    0    0  0.82682740167E-01  0.67852111670E-01  0.81468509420E-01  0.89021203239E+00  0.88000000000E+00 0.  1.
        -11    1    4    4    0    0 -0.46968486834E-01 -0.35455037857E-01 -0.61381457212E-01  0.85035538896E-01  0.51100000000E-03 0.  1.
         11    1    4    4    0    0 -0.41124653170E-01 -0.33548649061E-01 -0.58359149174E-02  0.53395392836E-01  0.51100000000E-03 0. -1.
</event>
<event>
 8    1  0.2091070E+004  0.1043930E+01  0.7957747E-01            NaN
         13   -1    0    0    0    0  0.00000000000E+00  0.00000000000E+00  0.74505805969E-08  0.10566000000E+00  0.10566000000E+00 0.  1.
     999900   -1    0    0    0    0 -0.00000000000E+00 -0.00000000000E+00 -0.74505805969E-08  0.93827000000E+00  0.93827000000E+00 0. -1.
     999902    2    1    2    0    0  0.13359004859E-01  0.21810315271E-04  0.28581716986E-02  0.10302686446E+01  0.10301780659E+01 0.  0.
     999903    2    3    3    0    0 -0.12028462026E+00  0.22427218292E-01 -0.46882869561E-01  0.13850814308E+00  0.44890224451E-01 0.  0.
         14    1    1    2    0    0 -0.13359004859E-01 -0.21810315271E-04 -0.28581716986E-02  0.13661355422E-01  0.00000000000E+00 0.  1.
     999901    1    3    3    0    0  0.13364362512E+00 -0.22405407977E-01  0.49741041260E-01  0.89176050149E+00  0.88000000000E+00 0.  1.
        -11    1    4    4    0    0 -0.10922595547E+00  0.33915974236E-01 -0.41582948670E-01  0.12169636559E+00  0.51100000000E-03 0.  1.
         11    1    4    4    0    0 -0.11058664788E-01 -0.11488755944E-01 -0.52999208915E-02  0.16811777494E-01  0.51100000000E-03 0. -1.
</event>
<event>
 8    1  0.2091070E+004  0.1043930E+01  0.7957747E-01            NaN
         13   -1    0    0    0    0  0.00000000000E+00  0.00000000000E+00  0.74505805969E-08  0.10566000000E+00  0.10566000000E+00 0. -1.
     999900   -1    0    0    0    0 -0.00000000000E+00 -0.00000000000E+00 -0.74505805969E-08  0.93827000000E+00  0.93827000000E+00 0. -1.
     999902    2    1    2    0    0  0.13620336199E-01  0.39624126628E-02  0.10026721189E-01  0.10265590642E+01  0.10264120824E+01 0.  0.
     999903    2    3    3    0    0  0.11415200603E+00 -0.27615180014E-01  0.58801047550E-01  0.13893149822E+00  0.45289285248E-01 0.  0.
         14    1    1    2    0    0 -0.13620336199E-01 -0.39624126628E-02 -0.10026721189E-01  0.17370935786E-01  0.00000000000E+00 0.  1.
     999901    1    3    3    0    0 -0.10053166983E+00  0.31577592676E-01 -0.48774326361E-01  0.88762756599E+00  0.88000000000E+00 0. -1.
        -11    1    4    4    0    0  0.53719051288E-01 -0.25791755231E-01  0.83288184891E-02  0.60171267625E-01  0.51100000000E-03 0.  1.
         11    1    4    4    0    0  0.60432954738E-01 -0.18234247826E-02  0.50472229061E-01  0.78760230597E-01  0.51100000000E-03 0. -1.
</event>
<event>
 8    1  0.2091070E+004  0.1043930E+01  0.7957747E-01            NaN
         13   -1    0    0    0    0  0.00000000000E+00  0.00000000000E+00  0.74505805969E-08  0.10566000000E+00  0.10566000000E+00 0.  1.
     999900   -1    0    0    0    0 -0.00000000000E+00 -0.00000000000E+00 -0.74505805969E-08  0.93827000000E+00  0.93827000000E+00 0. -1.
     999902    2    1    2    0    0  0.79271455836E-02 -0.52522618175E-02 -0.10248815565E-01  0.10299491520E+01  0.10298542574E+01 0.  0.
     999903    2    3    3    0    0 -0.57420064215E-01  0.10590012555E+00  0.51270733857E-01  0.13842811127E+00  0.44963912991E-01 0.  0.
         14    1    1    2    0    0 -0.79271455836E-02  0.52522618175E-02  0.10248815565E-01  0.13980848035E-01  0.00000000000E+00 0.  1.
     999901    1    3    3    0    0  0.65347209799E-01 -0.11115238737E+00 -0.61519549423E-01  0.89152104070E+00  0.88000000000E+00 0.  1.
        -11    1    4    4    0    0 -0.31392322057E-01  0.29566201878E-01  0.36363564317E-01  0.56411063706E-01  0.51100000000E-03 0.  1.
         11    1    4    4    0    0 -0.26027742159E-01  0.76333923677E-01  0.14907169541E-01  0.82017047560E-01  0.51100000000E-03 0. -1.
</event>
<event>
 8    1  0.2091070E+004  0.1043930E+01  0.7957747E-01            NaN
         13   -1    0    0    0    0  0.00000000000E+00  0.00000000000E+00  0.74505805969E-08  0.10566000000E+00  0.10566000000E+00 0. -1.
     999900   -1    0    0    0    0 -0.00000000000E+00 -0.00000000000E+00 -0.74505805969E-08  0.93827000000E+00  0.93827000000E+00 0. -1.
     999902    2    1    2    0    0 -0.72332690848E-02 -0.34090780355E-02  0.11978158606E-01  0.10295279766E+01  0.10294272370E+01 0.  0.
     999903    2    3    3    0    0  0.53815570252E-01  0.21749233368E-01  0.11992100924E+00  0.14047704418E+00  0.44537700109E-01 0.  0.
         14    1    1    2    0    0  0.72332690848E-02  0.34090780355E-02 -0.11978158606E-01  0.14402023410E-01  0.00000000000E+00 0.  1.
     999901    1    3    3    0    0 -0.61048839336E-01 -0.25158311403E-01 -0.10794285063E+00  0.88905093241E+00  0.88000000000E+00 0. -1.
        -11    1    4    4    0    0 -0.75846844357E-02  0.21787680553E-02  0.75267300156E-02  0.10917291512E-01  0.51100000000E-03 0.  1.
         11    1    4    4    0    0  0.61400254687E-01  0.19570465313E-01  0.11239427922E+00  0.12955975267E+00  0.51100000000E-03 0. -1.
</event>
<event>
 8    1  0.2091070E+004  0.1043930E+01  0.7957747E-01            NaN
         13   -1    0    0    0    0  0.00000000000E+00  0.00000000000E+00  0.74505805969E-08  0.10566000000E+00  0.10566000000E+00 0.  1.
     999900   -1    0    0    0    0 -0.00000000000E+00 -0.00000000000E+00 -0.74505805969E-08  0.93827000000E+00  0.93827000000E+00 0.  1.
     999902    2    1    2    0    0  0.17064884488E-01 -0.55445480603E-02  0.10651200075E-01  0.10230637507E+01  0.10228509362E+01 0.  0.
     999903    2    3    3    0    0  0.29845924186E-02  0.12512871774E+00  0.15612698721E-01  0.13328941221E+00  0.43083723730E-01 0.  0.
         14    1    1    2    0    0 -0.17064884488E-01  0.55445480603E-02 -0.10651200075E-01  0.20866249276E-01  0.00000000000E+00 0. -1.
     999901    1    3    3    0    0  0.14080292069E-01 -0.13067326580E+00 -0.49614986452E-02  0.88977433852E+00  0.88000000000E+00 0.  1.
        -11    1    4    4    0    0 -0.32316249532E-02  0.86945357673E-01  0.29967082609E-01  0.92022963340E-01  0.51100000000E-03 0.  1.
         11    1    4    4    0    0  0.62162173718E-02  0.38183360063E-01 -0.14354383889E-01  0.41266448865E-01  0.51100000000E-03 0. -1.
</event>
<event>
 7    1  0.2091070E+004  0.1043930E+01  0.7957747E-01            NaN
         13   -1    0    0    0    0  0.00000000000E+00  0.00000000000E+00  0.74505805969E-08  0.10566000000E+00  0.10566000000E+00 0. -1.
     999900   -1    0    0    0    0 -0.00000000000E+00 -0.00000000000E+00 -0.74505805969E-08  0.93827000000E+00  0.93827000000E+00 0.  1.
     999902    2    1    2    0    0 -0.79863191924E-02 -0.10750593947E-01 -0.78609283651E-02  0.10284009704E+01  0.10282837183E+01 0.  0.
         14    1    1    2    0    0  0.79863191924E-02  0.10750593947E-01  0.78609283651E-02  0.15529029565E-01  0.00000000000E+00 0.  1.
     999901    1    3    3    0    0  0.63503571491E-01 -0.50897610630E-01 -0.10101848773E+00  0.88950998040E+00  0.88000000000E+00 0.  1.
        -11    1    3    3    0    0 -0.17182898985E-01  0.20105774135E-01  0.72914138628E-01  0.77564340415E-01  0.51100000000E-03 0.  1.
         11    1    3    3    0    0 -0.54306991699E-01  0.20041242547E-01  0.20243420735E-01  0.61326649625E-01  0.51100000000E-03 0. -1.
</event>
<event>
 8    1  0.2091070E+004  0.1043930E+01  0.7957747E-01            NaN
         13   -1    0    0    0    0  0.00000000000E+00  0.00000000000E+00  0.74505805969E-08  0.10566000000E+00  0.10566000000E+00 0.  1.
     999900   -1    0    0    0    0 -0.00000000000E+00 -0.00000000000E+00 -0.74505805969E-08  0.93827000000E+00  0.93827000000E+00 0. -1.
     999902    2    1    2    0    0  0.53271543932E-02 -0.96148335539E-02 -0.80036833237E-02  0.10303328479E+01  0.10302431242E+01 0.  0.
     999903    2    3    3    0    0 -0.45798733233E-03  0.10209347558E+00  0.81904440780E-01  0.13870754265E+00  0.45914675882E-01 0.  0.
         14    1    1    2    0    0 -0.53271543932E-02  0.96148335539E-02  0.80036833237E-02  0.13597152089E-01  0.00000000000E+00 0.  1.
     999901    1    3    3    0    0  0.57851417256E-02 -0.11170830913E+00 -0.89908124103E-01  0.89162530526E+00  0.88000000000E+00 0. -1.
        -11    1    4    4    0    0  0.16279147820E-01  0.12373491559E-01  0.11727401928E-01  0.23577680634E-01  0.51100000000E-03 0.  1.
         11    1    4    4    0    0 -0.16737135152E-01  0.89719984021E-01  0.70177038852E-01  0.11512986202E+00  0.51100000000E-03 0. -1.
</event>
<event>
 8    1  0.2091070E+004  0.1043930E+01  0.7957747E-01            NaN
         13   -1    0    0    0    0  0.00000000000E+00  0.00000000000E+00  0.74505805969E-08  0.10566000000E+00  0.10566000000E+00 0. -1.
     999900   -1    0    0    0    0 -0.00000000000E+00 -0.00000000000E+00 -0.74505805969E-08  0.93827000000E+00  0.93827000000E+00 0. -1.
     999902    2    1    2    0    0  0.25921586878E-03 -0.40369071712E-02  0.13227671548E-01  0.10300976066E+01  0.10300047301E+01 0.  0.
     999903    2    3    3    0    0  0.75365549234E-01  0.47865950793E-01 -0.95661850159E-01  0.13869882048E+00  0.45989759399E-01 0.  0.
         14    1    1    2    0    0 -0.25921586878E-03  0.40369071712E-02 -0.13227671548E-01  0.13832393392E-01  0.00000000000E+00 0.  1.
     999901    1    3    3    0    0 -0.75106333365E-01 -0.51902857965E-01  0.10888952171E+00  0.89139878613E+00  0.88000000000E+00 0.  1.
        -11    1    4    4    0    0  0.12175415638E-01  0.32682825278E-01 -0.40538295898E-01  0.53479176970E-01  0.51100000000E-03 0.  1.
         11    1    4    4    0    0  0.63190133596E-01  0.15183125516E-01 -0.55123554260E-01  0.85219643508E-01  0.51100000000E-03 0. -1.
</event>
<event>
 7    1  0.3456338E+004  0.1043930E+01  0.7957747E-01            NaN
         13   -1    0    0    0    0  0.00000000000E+00  0.00000000000E+00  0.74505805969E-08  0.10566000000E+00  0.10566000000E+00 0. -1.
     999900   -1    0    0    0    0 -0.00000000000E+00 -0.00000000000E+00 -0.74505805969E-08  0.93827000000E+00  0.93827000000E+00 0.  1.
     999903    2    1    2    0    0 -0.32182179690E-01  0.57493554186E-02  0.83660603497E-01  0.10046181202E+00  0.44997014558E-01 0.  0.
         14    1    1    2    0    0  0.13669998454E-01 -0.71832585630E-02 -0.61059731342E-01  0.62982210607E-01  0.00000000000E+00 0.  1.
     999901    1    1    2    0    0  0.18512181235E-01  0.14339031444E-02 -0.22600872155E-01  0.88048597738E+00  0.88000000000E+00 0.  1.
        -11    1    3    3    0    0 -0.31819319595E-01 -0.11365264972E-01  0.34022622798E-01  0.47952459066E-01  0.51100000000E-03 0.  1.
         11    1    3    3    0    0 -0.36286009423E-03  0.17114620391E-01  0.49637980699E-01  0.52509352952E-01  0.51100000000E-03 0. -1.
</event>
<event>
 8    1  0.2091070E+004  0.1043930E+01  0.7957747E-01            NaN
         13   -1    0    0    0    0  0.00000000000E+00  0.00000000000E+00  0.74505805969E-08  0.10566000000E+00  0.10566000000E+00 0.  1.
     999900   -1    0    0    0    0 -0.00000000000E+00 -0.00000000000E+00 -0.74505805969E-08  0.93827000000E+00  0.93827000000E+00 0. -1.
     999902    2    1    2    0    0 -0.92127979394E-02 -0.29242906606E-02  0.91417330701E-02  0.10306259252E+01  0.10305400523E+01 0.  0.
     999903    2    3    3    0    0  0.51029557044E-01  0.10859064985E+00  0.57886024902E-01  0.14020988244E+00  0.43727272114E-01 0.  0.
         14    1    1    2    0    0  0.92127979394E-02  0.29242906606E-02 -0.91417330701E-02  0.13304074762E-01  0.00000000000E+00 0.  1.
     999901    1    3    3    0    0 -0.60242354983E-01 -0.11151494051E+00 -0.48744291832E-01  0.89041604280E+00  0.88000000000E+00 0. -1.
        -11    1    4    4    0    0  0.13416603868E-01  0.28886399152E-01 -0.45819534499E-02  0.32182056083E-01  0.51100000000E-03 0.  1.
         11    1    4    4    0    0  0.37612953175E-01  0.79704250701E-01  0.62467978352E-01  0.10802782635E+00  0.51100000000E-03 0. -1.
</event>
<event>
 8    1  0.2091070E+004  0.1043930E+01  0.7957747E-01            NaN
         13   -1    0    0    0    0  0.00000000000E+00  0.00000000000E+00  0.74505805969E-08  0.10566000000E+00  0.10566000000E+00 0. -1.
     999900   -1    0    0    0    0 -0.00000000000E+00 -0.00000000000E+00 -0.74505805969E-08  0.93827000000E+00  0.93827000000E+00 0. -1.
     999902    2    1    2    0    0  0.64317078398E-02 -0.12000712164E-01 -0.39771522271E-02  0.10297454416E+01  0.10296477421E+01 0.  0.
     999903    2    3    3    0    0  0.93473751384E-01 -0.95439964113E-01 -0.80995780043E-02  0.14151381608E+00  0.45982910205E-01 0.  0.
         14    1    1    2    0    0 -0.64317078398E-02  0.12000712164E-01  0.39771522271E-02  0.14184558436E-01  0.00000000000E+00 0.  1.
     999901    1    3    3    0    0 -0.87042043544E-01  0.83439251948E-01  0.41224257772E-02  0.88823162548E+00  0.88000000000E+00 0.  1.
        -11    1    4    4    0    0  0.79728227729E-01 -0.56457430440E-01 -0.17170128749E-01  0.99192268807E-01  0.51100000000E-03 0.  1.
         11    1    4    4    0    0  0.13745523655E-01 -0.38982533673E-01  0.90705507447E-02  0.42321547277E-01  0.51100000000E-03 0. -1.
</event>
<event>
 8    1  0.2091070E+004  0.1043930E+01  0.7957747E-01            NaN
         13   -1    0    0    0    0  0.00000000000E+00  0.00000000000E+00  0.74505805969E-08  0.10566000000E+00  0.10566000000E+00 0.  1.
     999900   -1    0    0    0    0 -0.00000000000E+00 -0.00000000000E+00 -0.74505805969E-08  0.93827000000E+00  0.93827000000E+00 0.  1.
     999902    2    1    2    0    0 -0.67832670625E-02 -0.27762219846E-02 -0.15151556404E-01  0.10270987855E+01  0.10269608685E+01 0.  0.
     999903    2    3    3    0    0  0.48698899086E-01  0.27942931517E-01 -0.11857275609E+00  0.13877571267E+00  0.45241681527E-01 0.  0.
         14    1    1    2    0    0  0.67832670625E-02  0.27762219846E-02  0.15151556404E-01  0.16831214514E-01  0.00000000000E+00 0.  1.
     999901    1    3    3    0    0 -0.55482166149E-01 -0.30719153502E-01  0.10342119968E+00  0.88832307282E+00  0.88000000000E+00 0.  1.
        -11    1    4    4    0    0  0.18938595032E-01  0.35826993308E-01 -0.77331659495E-01  0.87308020894E-01  0.51100000000E-03 0.  1.
         11    1    4    4    0    0  0.29760304055E-01 -0.78840617906E-02 -0.41241096591E-01  0.51467691777E-01  0.51100000000E-03 0. -1.
</event>
<event>
 8    1  0.2091070E+004  0.1043930E+01  0.7957747E-01            NaN
         13   -1    0    0    0    0  0.00000000000E+00  0.00000000000E+00  0.74505805969E-08  0.10566000000E+00  0.10566000000E+00 0. -1.
     999900   -1    0    0    0    0 -0.00000000000E+00 -0.00000000000E+00 -0.74505805969E-08  0.93827000000E+00  0.93827000000E+00 0.  1.
     999902    2    1    2    0    0  0.24554108197E-02  0.15848484905E-01 -0.22642110241E-02  0.10277333902E+01  0.10276057567E+01 0.  0.
     999903    2    3    3    0    0  0.38716259297E-02 -0.89223687287E-01 -0.93916574005E-01  0.13675509495E+00  0.43655208885E-01 0.  0.
         14    1    1    2    0    0 -0.24554108197E-02 -0.15848484905E-01  0.22642110241E-02  0.16196609757E-01  0.00000000000E+00 0. -1.
     999901    1    3    3    0    0 -0.14162151100E-02  0.10507217219E+00  0.91652362981E-01  0.89097829529E+00  0.88000000000E+00 0. -1.
        -11    1    4    4    0    0  0.26610547153E-03  0.33120285128E-02 -0.14108583152E-01  0.14503571441E-01  0.51100000000E-03 0. -1.
         11    1    4    4    0    0  0.36055204582E-02 -0.92535715800E-01 -0.79807990853E-01  0.12225152351E+00  0.51100000000E-03 0.  1.
</event>
<event>
 8    1  0.2091070E+004  0.1043930E+01  0.7957747E-01            NaN
         13   -1    0    0    0    0  0.00000000000E+00  0.00000000000E+00  0.74505805969E-08  0.10566000000E+00  0.10566000000E+00 0. -1.
     999900   -1    0    0    0    0 -0.00000000000E+00 -0.00000000000E+00 -0.74505805969E-08  0.93827000000E+00  0.93827000000E+00 0. -1.
     999902    2    1    2    0    0 -0.44734390024E-02 -0.53209716728E-02  0.12774601095E-01  0.10293864506E+01  0.10292837072E+01 0.  0.
     999903    2    3    3    0    0 -0.69890229513E-01 -0.45767491904E-01 -0.10079006464E+00  0.13876183226E+00  0.46009797505E-01 0.  0.
         14    1    1    2    0    0  0.44734390024E-02  0.53209716728E-02 -0.12774601095E-01  0.14543549401E-01  0.00000000000E+00 0.  1.
     999901    1    3    3    0    0  0.65416790511E-01  0.40446520231E-01  0.11356466574E+00  0.89062461833E+00  0.88000000000E+00 0.  1.
        -11    1    4    4    0    0 -0.36973499145E-01 -0.36546775838E-02 -0.20880085022E-01  0.42622005804E-01  0.51100000000E-03 0.  1.
         11    1    4    4    0    0 -0.32916730368E-01 -0.42112814320E-01 -0.79909979619E-01  0.96139826460E-01  0.51100000000E-03 0. -1.
</event>
<event>
 8    1  0.2091070E+004  0.1043930E+01  0.7957747E-01            NaN
         13   -1    0    0    0    0  0.00000000000E+00  0.00000000000E+00  0.74505805969E-08  0.10566000000E+00  0.10566000000E+00 0. -1.
     999900   -1    0    0    0    0 -0.00000000000E+00 -0.00000000000E+00 -0.74505805969E-08  0.93827000000E+00  0.93827000000E+00 0.  1.
     999902    2    1    2    0    0 -0.10644353970E-01 -0.67919703633E-02  0.71174894186E-02  0.10294354566E+01  0.10293334093E+01 0.  0.
     999903    2    3    3    0    0  0.99282939536E-01 -0.59538841184E-01  0.62670373048E-01  0.13929368973E+00  0.45532193537E-01 0.  0.
         14    1    1    2    0    0  0.10644353970E-01  0.67919703633E-02 -0.71174894186E-02  0.14494543404E-01  0.00000000000E+00 0.  1.
     999901    1    3    3    0    0 -0.10992729351E+00  0.52746870821E-01 -0.55552883630E-01  0.89014176687E+00  0.88000000000E+00 0.  1.
        -11    1    4    4    0    0  0.37509741899E-01 -0.31225515246E-02  0.34379164272E-01  0.50979595157E-01  0.51100000000E-03 0.  1.
         11    1    4    4    0    0  0.61773197638E-01 -0.56416289660E-01  0.28291208776E-01  0.88314094574E-01  0.51100000000E-03 0. -1.
</event>
<event>
 8    1  0.2091070E+004  0.1043930E+01  0.7957747E-01            NaN
         13   -1    0    0    0    0  0.00000000000E+00  0.00000000000E+00  0.74505805969E-08  0.10566000000E+00  0.10566000000E+00 0. -1.
     999900   -1    0    0    0    0 -0.00000000000E+00 -0.00000000000E+00 -0.74505805969E-08  0.93827000000E+00  0.93827000000E+00 0. -1.
     999902    2    1    2    0    0  0.59355375507E-02 -0.77303689667E-02  0.95644017429E-02  0.10302747083E+01  0.10301842105E+01 0.  0.
     999903    2    3    3    0    0 -0.12521750785E-01  0.11628210086E+00  0.62292641717E-01  0.13982536587E+00  0.44636739414E-01 0.  0.
         14    1    1    2    0    0 -0.59355375507E-02  0.77303689667E-02 -0.95644017429E-02  0.13655291688E-01  0.00000000000E+00 0.  1.
     999901    1    3    3    0    0  0.18457288335E-01 -0.12401246983E+00 -0.52728239974E-01  0.89044934244E+00  0.88000000000E+00 0. -1.
        -11    1    4    4    0    0 -0.29422219352E-01  0.71990487654E-01  0.38998842240E-01  0.87002690311E-01  0.51100000000E-03 0.  1.
         11    1    4    4    0    0  0.16900468567E-01  0.44291613206E-01  0.23293799476E-01  0.52822675559E-01  0.51100000000E-03 0. -1.
</event>
<event>
 8    1  0.2091070E+004  0.1043930E+01  0.7957747E-01            NaN
         13   -1    0    0    0    0  0.00000000000E+00  0.00000000000E+00  0.74505805969E-08  0.10566000000E+00  0.10566000000E+00 0. -1.
     999900   -1    0    0    0    0 -0.00000000000E+00 -0.00000000000E+00 -0.74505805969E-08  0.93827000000E+00  0.93827000000E+00 0. -1.
     999902    2    1    2    0    0 -0.12521662553E-01 -0.21793008276E-02  0.60320526418E-02  0.10298613453E+01  0.10297652468E+01 0.  0.
     999903    2    3    3    0    0 -0.11583255348E+00  0.48208081125E-01 -0.48136195000E-01  0.14073467972E+00  0.41808578972E-01 0.  0.
         14    1    1    2    0    0  0.12521662553E-01  0.21793008276E-02 -0.60320526418E-02  0.14068654671E-01  0.00000000000E+00 0.  1.
     999901    1    3    3    0    0  0.10331089093E+00 -0.50387381953E-01  0.54168247642E-01  0.88912666561E+00  0.88000000000E+00 0.  1.
        -11    1    4    4    0    0 -0.71923877902E-01  0.26722253676E-01 -0.73721267329E-02  0.77082633761E-01  0.51100000000E-03 0.  1.
         11    1    4    4    0    0 -0.43908675577E-01  0.21485827449E-01 -0.40764068267E-01  0.63652045959E-01  0.51100000000E-03 0. -1.
</event>
<event>
 8    1  0.2091070E+004  0.1043930E+01  0.7957747E-01            NaN
         13   -1    0    0    0    0  0.00000000000E+00  0.00000000000E+00  0.74505805969E-08  0.10566000000E+00  0.10566000000E+00 0.  1.
     999900   -1    0    0    0    0 -0.00000000000E+00 -0.00000000000E+00 -0.74505805969E-08  0.93827000000E+00  0.93827000000E+00 0. -1.
     999902    2    1    2    0    0 -0.76533874049E-02  0.66113527396E-02  0.96009696755E-02  0.10299850030E+01  0.10298905978E+01 0.  0.
     999903    2    3    3    0    0 -0.89250064599E-01  0.20424770213E-01  0.98744591842E-01  0.14161829174E+00  0.43846332428E-01 0.  0.
         14    1    1    2    0    0  0.76533874049E-02 -0.66113527396E-02 -0.96009696755E-02  0.13944997043E-01  0.00000000000E+00 0.  1.
     999901    1    3    3    0    0  0.81596677194E-01 -0.13813417473E-01 -0.89143622166E-01  0.88836671122E+00  0.88000000000E+00 0.  1.
        -11    1    4    4    0    0 -0.48339332505E-01 -0.25355033428E-04  0.23958108944E-01  0.53953163161E-01  0.51100000000E-03 0.  1.
         11    1    4    4    0    0 -0.40910732093E-01  0.20450125246E-01  0.74786482897E-01  0.87665128576E-01  0.51100000000E-03 0. -1.
</event>
<event>
 8    1  0.2091070E+004  0.1043930E+01  0.7957747E-01            NaN
         13   -1    0    0    0    0  0.00000000000E+00  0.00000000000E+00  0.74505805969E-08  0.10566000000E+00  0.10566000000E+00 0. -1.
     999900   -1    0    0    0    0 -0.00000000000E+00 -0.00000000000E+00 -0.74505805969E-08  0.93827000000E+00  0.93827000000E+00 0.  1.
     999902    2    1    2    0    0  0.83453774083E-02  0.15384861072E-01  0.11452534215E-01  0.10230135038E+01  0.10227996525E+01 0.  0.
     999903    2    3    3    0    0 -0.96272887805E-01  0.17186916639E-01 -0.77192115877E-01  0.13239231449E+00  0.44779941402E-01 0.  0.
         14    1    1    2    0    0 -0.83453774083E-02 -0.15384861072E-01 -0.11452534215E-01  0.20916496223E-01  0.00000000000E+00 0.  1.
     999901    1    3    3    0    0  0.10461826521E+00 -0.18020555666E-02  0.88644650092E-01  0.89062118929E+00  0.88000000000E+00 0.  1.
        -11    1    4    4    0    0 -0.69906912714E-01 -0.61893901820E-03 -0.71626485530E-01  0.10008983006E+00  0.51100000000E-03 0.  1.
         11    1    4    4    0    0 -0.26365975091E-01  0.17805855657E-01 -0.55656303477E-02  0.32302484430E-01  0.51100000000E-03 0. -1.
</event>
<event>
 8    1  0.2091070E+004  0.1043930E+01  0.7957747E-01            NaN
         13   -1    0    0    0    0  0.00000000000E+00  0.00000000000E+00  0.74505805969E-08  0.10566000000E+00  0.10566000000E+00 0.  1.
     999900   -1    0    0    0    0 -0.00000000000E+00 -0.00000000000E+00 -0.74505805969E-08  0.93827000000E+00  0.93827000000E+00 0. -1.
     999902    2    1    2    0    0 -0.25037526670E-02 -0.63919461546E-02 -0.12237667067E-01  0.10298983840E+01  0.10298027943E+01 0.  0.
     999903    2    3    3    0    0 -0.51663036988E-01 -0.41911726449E-01  0.11408904891E+00  0.13881099814E+00  0.42737804312E-01 0.  0.
         14    1    1    2    0    0  0.25037526670E-02  0.63919461546E-02  0.12237667067E-01  0.14031616026E-01  0.00000000000E+00 0.  1.
     999901    1    3    3    0    0  0.49159284321E-01  0.35519780294E-01 -0.12632671598E+00  0.89108738584E+00  0.88000000000E+00 0. -1.
        -11    1    4    4    0    0 -0.56409909391E-01 -0.27215878074E-01  0.81897726508E-01  0.10310325225E+00  0.51100000000E-03 0. -1.
         11    1    4    4    0    0  0.47468724026E-02 -0.14695848374E-01  0.32191322405E-01  0.35707745885E-01  0.51100000000E-03 0.  1.
</event>
<event>
 8    1  0.2091070E+004  0.1043930E+01  0.7957747E-01            NaN
         13   -1    0    0    0    0  0.00000000000E+00  0.00000000000E+00  0.74505805969E-08  0.10566000000E+00  0.10566000000E+00 0.  1.
     999900   -1    0    0    0    0 -0.00000000000E+00 -0.00000000000E+00 -0.74505805969E-08  0.93827000000E+00  0.93827000000E+00 0. -1.
     999902    2    1    2    0    0  0.10360261092E-01 -0.36679144153E-02  0.77145667250E-02  0.10305022993E+01  0.10304148125E+01 0.  0.
     999903    2    3    3    0    0  0.84990550025E-01  0.96196268497E-01 -0.34634252834E-01  0.14070684103E+00  0.46062652739E-01 0.  0.
         14    1    1    2    0    0 -0.10360261092E-01  0.36679144153E-02 -0.77145667250E-02  0.13427700690E-01  0.00000000000E+00 0.  1.
     999901    1    3    3    0    0 -0.74630288933E-01 -0.99864182913E-01  0.42348819559E-01  0.88979545828E+00  0.88000000000E+00 0. -1.
        -11    1    4    4    0    0  0.14064773160E-01  0.45652033914E-01 -0.23791467723E-02  0.47831448910E-01  0.51100000000E-03 0.  1.
         11    1    4    4    0    0  0.70925776866E-01  0.50544234583E-01 -0.32255106062E-01  0.92875392121E-01  0.51100000000E-03 0. -1.
</event>
<event>
 8    1  0.2091070E+004  0.1043930E+01  0.7957747E-01            NaN
         13   -1    0    0    0    0  0.00000000000E+00  0.00000000000E+00  0.74505805969E-08  0.10566000000E+00  0.10566000000E+00 0. -1.
     999900   -1    0    0    0    0 -0.00000000000E+00 -0.00000000000E+00 -0.74505805969E-08  0.93827000000E+00  0.93827000000E+00 0.  1.
     999902    2    1    2    0    0  0.36144584287E-02  0.11900487040E-01  0.57722046700E-02  0.10302185359E+01  0.10301272870E+01 0.  0.
     999903    2    3    3    0    0 -0.10238216515E+00 -0.85384137016E-02  0.89435400008E-01  0.13968354885E+00  0.30948195345E-01 0.  0.
         14    1    1    2    0    0 -0.36144584287E-02 -0.11900487040E-01 -0.57722046700E-02  0.13711464118E-01  0.00000000000E+00 0.  1.
     999901    1    3    3    0    0  0.10599662358E+00  0.20438900741E-01 -0.83663195338E-01  0.89053498703E+00  0.88000000000E+00 0.  1.
        -11    1    4    4    0    0 -0.84291566389E-02 -0.74101916796E-02  0.19675881487E-01  0.22657516538E-01  0.51100000000E-03 0.  1.
         11    1    4    4    0    0 -0.93953008512E-01 -0.11282220221E-02  0.69759518521E-01  0.11702603231E+00  0.51100000000E-03 0. -1.
</event>
<event>
 8    1  0.2091070E+004  0.1043930E+01  0.7957747E-01            NaN
         13   -1    0    0    0    0  0.00000000000E+00  0.00000000000E+00  0.74505805969E-08  0.10566000000E+00  0.10566000000E+00 0. -1.
     999900   -1    0    0    0    0 -0.00000000000E+00 -0.00000000000E+00 -0.74505805969E-08  0.93827000000E+00  0.93827000000E+00 0.  1.
     999902    2    1    2    0    0 -0.96583994328E-02  0.94601960086E-02  0.14915763190E-02  0.10303283535E+01  0.10302385700E+01 0.  0.
     999903    2    3    3    0    0 -0.86027880119E-01  0.60780218003E-01  0.83647179427E-01  0.14172518819E+00  0.44655876253E-01 0.  0.
         14    1    1    2    0    0  0.96583994328E-02 -0.94601960086E-02 -0.14915763190E-02  0.13601646519E-01  0.00000000000E+00 0.  1.
     999901    1    3    3    0    0  0.76369480686E-01 -0.51320021994E-01 -0.82155603108E-01  0.88860316529E+00  0.88000000000E+00 0.  1.
        -11    1    4    4    0    0 -0.35729160847E-01  0.26734515858E-01  0.90643551546E-02  0.45538235895E-01  0.51100000000E-03 0.  1.
         11    1    4    4    0    0 -0.50298719271E-01  0.34045702145E-01  0.74582824273E-01  0.96186952298E-01  0.51100000000E-03 0. -1.
</event>
<event>
 8    1  0.2091070E+004  0.1043930E+01  0.7957747E-01            NaN
         13   -1    0    0    0    0  0.00000000000E+00  0.00000000000E+00  0.74505805969E-08  0.10566000000E+00  0.10566000000E+00 0. -1.
     999900   -1    0    0    0    0 -0.00000000000E+00 -0.00000000000E+00 -0.74505805969E-08  0.93827000000E+00  0.93827000000E+00 0. -1.
     999902    2    1    2    0    0 -0.23858116838E-03 -0.14470261131E-01 -0.60602940927E-03  0.10294450889E+01  0.10293431781E+01 0.  0.
     999903    2    3    3    0    0  0.48205274202E-02  0.11878421529E+00 -0.52553888211E-01  0.13788413747E+00  0.46013008092E-01 0.  0.
         14    1    1    2    0    0  0.23858116838E-03  0.14470261131E-01  0.60602940927E-03  0.14484911108E-01  0.00000000000E+00 0. -1.
     999901    1    3    3    0    0 -0.50591085886E-02 -0.13325447642E+00  0.51947858801E-01  0.89156095142E+00  0.88000000000E+00 0.  1.
        -11    1    4    4    0    0  0.12852717391E-01  0.12143092602E-01  0.20476884196E-02  0.17807335318E-01  0.51100000000E-03 0.  1.
         11    1    4    4    0    0 -0.80321899712E-02  0.10664112269E+00 -0.54601576630E-01  0.12007680215E+00  0.51100000000E-03 0. -1.
</event>
<event>
 8    1  0.2091070E+004  0.1043930E+01  0.7957747E-01            NaN
         13   -1    0    0    0    0  0.00000000000E+00  0.00000000000E+00  0.74505805969E-08  0.10566000000E+00  0.10566000000E+00 0. -1.
     999900   -1    0    0    0    0 -0.00000000000E+00 -0.00000000000E+00 -0.74505805969E-08  0.93827000000E+00  0.93827000000E+00 0. -1.
     999902    2    1    2    0    0  0.12775054058E-01 -0.43497299480E-02 -0.32080489490E-02  0.10300586722E+01  0.10299652686E+01 0.  0.
     999903    2    3    3    0    0  0.38146258639E-01 -0.11254817215E+00 -0.60413330231E-01  0.14122626667E+00  0.46613944546E-01 0.  0.
         14    1    1    2    0    0 -0.12775054058E-01  0.43497299480E-02  0.32080489490E-02  0.13871327798E-01  0.00000000000E+00 0. -1.
     999901    1    3    3    0    0 -0.25371204580E-01  0.10819844220E+00  0.57205281282E-01  0.88883240553E+00  0.88000000000E+00 0.  1.
        -11    1    4    4    0    0  0.39971353892E-02 -0.31061673759E-01  0.44262649464E-02  0.31633172627E-01  0.51100000000E-03 0. -1.
         11    1    4    4    0    0  0.34149123249E-01 -0.81486498389E-01 -0.64839595177E-01  0.10959309404E+00  0.51100000000E-03 0.  1.
</event>
<event>
 8    1  0.2091070E+004  0.1043930E+01  0.7957747E-01            NaN
         13   -1    0    0    0    0  0.00000000000E+00  0.00000000000E+00  0.74505805969E-08  0.10566000000E+00  0.10566000000E+00 0.  1.
     999900   -1    0    0    0    0 -0.00000000000E+00 -0.00000000000E+00 -0.74505805969E-08  0.93827000000E+00  0.93827000000E+00 0. -1.
     999902    2    1    2    0    0 -0.17039040673E-02  0.12617632080E-01  0.27588388649E-02  0.10309023709E+01  0.10308200518E+01 0.  0.
     999903    2    3    3    0    0  0.80092386075E-01 -0.92560224847E-02 -0.10520305171E+00  0.14027065146E+00  0.45909795382E-01 0.  0.
         14    1    1    2    0    0  0.17039040673E-02 -0.12617632080E-01 -0.27588388649E-02  0.13027629111E-01  0.00000000000E+00 0.  1.
     999901    1    3    3    0    0 -0.81796290142E-01  0.21873654565E-01  0.10796189057E+00  0.89063171943E+00  0.88000000000E+00 0.  1.
        -11    1    4    4    0    0  0.17859040867E-01 -0.10935372341E-01 -0.38128359712E-02  0.21291466555E-01  0.51100000000E-03 0.  1.
         11    1    4    4    0    0  0.62233345207E-01  0.16793498563E-02 -0.10139021574E+00  0.11897918490E+00  0.51100000000E-03 0. -1.
</event>
<event>
 7    1  0.2621470E+004  0.1043930E+01  0.7957747E-01            NaN
         13   -1    0    0    0    0  0.00000000000E+00  0.00000000000E+00  0.74505805969E-08  0.10566000000E+00  0.10566000000E+00 0.  1.
     999900   -1    0    0    0    0 -0.00000000000E+00 -0.00000000000E+00 -0.74505805969E-08  0.93827000000E+00  0.93827000000E+00 0.  1.
     999903    2    1    2    0    0  0.36905713325E-01 -0.69098744617E-02  0.98706274658E-01  0.11493505043E+00  0.45358120757E-01 0.  0.
         14    1    1    2    0    0  0.18068406443E-01 -0.39840638086E-02  0.32604642780E-01  0.37488702387E-01  0.00000000000E+00 0. -1.
     999901    1    1    2    0    0 -0.54974119768E-01  0.10893938270E-01 -0.13131091744E+00  0.89150624719E+00  0.88000000000E+00 0.  1.
        -11    1    3    3    0    0  0.31695672368E-01 -0.24704118481E-01  0.63700147387E-01  0.75318517079E-01  0.51100000000E-03 0. -1.
         11    1    3    3    0    0  0.52100409568E-02  0.17794244020E-01  0.35006127270E-01  0.39616533347E-01  0.51100000000E-03 0.  1.
</event>
<event>
 8    1  0.2091070E+004  0.1043930E+01  0.7957747E-01            NaN
         13   -1    0    0    0    0  0.00000000000E+00  0.00000000000E+00  0.74505805969E-08  0.10566000000E+00  0.10566000000E+00 0.  1.
     999900   -1    0    0    0    0 -0.00000000000E+00 -0.00000000000E+00 -0.74505805969E-08  0.93827000000E+00  0.93827000000E+00 0.  1.
     999902    2    1    2    0    0  0.62791965385E-02  0.48537620097E-02  0.92997154535E-02  0.10317041249E+01  0.10316316830E+01 0.  0.
     999903    2    3    3    0    0 -0.14034069998E-02  0.13482414333E+00  0.31654039271E-02  0.14210367963E+00  0.44765129356E-01 0.  0.
         14    1    1    2    0    0 -0.62791965385E-02 -0.48537620097E-02 -0.92997154535E-02  0.12225875115E-01  0.00000000000E+00 0. -1.
     999901    1    3    3    0    0  0.76826035382E-02 -0.12997038132E+00  0.61343115264E-02  0.88960044525E+00  0.88000000000E+00 0. -1.
        -11    1    4    4    0    0  0.31971668334E-02  0.60459969484E-01 -0.20507401813E-01  0.63925303565E-01  0.51100000000E-03 0.  1.
         11    1    4    4    0    0 -0.46005738332E-02  0.74364173848E-01  0.23672805740E-01  0.78178376066E-01  0.51100000000E-03 0. -1.
</event>
<event>
 8    1  0.2091070E+004  0.1043930E+01  0.7957747E-01            NaN
         13   -1    0    0    0    0  0.00000000000E+00  0.00000000000E+00  0.74505805969E-08  0.10566000000E+00  0.10566000000E+00 0. -1.
     999900   -1    0    0    0    0 -0.00000000000E+00 -0.00000000000E+00 -0.74505805969E-08  0.93827000000E+00  0.93827000000E+00 0. -1.
     999902    2    1    2    0    0  0.83765684117E-02 -0.47830684668E-02 -0.10795384961E-01  0.10294529499E+01  0.10293511505E+01 0.  0.
     999903    2    3    3    0    0 -0.68393369993E-01 -0.53720283012E-01  0.98946684427E-01  0.13797563883E+00  0.41028145040E-01 0.  0.
         14    1    1    2    0    0 -0.83765684117E-02  0.47830684668E-02  0.10795384961E-01  0.14477050072E-01  0.00000000000E+00 0. -1.
     999901    1    3    3    0    0  0.76769938405E-01  0.48937214545E-01 -0.10974206939E+00  0.89147731110E+00  0.88000000000E+00 0. -1.
        -11    1    4    4    0    0 -0.12501971218E-01 -0.27596605605E-01  0.52996676396E-01  0.61047364851E-01  0.51100000000E-03 0. -1.
         11    1    4    4    0    0 -0.55891398774E-01 -0.26123677407E-01  0.45950008032E-01  0.76928273979E-01  0.51100000000E-03 0.  1.
</event>
<event>
 8    1  0.2091070E+004  0.1043930E+01  0.7957747E-01            NaN
         13   -1    0    0    0    0  0.00000000000E+00  0.00000000000E+00  0.74505805969E-08  0.10566000000E+00  0.10566000000E+00 0. -1.
     999900   -1    0    0    0    0 -0.00000000000E+00 -0.00000000000E+00 -0.74505805969E-08  0.93827000000E+00  0.93827000000E+00 0.  1.
     999902    2    1    2    0    0  0.12371091664E-01  0.92909740250E-03  0.40492214769E-02  0.10308799684E+01  0.10307973641E+01 0.  0.
     999903    2    3    3    0    0 -0.82772130161E-01  0.94053342932E-01 -0.42714785948E-01  0.13963857001E+00  0.44464822583E-01 0.  0.
         14    1    1    2    0    0 -0.12371091664E-01 -0.92909740250E-03 -0.40492214769E-02  0.13050031629E-01  0.00000000000E+00 0.  1.
     999901    1    3    3    0    0  0.95143221825E-01 -0.93124245529E-01  0.46764007425E-01  0.89124139836E+00  0.88000000000E+00 0. -1.
        -11    1    4    4    0    0 -0.40130558346E-01  0.14691680959E-01 -0.16447409508E-01  0.45793947232E-01  0.51100000000E-03 0. -1.
         11    1    4    4    0    0 -0.42641571815E-01  0.79361661973E-01 -0.26267376440E-01  0.93844622776E-01  0.51100000000E-03 0.  1.
</event>
<event>
 8    1  0.2091070E+004  0.1043930E+01  0.7957747E-01            NaN
         13   -1    0    0    0    0  0.00000000000E+00  0.00000000000E+00  0.74505805969E-08  0.10566000000E+00  0.10566000000E+00 0. -1.
     999900   -1    0    0    0    0 -0.00000000000E+00 -0.00000000000E+00 -0.74505805969E-08  0.93827000000E+00  0.93827000000E+00 0. -1.
     999902    2    1    2    0    0  0.10088056081E-01  0.20413431102E-02 -0.40687384401E-02  0.10328624533E+01  0.10328031549E+01 0.  0.
     999903    2    3    3    0    0  0.13287999524E-01  0.12003616127E+00  0.61480943693E-01  0.14256487521E+00  0.44267214288E-01 0.  0.
         14    1    1    2    0    0 -0.10088056081E-01 -0.20413431102E-02  0.40687384401E-02  0.11067546687E-01  0.00000000000E+00 0. -1.
     999901    1    3    3    0    0 -0.31999434428E-02 -0.11799481816E+00 -0.65549682133E-01  0.89029757810E+00  0.88000000000E+00 0. -1.
        -11    1    4    4    0    0 -0.45929377410E-02  0.52857830092E-01  0.55682706097E-02  0.53350839148E-01  0.51100000000E-03 0. -1.
         11    1    4    4    0    0  0.17880937265E-01  0.67178331182E-01  0.55912673083E-01  0.89214036060E-01  0.51100000000E-03 0.  1.
</event>
<event>
 8    1  0.2091070E+004  0.1043930E+01  0.7957747E-01            NaN
         13   -1    0    0    0    0  0.00000000000E+00  0.00000000000E+00  0.74505805969E-08  0.10566000000E+00  0.10566000000E+00 0.  1.
     999900   -1    0    0    0    0 -0.00000000000E+00 -0.00000000000E+00 -0.74505805969E-08  0.93827000000E+00  0.93827000000E+00 0. -1.
     999902    2    1    2    0    0  0.27482300731E-02  0.98622823162E-02 -0.24376887637E-02  0.10334057562E+01  0.10333521652E+01 0.  0.
     999903    2    3    3    0    0 -0.26583666055E-01 -0.11656886412E+00  0.58701472657E-01  0.14178745672E+00  0.48608935462E-01 0.  0.
         14    1    1    2    0    0 -0.27482300731E-02 -0.98622823162E-02  0.24376887637E-02  0.10524243798E-01  0.00000000000E+00 0.  1.
     999901    1    3    3    0    0  0.29331896128E-01  0.12643114644E+00 -0.61139161421E-01  0.89161829949E+00  0.88000000000E+00 0. -1.
        -11    1    4    4    0    0  0.19625616765E-02 -0.88104599791E-01  0.46625610789E-01  0.99701960137E-01  0.51100000000E-03 0. -1.
         11    1    4    4    0    0 -0.28546227731E-01 -0.28464264328E-01  0.12075861868E-01  0.42085496579E-01  0.51100000000E-03 0.  1.
</event>
<event>
 8    1  0.2091070E+004  0.1043930E+01  0.7957747E-01            NaN
         13   -1    0    0    0    0  0.00000000000E+00  0.00000000000E+00  0.74505805969E-08  0.10566000000E+00  0.10566000000E+00 0. -1.
     999900   -1    0    0    0    0 -0.00000000000E+00 -0.00000000000E+00 -0.74505805969E-08  0.93827000000E+00  0.93827000000E+00 0. -1.
     999902    2    1    2    0    0 -0.85897373277E-02  0.10515161813E-01  0.23200407280E-02  0.10301555743E+01  0.10300634798E+01 0.  0.
     999903    2    3    3    0    0  0.99697000231E-01 -0.68500508392E-01  0.51082710763E-01  0.13866957232E+00  0.44586942537E-01 0.  0.
         14    1    1    2    0    0  0.85897373277E-02 -0.10515161813E-01 -0.23200407280E-02  0.13774425734E-01  0.00000000000E+00 0.  1.
     999901    1    3    3    0    0 -0.10828673756E+00  0.79015670205E-01 -0.48762670035E-01  0.89148600194E+00  0.88000000000E+00 0.  1.
        -11    1    4    4    0    0  0.40880094131E-01 -0.50286177039E-01  0.39846060793E-01  0.76077929645E-01  0.51100000000E-03 0.  1.
         11    1    4    4    0    0  0.58816906100E-01 -0.18214331353E-01  0.11236649971E-01  0.62591642680E-01  0.51100000000E-03 0. -1.
</event>
<event>
 8    1  0.3604423E+004  0.1043930E+01  0.7957747E-01            NaN
         13   -1    0    0    0    0  0.00000000000E+00  0.00000000000E+00  0.74505805969E-08  0.10566000000E+00  0.10566000000E+00 0. -1.
     999900   -1    0    0    0    0 -0.00000000000E+00 -0.00000000000E+00 -0.74505805969E-08  0.93827000000E+00  0.93827000000E+00 0.  1.
     999902    2    1    2    0    0 -0.64830921662E-02 -0.47375489881E-02  0.11575972930E-01  0.10298417778E+01  0.10297454100E+01 0.  0.
     999903    2    3    3    0    0 -0.78653346800E-01  0.80336040170E-01  0.63357662549E-01  0.14128823156E+00  0.57514716897E-01 0.  0.
         14    1    1    2    0    0  0.64830921662E-02  0.47375489881E-02 -0.11575972930E-01  0.14088222163E-01  0.00000000000E+00 0.  1.
     999901    1    3    3    0    0  0.72170254634E-01 -0.85073589158E-01 -0.51781689619E-01  0.88855354628E+00  0.88000000000E+00 0. -1.
        -11    1    4    4    0    0 -0.46899196845E-01  0.36219401395E-01  0.63600421776E-01  0.86929019742E-01  0.51100000000E-03 0. -1.
         11    1    4    4    0    0 -0.31754149955E-01  0.44116638775E-01 -0.24275922729E-03  0.54359211815E-01  0.51100000000E-03 0.  1.
</event>
<event>
 8    1  0.2091070E+004  0.1043930E+01  0.7957747E-01            NaN
         13   -1    0    0    0    0  0.00000000000E+00  0.00000000000E+00  0.74505805969E-08  0.10566000000E+00  0.10566000000E+00 0. -1.
     999900   -1    0    0    0    0 -0.00000000000E+00 -0.00000000000E+00 -0.74505805969E-08  0.93827000000E+00  0.93827000000E+00 0.  1.
     999902    2    1    2    0    0  0.94371457586E-02 -0.81519663064E-02  0.12449244664E-02  0.10313974778E+01  0.10313213336E+01 0.  0.
     999903    2    3    3    0    0 -0.13176850161E+00  0.76614444758E-02 -0.89520557595E-02  0.13994188320E+00  0.45628451895E-01 0.  0.
         14    1    1    2    0    0 -0.94371457586E-02  0.81519663064E-02 -0.12449244664E-02  0.12532522159E-01  0.00000000000E+00 0. -1.
     999901    1    3    3    0    0  0.14120564737E+00 -0.15813410782E-01  0.10196980226E-01  0.89145559464E+00  0.88000000000E+00 0.  1.
        -11    1    4    4    0    0 -0.12033993445E-01  0.59712157022E-02  0.12419270121E-01  0.18302235015E-01  0.51100000000E-03 0. -1.
         11    1    4    4    0    0 -0.11973450817E+00  0.16902287736E-02 -0.21371325881E-01  0.12163964819E+00  0.51100000000E-03 0.  1.
</event>
<event>
 8    1  0.2091070E+004  0.1043930E+01  0.7957747E-01            NaN
         13   -1    0    0    0    0  0.00000000000E+00  0.00000000000E+00  0.74505805969E-08  0.10566000000E+00  0.10566000000E+00 0. -1.
     999900   -1    0    0    0    0 -0.00000000000E+00 -0.00000000000E+00 -0.74505805969E-08  0.93827000000E+00  0.93827000000E+00 0.  1.
     999902    2    1    2    0    0  0.12982679603E-01  0.21750513792E-03 -0.53192358779E-02  0.10298981951E+01  0.10298026028E+01 0.  0.
     999903    2    3    3    0    0 -0.15800083633E-02 -0.13261736363E+00 -0.71782980151E-02  0.13980795791E+00  0.43644880240E-01 0.  0.
         14    1    1    2    0    0 -0.12982679603E-01 -0.21750513792E-03  0.53192358779E-02  0.14031804890E-01  0.00000000000E+00 0. -1.
     999901    1    3    3    0    0  0.14562687966E-01  0.13283486877E+00  0.18590621372E-02  0.89009023720E+00  0.88000000000E+00 0. -1.
        -11    1    4    4    0    0  0.11992680065E-01 -0.86527767274E-02  0.10203253978E-02  0.14832299389E-01  0.51100000000E-03 0. -1.
         11    1    4    4    0    0 -0.13572688428E-01 -0.12396458690E+00 -0.81986234129E-02  0.12497565852E+00  0.51100000000E-03 0.  1.
</event>
<event>
 8    1  0.2091070E+004  0.1043930E+01  0.7957747E-01            NaN
         13   -1    0    0    0    0  0.00000000000E+00  0.00000000000E+00  0.74505805969E-08  0.10566000000E+00  0.10566000000E+00 0. -1.
     999900   -1    0    0    0    0 -0.00000000000E+00 -0.00000000000E+00 -0.74505805969E-08  0.93827000000E+00  0.93827000000E+00 0.  1.
     999902    2    1    2    0    0  0.13392655142E-01  0.62368563789E-02 -0.67082408087E-02  0.10277046469E+01  0.10275765563E+01 0.  0.
     999903    2    3    3    0    0 -0.32948400661E-01  0.10376195535E+00 -0.72926323968E-01  0.13863576714E+00  0.45271257079E-01 0.  0.
         14    1    1    2    0    0 -0.13392655142E-01 -0.62368563789E-02  0.67082408087E-02  0.16225353124E-01  0.00000000000E+00 0. -1.
     999901    1    3    3    0    0  0.46341055803E-01 -0.97525098974E-01  0.66218083159E-01  0.88906887974E+00  0.88000000000E+00 0. -1.
        -11    1    4    4    0    0 -0.14258322666E-02  0.28335245029E-01  0.10332213602E-02  0.28394502565E-01  0.51100000000E-03 0.  1.
         11    1    4    4    0    0 -0.31522568395E-01  0.75426710323E-01 -0.73959545328E-01  0.11024126457E+00  0.51100000000E-03 0. -1.
</event>
<event>
 8    1  0.2091070E+004  0.1043930E+01  0.7957747E-01            NaN
         13   -1    0    0    0    0  0.00000000000E+00  0.00000000000E+00  0.74505805969E-08  0.10566000000E+00  0.10566000000E+00 0.  1.
     999900   -1    0    0    0    0 -0.00000000000E+00 -0.00000000000E+00 -0.74505805969E-08  0.93827000000E+00  0.93827000000E+00 0. -1.
     999902    2    1    2    0    0  0.87482955978E-02  0.67598416354E-02  0.63111808874E-02  0.10311997550E+01  0.10311211740E+01 0.  0.
     999903    2    3    3    0    0 -0.86315276963E-01  0.59240309251E-01  0.82791500064E-01  0.14123317045E+00  0.46180457719E-01 0.  0.
         14    1    1    2    0    0 -0.87482955978E-02 -0.67598416354E-02 -0.63111808874E-02  0.12730245048E-01  0.00000000000E+00 0. -1.
     999901    1    3    3    0    0  0.95063572560E-01 -0.52480467616E-01 -0.76480319176E-01  0.88996658450E+00  0.88000000000E+00 0. -1.
        -11    1    4    4    0    0 -0.66066812482E-01  0.21391250574E-01  0.63757773675E-01  0.94274726930E-01  0.51100000000E-03 0.  1.
         11    1    4    4    0    0 -0.20248464480E-01  0.37849058677E-01  0.19033726388E-01  0.46958443519E-01  0.51100000000E-03 0. -1.
</event>
<event>
 8    1  0.2091070E+004  0.1043930E+01  0.7957747E-01            NaN
         13   -1    0    0    0    0  0.00000000000E+00  0.00000000000E+00  0.74505805969E-08  0.10566000000E+00  0.10566000000E+00 0. -1.
     999900   -1    0    0    0    0 -0.00000000000E+00 -0.00000000000E+00 -0.74505805969E-08  0.93827000000E+00  0.93827000000E+00 0.  1.
     999902    2    1    2    0    0 -0.53021192799E-02  0.59867432657E-02  0.11081367564E-01  0.10302643397E+01  0.10301737035E+01 0.  0.
     999903    2    3    3    0    0  0.60382681083E-01 -0.11561262989E+00 -0.16067893767E-01  0.13906403511E+00  0.45478349637E-01 0.  0.
         14    1    1    2    0    0  0.53021192799E-02 -0.59867432657E-02 -0.11081367564E-01  0.13665660280E-01  0.00000000000E+00 0.  1.
     999901    1    3    3    0    0 -0.65684800362E-01  0.12159937316E+00  0.27149261331E-01  0.89120030461E+00  0.88000000000E+00 0. -1.
        -11    1    4    4    0    0  0.29521542775E-01 -0.64722524689E-01  0.13809624198E-01  0.72467189344E-01  0.51100000000E-03 0.  1.
         11    1    4    4    0    0  0.30861138308E-01 -0.50890105201E-01 -0.29877517965E-01  0.66596845764E-01  0.51100000000E-03 0. -1.
</event>
<event>
 8    1  0.2091070E+004  0.1043930E+01  0.7957747E-01            NaN
         13   -1    0    0    0    0  0.00000000000E+00  0.00000000000E+00  0.74505805969E-08  0.10566000000E+00  0.10566000000E+00 0.  1.
     999900   -1    0    0    0    0 -0.00000000000E+00 -0.00000000000E+00 -0.74505805969E-08  0.93827000000E+00  0.93827000000E+00 0.  1.
     999902    2    1    2    0    0  0.60709585848E-02 -0.12028594581E-01 -0.10896065055E-03  0.10304557468E+01  0.10303676483E+01 0.  0.
     999903    2    3    3    0    0  0.40617411650E-01 -0.13988148971E-01  0.12598264193E+00  0.14079491848E+00  0.45892707071E-01 0.  0.
         14    1    1    2    0    0 -0.60709585848E-02  0.12028594581E-01  0.10896065055E-03  0.13474253158E-01  0.00000000000E+00 0.  1.
     999901    1    3    3    0    0 -0.34546453065E-01  0.19595543902E-02 -0.12609160258E+00  0.88966082836E+00  0.88000000000E+00 0.  1.
        -11    1    4    4    0    0  0.19277857228E-01 -0.29992737239E-01  0.62928767875E-01  0.72329046818E-01  0.51100000000E-03 0.  1.
         11    1    4    4    0    0  0.21339554422E-01  0.16004588267E-01  0.63053874056E-01  0.68465871666E-01  0.51100000000E-03 0. -1.
</event>
<event>
 8    1  0.2218677E+004  0.1043930E+01  0.7957747E-01            NaN
         13   -1    0    0    0    0  0.00000000000E+00  0.00000000000E+00  0.74505805969E-08  0.10566000000E+00  0.10566000000E+00 0. -1.
     999900   -1    0    0    0    0 -0.00000000000E+00 -0.00000000000E+00 -0.74505805969E-08  0.93827000000E+00  0.93827000000E+00 0.  1.
     999902    2    1    2    0    0 -0.81650138317E-02 -0.66316716161E-02  0.90795228220E-02  0.10300345240E+01  0.10299407926E+01 0.  0.
     999903    2    3    3    0    0 -0.23320238515E-01  0.22044119273E-01  0.12895965323E+00  0.14131453012E+00  0.48056503647E-01 0.  0.
         14    1    1    2    0    0  0.81650138317E-02  0.66316716161E-02 -0.90795228220E-02  0.13895476025E-01  0.00000000000E+00 0.  1.
     999901    1    3    3    0    0  0.15155224683E-01 -0.28675790890E-01 -0.11988013040E+00  0.88871999386E+00  0.88000000000E+00 0.  1.
        -11    1    4    4    0    0 -0.15324717904E-01 -0.82225741632E-02  0.88296616629E-01  0.89994507243E-01  0.51100000000E-03 0. -1.
         11    1    4    4    0    0 -0.79955206115E-02  0.30266693437E-01  0.40663036597E-01  0.51320022873E-01  0.51100000000E-03 0.  1.
</event>
<event>
 8    1  0.2091070E+004  0.1043930E+01  0.7957747E-01            NaN
         13   -1    0    0    0    0  0.00000000000E+00  0.00000000000E+00  0.74505805969E-08  0.10566000000E+00  0.10566000000E+00 0.  1.
     999900   -1    0    0    0    0 -0.00000000000E+00 -0.00000000000E+00 -0.74505805969E-08  0.93827000000E+00  0.93827000000E+00 0.  1.
     999902    2    1    2    0    0 -0.53278745462E-02  0.21205985582E-01 -0.23155502093E-03  0.10220637317E+01  0.10218297989E+01 0.  0.
     999903    2    3    3    0    0 -0.18371580895E-01  0.60842020132E-01  0.10936584449E+00  0.13428406112E+00  0.45078317754E-01 0.  0.
         14    1    1    2    0    0  0.53278745462E-02 -0.21205985582E-01  0.23155502093E-03  0.21866268301E-01  0.00000000000E+00 0. -1.
     999901    1    3    3    0    0  0.13043706349E-01 -0.39636034550E-01 -0.10959739951E+00  0.88777967058E+00  0.88000000000E+00 0.  1.
        -11    1    4    4    0    0 -0.31720280003E-01  0.54456874131E-01  0.91002273060E-01  0.11069508628E+00  0.51100000000E-03 0.  1.
         11    1    4    4    0    0  0.13348699108E-01  0.63851460013E-02  0.18363571431E-01  0.23588974841E-01  0.51100000000E-03 0. -1.
</event>
<event>
 8    1  0.2091070E+004  0.1043930E+01  0.7957747E-01            NaN
         13   -1    0    0    0    0  0.00000000000E+00  0.00000000000E+00  0.74505805969E-08  0.10566000000E+00  0.10566000000E+00 0.  1.
     999900   -1    0    0    0    0 -0.00000000000E+00 -0.00000000000E+00 -0.74505805969E-08  0.93827000000E+00  0.93827000000E+00 0. -1.
     999902    2    1    2    0    0 -0.12657760806E-01 -0.20675569145E-01  0.10404751938E-01  0.10175490044E+01  0.10172069698E+01 0.  0.
     999903    2    3    3    0    0  0.23853736657E-02  0.18427811113E-01 -0.11773488819E+00  0.12728211313E+00  0.44653759045E-01 0.  0.
         14    1    1    2    0    0  0.12657760806E-01  0.20675569145E-01 -0.10404751938E-01  0.26380995640E-01  0.00000000000E+00 0. -1.
     999901    1    3    3    0    0 -0.15043134472E-01 -0.39103380258E-01  0.12813964013E+00  0.89026689123E+00  0.88000000000E+00 0.  1.
        -11    1    4    4    0    0  0.27591504678E-02 -0.13136621455E-01 -0.16714491341E-01  0.21443392370E-01  0.51100000000E-03 0.  1.
         11    1    4    4    0    0 -0.37377680210E-03  0.31564432568E-01 -0.10102039685E+00  0.10583872076E+00  0.51100000000E-03 0. -1.
</event>
<event>
 8    1  0.2091070E+004  0.1043930E+01  0.7957747E-01            NaN
         13   -1    0    0    0    0  0.00000000000E+00  0.00000000000E+00  0.74505805969E-08  0.10566000000E+00  0.10566000000E+00 0.  1.
     999900   -1    0    0    0    0 -0.00000000000E+00 -0.00000000000E+00 -0.74505805969E-08  0.93827000000E+00  0.93827000000E+00 0.  1.
     999902    2    1    2    0    0  0.17767736539E-03  0.94166469710E-02  0.95365980687E-02  0.10305265858E+01  0.10304394172E+01 0.  0.
     999903    2    3    3    0    0  0.25063743481E-03  0.11079943463E+00  0.75532531746E-01  0.14225076253E+00  0.47471449889E-01 0.  0.
         14    1    1    2    0    0 -0.17767736539E-03 -0.94166469710E-02 -0.95365980687E-02  0.13403414197E-01  0.00000000000E+00 0. -1.
     999901    1    3    3    0    0 -0.72960069413E-04 -0.10138278766E+00 -0.65995933677E-01  0.88827582328E+00  0.88000000000E+00 0.  1.
        -11    1    4    4    0    0  0.17427102250E-04  0.95977694995E-02  0.29582059095E-01  0.31104289485E-01  0.51100000000E-03 0. -1.
         11    1    4    4    0    0  0.23321033255E-03  0.10120166513E+00  0.45950472651E-01  0.11114647304E+00  0.51100000000E-03 0.  1.
</event>
<event>
 8    1  0.2091070E+004  0.1043930E+01  0.7957747E-01            NaN
         13   -1    0    0    0    0  0.00000000000E+00  0.00000000000E+00  0.74505805969E-08  0.10566000000E+00  0.10566000000E+00 0. -1.
     999900   -1    0    0    0    0 -0.00000000000E+00 -0.00000000000E+00 -0.74505805969E-08  0.93827000000E+00  0.93827000000E+00 0. -1.
     999902    2    1    2    0    0  0.25523235870E-02 -0.30770224562E-02 -0.13451756408E-01  0.10298967476E+01  0.10298011354E+01 0.  0.
     999903    2    3    3    0    0 -0.10598052774E+00  0.77466385332E-01 -0.14291257906E-01  0.13957808266E+00  0.45220437738E-01 0.  0.
         14    1    1    2    0    0 -0.25523235870E-02  0.30770224562E-02  0.13451756408E-01  0.14033252415E-01  0.00000000000E+00 0. -1.
     999901    1    3    3    0    0  0.10853285133E+00 -0.80543407788E-01  0.83950149765E-03  0.89031866493E+00  0.88000000000E+00 0.  1.
        -11    1    4    4    0    0 -0.71661828436E-01  0.25680314211E-01 -0.14262819259E-01  0.77450534711E-01  0.51100000000E-03 0. -1.
         11    1    4    4    0    0 -0.34318699304E-01  0.51786071121E-01 -0.28438646578E-04  0.62127547946E-01  0.51100000000E-03 0.  1.
</event>
<event>
 8    1  0.2091070E+004  0.1043930E+01  0.7957747E-01            NaN
         13   -1    0    0    0    0  0.00000000000E+00  0.00000000000E+00  0.74505805969E-08  0.10566000000E+00  0.10566000000E+00 0.  1.
     999900   -1    0    0    0    0 -0.00000000000E+00 -0.00000000000E+00 -0.74505805969E-08  0.93827000000E+00  0.93827000000E+00 0.  1.
     999902    2    1    2    0    0 -0.11727484247E-01  0.81866679254E-02 -0.50111367998E-03  0.10296189367E+01  0.10295194744E+01 0.  0.
     999903    2    3    3    0    0  0.52264719934E-01  0.88827572301E-01  0.82922913728E-01  0.13969898185E+00  0.44918340996E-01 0.  0.
         14    1    1    2    0    0  0.11727484247E-01 -0.81866679254E-02  0.50111367998E-03  0.14311063322E-01  0.00000000000E+00 0. -1.
     999901    1    3    3    0    0 -0.63992204180E-01 -0.80640904376E-01 -0.83424027408E-01  0.88991995483E+00  0.88000000000E+00 0.  1.
        -11    1    4    4    0    0  0.11941581359E-01  0.60489835012E-01  0.34739325235E-01  0.70772193296E-01  0.51100000000E-03 0. -1.
         11    1    4    4    0    0  0.40323138574E-01  0.28337737289E-01  0.48183588494E-01  0.68926788553E-01  0.51100000000E-03 0.  1.
</event>
<event>
 8    1  0.2091070E+004  0.1043930E+01  0.7957747E-01            NaN
         13   -1    0    0    0    0  0.00000000000E+00  0.00000000000E+00  0.74505805969E-08  0.10566000000E+00  0.10566000000E+00 0.  1.
     999900   -1    0    0    0    0 -0.00000000000E+00 -0.00000000000E+00 -0.74505805969E-08  0.93827000000E+00  0.93827000000E+00 0.  1.
     999902    2    1    2    0    0 -0.60440661994E-02 -0.39097384033E-02 -0.12649758927E-01  0.10293755096E+01  0.10292726104E+01 0.  0.
     999903    2    3    3    0    0 -0.65883479544E-01 -0.54700232486E-01  0.99652394718E-01  0.13877335182E+00  0.44662009498E-01 0.  0.
         14    1    1    2    0    0  0.60440661994E-02  0.39097384033E-02  0.12649758927E-01  0.14554490425E-01  0.00000000000E+00 0.  1.
     999901    1    3    3    0    0  0.59839413345E-01  0.50790494083E-01 -0.11230215365E+00  0.89060215775E+00  0.88000000000E+00 0.  1.
        -11    1    4    4    0    0 -0.80864946085E-02  0.76910318468E-02  0.15694865884E-01  0.19264820322E-01  0.51100000000E-03 0.  1.
         11    1    4    4    0    0 -0.57796984935E-01 -0.62391264333E-01  0.83957528834E-01  0.11950853150E+00  0.51100000000E-03 0. -1.
</event>
<event>
 8    1  0.2091070E+004  0.1043930E+01  0.7957747E-01            NaN
         13   -1    0    0    0    0  0.00000000000E+00  0.00000000000E+00  0.74505805969E-08  0.10566000000E+00  0.10566000000E+00 0. -1.
     999900   -1    0    0    0    0 -0.00000000000E+00 -0.00000000000E+00 -0.74505805969E-08  0.93827000000E+00  0.93827000000E+00 0. -1.
     999902    2    1    2    0    0 -0.92676658709E-02  0.83422979993E-02  0.54702934877E-02  0.10303135512E+01  0.10302235710E+01 0.  0.
     999903    2    3    3    0    0  0.78360575036E-01 -0.47015157242E-01  0.95942764382E-01  0.13962369249E+00  0.44033586456E-01 0.  0.
         14    1    1    2    0    0  0.92676658709E-02 -0.83422979993E-02 -0.54702934877E-02  0.13616448782E-01  0.00000000000E+00 0.  1.
     999901    1    3    3    0    0 -0.87628240906E-01  0.55357455241E-01 -0.90472470894E-01  0.89068985873E+00  0.88000000000E+00 0. -1.
        -11    1    4    4    0    0  0.18917751621E-02 -0.16422831541E-01  0.58171097617E-02  0.17532486876E-01  0.51100000000E-03 0. -1.
         11    1    4    4    0    0  0.76468799874E-01 -0.30592325701E-01  0.90125654620E-01  0.12209120561E+00  0.51100000000E-03 0.  1.
</event>
<event>
 8    1  0.2091070E+004  0.1043930E+01  0.7957747E-01            NaN
         13   -1    0    0    0    0  0.00000000000E+00  0.00000000000E+00  0.74505805969E-08  0.10566000000E+00  0.10566000000E+00 0. -1.
     999900   -1    0    0    0    0 -0.00000000000E+00 -0.00000000000E+00 -0.74505805969E-08  0.93827000000E+00  0.93827000000E+00 0.  1.
     999902    2    1    2    0    0  0.12527448240E-01 -0.19898123515E-02  0.49087460422E-02  0.10303288199E+01  0.10302390427E+01 0.  0.
     999903    2    3    3    0    0 -0.72619921029E-01 -0.56428681295E-01 -0.94279829301E-01  0.13900842945E+00  0.44461311738E-01 0.  0.
         14    1    1    2    0    0 -0.12527448240E-01  0.19898123515E-02 -0.49087460422E-02  0.13601180107E-01  0.00000000000E+00 0. -1.
     999901    1    3    3    0    0  0.85147369269E-01  0.54438868943E-01  0.99188575343E-01  0.89132039045E+00  0.88000000000E+00 0. -1.
        -11    1    4    4    0    0 -0.63423967423E-02  0.10097166465E-02 -0.28917927190E-01  0.29626899232E-01  0.51100000000E-03 0. -1.
         11    1    4    4    0    0 -0.66277524287E-01 -0.57438397941E-01 -0.65361902111E-01  0.10938153022E+00  0.51100000000E-03 0.  1.
</event>
<event>
 8    1  0.2091070E+004  0.1043930E+01  0.7957747E-01            NaN
         13   -1    0    0    0    0  0.00000000000E+00  0.00000000000E+00  0.74505805969E-08  0.10566000000E+00  0.10566000000E+00 0. -1.
     999900   -1    0    0    0    0 -0.00000000000E+00 -0.00000000000E+00 -0.74505805969E-08  0.93827000000E+00  0.93827000000E+00 0. -1.
     999902    2    1    2    0    0  0.30505070140E-02  0.12733128687E-01  0.48576109968E-02  0.10299645231E+01  0.10298698386E+01 0.  0.
     999903    2    3    3    0    0 -0.31853233791E-02  0.13370384964E+00  0.13555534611E-01  0.14162424218E+00  0.44573621813E-01 0.  0.
         14    1    1    2    0    0 -0.30505070140E-02 -0.12733128687E-01 -0.48576109968E-02  0.13965476855E-01  0.00000000000E+00 0. -1.
     999901    1    3    3    0    0  0.62358303931E-02 -0.12097072095E+00 -0.86979236141E-02  0.88834028096E+00  0.88000000000E+00 0.  1.
        -11    1    4    4    0    0 -0.12092247414E-01  0.10076369762E+00  0.26881618157E-01  0.10498775034E+00  0.51100000000E-03 0. -1.
         11    1    4    4    0    0  0.89069240348E-02  0.32940152020E-01 -0.13326083547E-01  0.36636491843E-01  0.51100000000E-03 0.  1.
</event>
<event>
 8    1  0.2091070E+004  0.1043930E+01  0.7957747E-01            NaN
         13   -1    0    0    0    0  0.00000000000E+00  0.00000000000E+00  0.74505805969E-08  0.10566000000E+00  0.10566000000E+00 0. -1.
     999900   -1    0    0    0    0 -0.00000000000E+00 -0.00000000000E+00 -0.74505805969E-08  0.93827000000E+00  0.93827000000E+00 0. -1.
     999902    2    1    2    0    0  0.10689266242E-01  0.21327181363E-02  0.71991534501E-02  0.10308672013E+01  0.10307844343E+01 0.  0.
     999903    2    3    3    0    0 -0.31259931812E-01  0.41631487298E-01  0.12360392830E+00  0.14133363836E+00  0.44574680813E-01 0.  0.
         14    1    1    2    0    0 -0.10689266242E-01 -0.21327181363E-02 -0.71991534501E-02  0.13062798699E-01  0.00000000000E+00 0.  1.
     999901    1    3    3    0    0  0.41949198054E-01 -0.39498769162E-01 -0.11640477485E+00  0.88953356294E+00  0.88000000000E+00 0. -1.
        -11    1    4    4    0    0  0.39627063207E-02 -0.30406487347E-02  0.39364233979E-01  0.39683152897E-01  0.51100000000E-03 0.  1.
         11    1    4    4    0    0 -0.35222638133E-01  0.44672136033E-01  0.84239694325E-01  0.10165048547E+00  0.51100000000E-03 0. -1.
</event>
<event>
 8    1  0.2091070E+004  0.1043930E+01  0.7957747E-01            NaN
         13   -1    0    0    0    0  0.00000000000E+00  0.00000000000E+00  0.74505805969E-08  0.10566000000E+00  0.10566000000E+00 0. -1.
     999900   -1    0    0    0    0 -0.00000000000E+00 -0.00000000000E+00 -0.74505805969E-08  0.93827000000E+00  0.93827000000E+00 0. -1.
     999902    2    1    2    0    0 -0.14072952590E-03  0.38669555699E-02 -0.12740707215E-01  0.10306146416E+01  0.10305286219E+01 0.  0.
     999903    2    3    3    0    0  0.46547789434E-01  0.31327193520E-01  0.11912137843E+00  0.13914310970E+00  0.44975687044E-01 0.  0.
         14    1    1    2    0    0  0.14072952590E-03 -0.38669555699E-02  0.12740707215E-01  0.13315358445E-01  0.00000000000E+00 0. -1.
     999901    1    3    3    0    0 -0.46688518959E-01 -0.27460237950E-01 -0.13186208564E+00  0.89147153185E+00  0.88000000000E+00 0. -1.
        -11    1    4    4    0    0  0.53416747517E-01  0.17166062169E-01  0.95156787762E-01  0.11046763320E+00  0.51100000000E-03 0. -1.
         11    1    4    4    0    0 -0.68689580837E-02  0.14161131351E-01  0.23964590664E-01  0.28675476509E-01  0.51100000000E-03 0.  1.
</event>
<event>
 8    1  0.2091070E+004  0.1043930E+01  0.7957747E-01            NaN
         13   -1    0    0    0    0  0.00000000000E+00  0.00000000000E+00  0.74505805969E-08  0.10566000000E+00  0.10566000000E+00 0. -1.
     999900   -1    0    0    0    0 -0.00000000000E+00 -0.00000000000E+00 -0.74505805969E-08  0.93827000000E+00  0.93827000000E+00 0. -1.
     999902    2    1    2    0    0  0.15356114083E-01  0.15720446987E-01  0.16031531204E-01  0.10167279286E+01  0.10163639743E+01 0.  0.
     999903    2    3    3    0    0  0.80285048803E-01 -0.76741449122E-01 -0.43440004704E-01  0.12751376300E+00  0.45141850562E-01 0.  0.
         14    1    1    2    0    0 -0.15356114083E-01 -0.15720446987E-01 -0.16031531204E-01  0.27202071354E-01  0.00000000000E+00 0. -1.
     999901    1    3    3    0    0 -0.64928934720E-01  0.92461896108E-01  0.59471535908E-01  0.88921416564E+00  0.88000000000E+00 0.  1.
        -11    1    4    4    0    0  0.72786866452E-01 -0.44208322707E-01 -0.22439336297E-01  0.88068658778E-01  0.51100000000E-03 0.  1.
         11    1    4    4    0    0  0.74981823514E-02 -0.32533126415E-01 -0.21000668407E-01  0.39445104226E-01  0.51100000000E-03 0. -1.
</event>
<event>
 8    1  0.2091070E+004  0.1043930E+01  0.7957747E-01            NaN
         13   -1    0    0    0    0  0.00000000000E+00  0.00000000000E+00  0.74505805969E-08  0.10566000000E+00  0.10566000000E+00 0. -1.
     999900   -1    0    0    0    0 -0.00000000000E+00 -0.00000000000E+00 -0.74505805969E-08  0.93827000000E+00  0.93827000000E+00 0. -1.
     999902    2    1    2    0    0  0.13093923218E-02 -0.40638674983E-02 -0.13086560530E-01  0.10301645507E+01  0.10300725770E+01 0.  0.
     999903    2    3    3    0    0 -0.76253985411E-01 -0.60296271588E-01 -0.92393446712E-01  0.14141951246E+00  0.44862220762E-01 0.  0.
         14    1    1    2    0    0 -0.13093923218E-02  0.40638674983E-02  0.13086560530E-01  0.13765449277E-01  0.00000000000E+00 0. -1.
     999901    1    3    3    0    0  0.77563377733E-01  0.56232404090E-01  0.79306886182E-01  0.88874503826E+00  0.88000000000E+00 0.  1.
        -11    1    4    4    0    0 -0.67538569517E-01 -0.31010595133E-01 -0.51717795213E-01  0.90543397582E-01  0.51100000000E-03 0.  1.
         11    1    4    4    0    0 -0.87154158940E-02 -0.29285676455E-01 -0.40675651499E-01  0.50876114882E-01  0.51100000000E-03 0. -1.
</event>
<event>
 8    1  0.2091070E+004  0.1043930E+01  0.7957747E-01            NaN
         13   -1    0    0    0    0  0.00000000000E+00  0.00000000000E+00  0.74505805969E-08  0.10566000000E+00  0.10566000000E+00 0.  1.
     999900   -1    0    0    0    0 -0.00000000000E+00 -0.00000000000E+00 -0.74505805969E-08  0.93827000000E+00  0.93827000000E+00 0. -1.
     999902    2    1    2    0    0  0.54549346871E-02 -0.70591020366E-02  0.13899360972E-02  0.10349012040E+01  0.10348618183E+01 0.  0.
     999903    2    3    3    0    0  0.63162457842E-01 -0.71250916274E-01 -0.99700521915E-01  0.14491804244E+00  0.44663808657E-01 0.  0.
         14    1    1    2    0    0 -0.54549346871E-02  0.70591020366E-02 -0.13899360972E-02  0.90287959528E-02  0.00000000000E+00 0. -1.
     999901    1    3    3    0    0 -0.57707523155E-01  0.64191814238E-01  0.10109045801E+00  0.88998316161E+00  0.88000000000E+00 0.  1.
        -11    1    4    4    0    0  0.19119932538E-01  0.16385721832E-02 -0.25817615462E-01  0.32172459157E-01  0.51100000000E-03 0. -1.
         11    1    4    4    0    0  0.44042525304E-01 -0.72889488457E-01 -0.73882906453E-01  0.11274558328E+00  0.51100000000E-03 0.  1.
</event>
<event>
 8    1  0.2091070E+004  0.1043930E+01  0.7957747E-01            NaN
         13   -1    0    0    0    0  0.00000000000E+00  0.00000000000E+00  0.74505805969E-08  0.10566000000E+00  0.10566000000E+00 0. -1.
     999900   -1    0    0    0    0 -0.00000000000E+00 -0.00000000000E+00 -0.74505805969E-08  0.93827000000E+00  0.93827000000E+00 0. -1.
     999902    2    1    2    0    0  0.49667923717E-02  0.11627257199E-01 -0.64691349090E-02  0.10297274705E+01  0.10296295216E+01 0.  0.
     999903    2    3    3    0    0 -0.11119835039E+00  0.11309816863E-01 -0.71312375845E-01  0.13972798344E+00  0.44107474646E-01 0.  0.
         14    1    1    2    0    0 -0.49667923717E-02 -0.11627257199E-01  0.64691349090E-02  0.14202529454E-01  0.00000000000E+00 0.  1.
     999901    1    3    3    0    0  0.11616514276E+00  0.31744033567E-03  0.64843240936E-01  0.88999948711E+00  0.88000000000E+00 0.  1.
        -11    1    4    4    0    0 -0.57757081269E-01 -0.12004703005E-01 -0.20706583557E-01  0.62522132518E-01  0.51100000000E-03 0.  1.
         11    1    4    4    0    0 -0.53441269120E-01  0.23314519869E-01 -0.50605792288E-01  0.77205850918E-01  0.51100000000E-03 0. -1.
</event>
<event>
 8    1  0.2091070E+004  0.1043930E+01  0.7957747E-01            NaN
         13   -1    0    0    0    0  0.00000000000E+00  0.00000000000E+00  0.74505805969E-08  0.10566000000E+00  0.10566000000E+00 0.  1.
     999900   -1    0    0    0    0 -0.00000000000E+00 -0.00000000000E+00 -0.74505805969E-08  0.93827000000E+00  0.93827000000E+00 0. -1.
     999902    2    1    2    0    0 -0.51857094793E-02 -0.12571252934E-01  0.49734964934E-02  0.10294502331E+01  0.10293483952E+01 0.  0.
     999903    2    3    3    0    0  0.18716122276E-01  0.20104444771E-01  0.12937337394E+00  0.13977932296E+00  0.45236128377E-01 0.  0.
         14    1    1    2    0    0  0.51857094793E-02  0.12571252934E-01 -0.49734964934E-02  0.14479766936E-01  0.00000000000E+00 0.  1.
     999901    1    3    3    0    0 -0.23901831756E-01 -0.32675697705E-01 -0.12439987744E+00  0.88967091011E+00  0.88000000000E+00 0. -1.
        -11    1    4    4    0    0  0.19711136772E-01 -0.55592675486E-03  0.18673562257E-01  0.27162492812E-01  0.51100000000E-03 0.  1.
         11    1    4    4    0    0 -0.99501449576E-03  0.20660371525E-01  0.11069981168E+00  0.11261683015E+00  0.51100000000E-03 0. -1.
</event>
<event>
 8    1  0.2091070E+004  0.1043930E+01  0.7957747E-01            NaN
         13   -1    0    0    0    0  0.00000000000E+00  0.00000000000E+00  0.74505805969E-08  0.10566000000E+00  0.10566000000E+00 0.  1.
     999900   -1    0    0    0    0 -0.00000000000E+00 -0.00000000000E+00 -0.74505805969E-08  0.93827000000E+00  0.93827000000E+00 0.  1.
     999902    2    1    2    0    0  0.28132666636E-02 -0.67227952827E-02  0.12175886448E-01  0.10297397690E+01  0.10296419908E+01 0.  0.
     999903    2    3    3    0    0  0.72420479306E-01 -0.31678043330E-01 -0.10491408753E+00  0.13890982422E+00  0.45174652748E-01 0.  0.
         14    1    1    2    0    0 -0.28132666636E-02  0.67227952827E-02 -0.12175886448E-01  0.14190231025E-01  0.00000000000E+00 0. -1.
     999901    1    3    3    0    0 -0.69607212642E-01  0.24955248047E-01  0.11708997398E+00  0.89082994475E+00  0.88000000000E+00 0. -1.
        -11    1    4    4    0    0  0.43982432678E-01 -0.39453649397E-01 -0.53853491158E-01  0.79946885279E-01  0.51100000000E-03 0.  1.
         11    1    4    4    0    0  0.28438046628E-01  0.77756060670E-02 -0.51060596377E-01  0.58962938946E-01  0.51100000000E-03 0. -1.
</event>
<event>
 8    1  0.2091070E+004  0.1043930E+01  0.7957747E-01            NaN
         13   -1    0    0    0    0  0.00000000000E+00  0.00000000000E+00  0.74505805969E-08  0.10566000000E+00  0.10566000000E+00 0. -1.
     999900   -1    0    0    0    0 -0.00000000000E+00 -0.00000000000E+00 -0.74505805969E-08  0.93827000000E+00  0.93827000000E+00 0.  1.
     999902    2    1    2    0    0 -0.24321426252E-02  0.12634284244E-01  0.53626968237E-02  0.10299908833E+01  0.10298965583E+01 0.  0.
     999903    2    3    3    0    0 -0.17816962714E-01  0.16544934679E-01  0.13131992710E+00  0.14088053600E+00  0.44846662609E-01 0.  0.
         14    1    1    2    0    0  0.24321426252E-02 -0.12634284244E-01 -0.53626968237E-02  0.13939116662E-01  0.00000000000E+00 0.  1.
     999901    1    3    3    0    0  0.15384820089E-01 -0.39106504353E-02 -0.12595723028E+00  0.88911034733E+00  0.88000000000E+00 0.  1.
        -11    1    4    4    0    0 -0.10807718591E-01  0.65972762345E-02  0.12748213417E+00  0.12811044645E+00  0.51100000000E-03 0.  1.
         11    1    4    4    0    0 -0.70092441229E-02  0.99476584445E-02  0.38377929274E-02  0.12770089556E-01  0.51100000000E-03 0. -1.
</event>
<event>
 8    1  0.2091070E+004  0.1043930E+01  0.7957747E-01            NaN
         13   -1    0    0    0    0  0.00000000000E+00  0.00000000000E+00  0.74505805969E-08  0.10566000000E+00  0.10566000000E+00 0. -1.
     999900   -1    0    0    0    0 -0.00000000000E+00 -0.00000000000E+00 -0.74505805969E-08  0.93827000000E+00  0.93827000000E+00 0.  1.
     999902    2    1    2    0    0  0.78896479094E-02 -0.10835134274E-01 -0.31797286670E-02  0.10301547558E+01  0.10300626503E+01 0.  0.
     999903    2    3    3    0    0 -0.80621107105E-01 -0.10016977778E+00  0.32886315588E-01  0.14048313556E+00  0.46046219522E-01 0.  0.
         14    1    1    2    0    0 -0.78896479094E-02  0.10835134274E-01  0.31797286670E-02  0.13775244218E-01  0.00000000000E+00 0. -1.
     999901    1    3    3    0    0  0.88510755015E-01  0.89334643504E-01 -0.36066044255E-01  0.88967162022E+00  0.88000000000E+00 0. -1.
        -11    1    4    4    0    0 -0.70805968593E-01 -0.83644722571E-01  0.92014423541E-02  0.10997659962E+00  0.51100000000E-03 0. -1.
         11    1    4    4    0    0 -0.98151385122E-02 -0.16525055208E-01  0.23684873234E-01  0.30506535935E-01  0.51100000000E-03 0.  1.
</event>
<event>
 8    1  0.2091070E+004  0.1043930E+01  0.7957747E-01            NaN
         13   -1    0    0    0    0  0.00000000000E+00  0.00000000000E+00  0.74505805969E-08  0.10566000000E+00  0.10566000000E+00 0. -1.
     999900   -1    0    0    0    0 -0.00000000000E+00 -0.00000000000E+00 -0.74505805969E-08  0.93827000000E+00  0.93827000000E+00 0.  1.
     999902    2    1    2    0    0 -0.12873007230E-01  0.81899617811E-03  0.65880183663E-02  0.10294459724E+01  0.10293440742E+01 0.  0.
     999903    2    3    3    0    0 -0.85961841201E-01  0.21815143935E-02 -0.10022404164E+00  0.13997835057E+00  0.46420716896E-01 0.  0.
         14    1    1    2    0    0  0.12873007230E-01 -0.81899617811E-03 -0.65880183663E-02  0.14484027612E-01  0.00000000000E+00 0.  1.
     999901    1    3    3    0    0  0.73088833971E-01 -0.13625182154E-02  0.10681206000E+00  0.88946762182E+00  0.88000000000E+00 0. -1.
        -11    1    4    4    0    0 -0.50849115566E-01  0.24151360392E-01 -0.57392790189E-01  0.80393496313E-01  0.51100000000E-03 0. -1.
         11    1    4    4    0    0 -0.35112725635E-01 -0.21969845998E-01 -0.42831251449E-01  0.59584854253E-01  0.51100000000E-03 0.  1.
</event>
<event>
 8    1  0.2091070E+004  0.1043930E+01  0.7957747E-01            NaN
         13   -1    0    0    0    0  0.00000000000E+00  0.00000000000E+00  0.74505805969E-08  0.10566000000E+00  0.10566000000E+00 0.  1.
     999900   -1    0    0    0    0 -0.00000000000E+00 -0.00000000000E+00 -0.74505805969E-08  0.93827000000E+00  0.93827000000E+00 0. -1.
     999902    2    1    2    0    0 -0.13472321096E-01  0.96092842245E-03  0.25834786762E-02  0.10301785935E+01  0.10300868086E+01 0.  0.
     999903    2    3    3    0    0 -0.38180678642E-01  0.11338162246E+00  0.59076458140E-01  0.14088653116E+00  0.45230854772E-01 0.  0.
         14    1    1    2    0    0  0.13472321096E-01 -0.96092842245E-03 -0.25834786762E-02  0.13751406518E-01  0.00000000000E+00 0.  1.
     999901    1    3    3    0    0  0.24708357546E-01 -0.11242069403E+00 -0.56492979464E-01  0.88929206232E+00  0.88000000000E+00 0. -1.
        -11    1    4    4    0    0 -0.28684500928E-01  0.11430673778E+00  0.57747562207E-01  0.13123975372E+00  0.51100000000E-03 0.  1.
         11    1    4    4    0    0 -0.94961777140E-02 -0.92511532244E-03  0.13288959334E-02  0.96467774380E-02  0.51100000000E-03 0. -1.
</event>
<event>
 8    1  0.2091070E+004  0.1043930E+01  0.7957747E-01            NaN
         13   -1    0    0    0    0  0.00000000000E+00  0.00000000000E+00  0.74505805969E-08  0.10566000000E+00  0.10566000000E+00 0. -1.
     999900   -1    0    0    0    0 -0.00000000000E+00 -0.00000000000E+00 -0.74505805969E-08  0.93827000000E+00  0.93827000000E+00 0. -1.
     999902    2    1    2    0    0  0.13447572116E-02 -0.12247496840E-01  0.77081327493E-02  0.10293964230E+01  0.10292938214E+01 0.  0.
     999903    2    3    3    0    0 -0.12938723077E+00  0.18393770358E-01 -0.15927262428E-01  0.13889747752E+00  0.44265622084E-01 0.  0.
         14    1    1    2    0    0 -0.13447572116E-02  0.12247496840E-01 -0.77081327493E-02  0.14533577030E-01  0.00000000000E+00 0.  1.
     999901    1    3    3    0    0  0.13073198798E+00 -0.30641267199E-01  0.23635395177E-01  0.89049894545E+00  0.88000000000E+00 0.  1.
        -11    1    4    4    0    0 -0.71196574382E-01  0.32161746409E-01 -0.10988208300E-01  0.78894435663E-01  0.51100000000E-03 0.  1.
         11    1    4    4    0    0 -0.58190656391E-01 -0.13767976051E-01 -0.49390541275E-02  0.60003041860E-01  0.51100000000E-03 0. -1.
</event>
<event>
 8    1  0.2091070E+004  0.1043930E+01  0.7957747E-01            NaN
         13   -1    0    0    0    0  0.00000000000E+00  0.00000000000E+00  0.74505805969E-08  0.10566000000E+00  0.10566000000E+00 0.  1.
     999900   -1    0    0    0    0 -0.00000000000E+00 -0.00000000000E+00 -0.74505805969E-08  0.93827000000E+00  0.93827000000E+00 0. -1.
     999902    2    1    2    0    0 -0.11859606375E-01  0.51804917480E-02  0.80758359169E-02  0.10286752668E+01  0.10285621506E+01 0.  0.
     999903    2    3    3    0    0 -0.69774495175E-01 -0.81233349727E-01 -0.71255435126E-01  0.13900401468E+00  0.52701440004E-01 0.  0.
         14    1    1    2    0    0  0.11859606375E-01 -0.51804917480E-02 -0.80758359169E-02  0.15254733163E-01  0.00000000000E+00 0.  1.
     999901    1    3    3    0    0  0.57914888800E-01  0.86413841475E-01  0.79331271043E-01  0.88967125215E+00  0.88000000000E+00 0.  1.
        -11    1    4    4    0    0 -0.60375221130E-01 -0.53825937261E-01 -0.25439901441E-01  0.84792974678E-01  0.51100000000E-03 0.  1.
         11    1    4    4    0    0 -0.93992740449E-02 -0.27407412466E-01 -0.45815533685E-01  0.54211040006E-01  0.51100000000E-03 0. -1.
</event>
<event>
 8    1  0.2091070E+004  0.1043930E+01  0.7957747E-01            NaN
         13   -1    0    0    0    0  0.00000000000E+00  0.00000000000E+00  0.74505805969E-08  0.10566000000E+00  0.10566000000E+00 0.  1.
     999900   -1    0    0    0    0 -0.00000000000E+00 -0.00000000000E+00 -0.74505805969E-08  0.93827000000E+00  0.93827000000E+00 0. -1.
     999902    2    1    2    0    0  0.10114852655E-03  0.23542029470E-02  0.12837065307E-01  0.10308784580E+01  0.10307958345E+01 0.  0.
     999903    2    3    3    0    0  0.21311125609E-01  0.63573380736E-01  0.11716226396E+00  0.14235080063E+00  0.45177599878E-01 0.  0.
         14    1    1    2    0    0 -0.10114852655E-03 -0.23542029470E-02 -0.12837065307E-01  0.13051541987E-01  0.00000000000E+00 0. -1.
     999901    1    3    3    0    0 -0.21209977083E-01 -0.61219177789E-01 -0.10432519866E+00  0.88852765738E+00  0.88000000000E+00 0. -1.
        -11    1    4    4    0    0  0.31718176652E-01  0.44429748302E-01  0.10234726876E+00  0.11599685258E+00  0.51100000000E-03 0. -1.
         11    1    4    4    0    0 -0.10407051043E-01  0.19143632434E-01  0.14814995203E-01  0.26353948054E-01  0.51100000000E-03 0.  1.
</event>
<event>
 8    1  0.2091070E+004  0.1043930E+01  0.7957747E-01            NaN
         13   -1    0    0    0    0  0.00000000000E+00  0.00000000000E+00  0.74505805969E-08  0.10566000000E+00  0.10566000000E+00 0. -1.
     999900   -1    0    0    0    0 -0.00000000000E+00 -0.00000000000E+00 -0.74505805969E-08  0.93827000000E+00  0.93827000000E+00 0. -1.
     999902    2    1    2    0    0  0.11464222370E-01 -0.48306136794E-02  0.39113871607E-02  0.10308892112E+01  0.10308067247E+01 0.  0.
     999903    2    3    3    0    0 -0.10505612616E+00 -0.21019639142E-01  0.79394385534E-01  0.13985792151E+00  0.42168173787E-01 0.  0.
         14    1    1    2    0    0 -0.11464222370E-01  0.48306136794E-02 -0.39113871607E-02  0.13040788802E-01  0.00000000000E+00 0.  1.
     999901    1    3    3    0    0  0.11652034853E+00  0.16189025463E-01 -0.75482998373E-01  0.89103128969E+00  0.88000000000E+00 0. -1.
        -11    1    4    4    0    0 -0.51338506415E-01  0.63926128662E-02  0.52870087101E-01  0.73973069230E-01  0.51100000000E-03 0.  1.
         11    1    4    4    0    0 -0.53717619744E-01 -0.27412252009E-01  0.26524298433E-01  0.65884852276E-01  0.51100000000E-03 0. -1.
</event>
<event>
 8    1  0.2091070E+004  0.1043930E+01  0.7957747E-01            NaN
         13   -1    0    0    0    0  0.00000000000E+00  0.00000000000E+00  0.74505805969E-08  0.10566000000E+00  0.10566000000E+00 0.  1.
     999900   -1    0    0    0    0 -0.00000000000E+00 -0.00000000000E+00 -0.74505805969E-08  0.93827000000E+00  0.93827000000E+00 0. -1.
     999902    2    1    2    0    0  0.95711025188E-02 -0.76025697565E-02  0.48075169868E-02  0.10307954163E+01  0.10307117312E+01 0.  0.
     999903    2    3    3    0    0  0.98326338481E-01  0.67317044588E-01 -0.60298865198E-01  0.14077896612E+00  0.44532132522E-01 0.  0.
         14    1    1    2    0    0 -0.95711025188E-02  0.76025697565E-02 -0.48075169868E-02  0.13134583736E-01  0.00000000000E+00 0.  1.
     999901    1    3    3    0    0 -0.88755235962E-01 -0.74919614344E-01  0.65106382185E-01  0.89001645014E+00  0.88000000000E+00 0.  1.
        -11    1    4    4    0    0  0.47787655431E-01  0.58384898636E-01 -0.30124572976E-01  0.81241660608E-01  0.51100000000E-03 0. -1.
         11    1    4    4    0    0  0.50538683050E-01  0.89321459514E-02 -0.30174292222E-01  0.59537305513E-01  0.51100000000E-03 0.  1.
</event>
<event>
 8    1  0.2091070E+004  0.1043930E+01  0.7957747E-01            NaN
         13   -1    0    0    0    0  0.00000000000E+00  0.00000000000E+00  0.74505805969E-08  0.10566000000E+00  0.10566000000E+00 0.  1.
     999900   -1    0    0    0    0 -0.00000000000E+00 -0.00000000000E+00 -0.74505805969E-08  0.93827000000E+00  0.93827000000E+00 0.  1.
     999902    2    1    2    0    0  0.13753760827E-02  0.12441094812E-01  0.66067296770E-02  0.10297765066E+01  0.10296792375E+01 0.  0.
     999903    2    3    3    0    0  0.64277620243E-01  0.45348938368E-01 -0.10633965373E+00  0.13972229248E+00  0.45011758292E-01 0.  0.
         14    1    1    2    0    0 -0.13753760827E-02 -0.12441094812E-01 -0.66067296770E-02  0.14153493438E-01  0.00000000000E+00 0. -1.
     999901    1    3    3    0    0 -0.62902244160E-01 -0.32907843556E-01  0.11294638340E+00  0.89005421409E+00  0.88000000000E+00 0. -1.
        -11    1    4    4    0    0  0.15617701624E-01  0.31335238507E-01 -0.66996360057E-01  0.75594861983E-01  0.51100000000E-03 0.  1.
         11    1    4    4    0    0  0.48659918619E-01  0.14013699861E-01 -0.39343293670E-01  0.64127430493E-01  0.51100000000E-03 0. -1.
</event>
<event>
 7    1  0.2091070E+004  0.1043930E+01  0.7957747E-01            NaN
         13   -1    0    0    0    0  0.00000000000E+00  0.00000000000E+00  0.74505805969E-08  0.10566000000E+00  0.10566000000E+00 0.  1.
     999900   -1    0    0    0    0 -0.00000000000E+00 -0.00000000000E+00 -0.74505805969E-08  0.93827000000E+00  0.93827000000E+00 0.  1.
     999903    2    1    2    0    0  0.24064471311E-01 -0.58832606458E-01 -0.79922133621E-01  0.11197218094E+00  0.45933076327E-01 0.  0.
         14    1    1    2    0    0  0.36675146860E-01 -0.13895462433E-01  0.22022216225E-01  0.44979198313E-01  0.00000000000E+00 0.  1.
     999901    1    1    2    0    0 -0.60739618171E-01  0.72728068890E-01  0.57899917396E-01  0.88697862074E+00  0.88000000000E+00 0. -1.
        -11    1    3    3    0    0  0.24237274443E-01 -0.14044435113E-01 -0.52347198215E-01  0.59373242391E-01  0.51100000000E-03 0. -1.
         11    1    3    3    0    0 -0.17280313134E-03 -0.44788171345E-01 -0.27574935406E-01  0.52598938553E-01  0.51100000000E-03 0.  1.
</event>
<event>
 8    1  0.2091070E+004  0.1043930E+01  0.7957747E-01            NaN
         13   -1    0    0    0    0  0.00000000000E+00  0.00000000000E+00  0.74505805969E-08  0.10566000000E+00  0.10566000000E+00 0. -1.
     999900   -1    0    0    0    0 -0.00000000000E+00 -0.00000000000E+00 -0.74505805969E-08  0.93827000000E+00  0.93827000000E+00 0. -1.
     999902    2    1    2    0    0 -0.69113975593E-02  0.91241478052E-02 -0.85486551533E-02  0.10296437481E+01  0.10295446328E+01 0.  0.
     999903    2    3    3    0    0  0.32873699557E-01  0.25997147933E-01  0.12382973383E+00  0.13869392347E+00  0.46321373058E-01 0.  0.
         14    1    1    2    0    0  0.69113975593E-02 -0.91241478052E-02  0.85486551533E-02  0.14286251934E-01  0.00000000000E+00 0. -1.
     999901    1    3    3    0    0 -0.39785097117E-01 -0.16873000128E-01 -0.13237838899E+00  0.89094982460E+00  0.88000000000E+00 0. -1.
        -11    1    4    4    0    0 -0.18039371208E-02 -0.19149314330E-02  0.64316271857E-01  0.64372083220E-01  0.51100000000E-03 0. -1.
         11    1    4    4    0    0  0.34677636678E-01  0.27912079366E-01  0.59513461975E-01  0.74321840245E-01  0.51100000000E-03 0.  1.
</event>
<event>
 8    1  0.2091070E+004  0.1043930E+01  0.7957747E-01            NaN
         13   -1    0    0    0    0  0.00000000000E+00  0.00000000000E+00  0.74505805969E-08  0.10566000000E+00  0.10566000000E+00 0.  1.
     999900   -1    0    0    0    0 -0.00000000000E+00 -0.00000000000E+00 -0.74505805969E-08  0.93827000000E+00  0.93827000000E+00 0.  1.
     999902    2    1    2    0    0 -0.61724050885E-02  0.71012277769E-02 -0.12126395778E-01  0.10285815312E+01  0.10284670101E+01 0.  0.
     999903    2    3    3    0    0 -0.45158618401E-01  0.10101623309E+00 -0.74603901900E-01  0.14052556908E+00  0.44024007361E-01 0.  0.
         14    1    1    2    0    0  0.61724050885E-02 -0.71012277769E-02  0.12126395778E-01  0.15348468819E-01  0.00000000000E+00 0.  1.
     999901    1    3    3    0    0  0.38986213313E-01 -0.93915005309E-01  0.62477506121E-01  0.88805596210E+00  0.88000000000E+00 0.  1.
        -11    1    4    4    0    0 -0.12969165469E-01  0.65430094238E-01 -0.24272488803E-01  0.70983880696E-01  0.51100000000E-03 0. -1.
         11    1    4    4    0    0 -0.32189452933E-01  0.35586138848E-01 -0.50331413096E-01  0.69541688385E-01  0.51100000000E-03 0.  1.
</event>
<event>
 8    1  0.2340098E+004  0.1043930E+01  0.7957747E-01            NaN
         13   -1    0    0    0    0  0.00000000000E+00  0.00000000000E+00  0.74505805969E-08  0.10566000000E+00  0.10566000000E+00 0. -1.
     999900   -1    0    0    0    0 -0.00000000000E+00 -0.00000000000E+00 -0.74505805969E-08  0.93827000000E+00  0.93827000000E+00 0. -1.
     999902    2    1    2    0    0  0.13087366969E-01  0.16729162851E-02 -0.68018019994E-02  0.10290860675E+01  0.10289790046E+01 0.  0.
     999903    2    3    3    0    0 -0.14365685708E-02  0.62167968366E-01  0.11539615812E+00  0.13846665519E+00  0.44607412739E-01 0.  0.
         14    1    1    2    0    0 -0.13087366969E-01 -0.16729162851E-02  0.68018019994E-02  0.14843932549E-01  0.00000000000E+00 0.  1.
     999901    1    3    3    0    0  0.14523935540E-01 -0.60495052081E-01 -0.12219796012E+00  0.89061941226E+00  0.88000000000E+00 0. -1.
        -11    1    4    4    0    0  0.21184482350E-01  0.24473291788E-01  0.44130773199E-01  0.54731257682E-01  0.51100000000E-03 0.  1.
         11    1    4    4    0    0 -0.22621050921E-01  0.37694676578E-01  0.71265384924E-01  0.83735397512E-01  0.51100000000E-03 0. -1.
</event>
<event>
 8    1  0.2091070E+004  0.1043930E+01  0.7957747E-01            NaN
         13   -1    0    0    0    0  0.00000000000E+00  0.00000000000E+00  0.74505805969E-08  0.10566000000E+00  0.10566000000E+00 0. -1.
     999900   -1    0    0    0    0 -0.00000000000E+00 -0.00000000000E+00 -0.74505805969E-08  0.93827000000E+00  0.93827000000E+00 0.  1.
     999902    2    1    2    0    0 -0.35334083893E-02 -0.67770007039E-02 -0.11612414277E-01  0.10300281700E+01  0.10299343523E+01 0.  0.
     999903    2    3    3    0    0  0.66347867872E-01  0.11180220295E+00 -0.19449439259E-01  0.13929485449E+00  0.46076063684E-01 0.  0.
         14    1    1    2    0    0  0.35334083893E-02  0.67770007039E-02  0.11612414277E-01  0.13901830050E-01  0.00000000000E+00 0. -1.
     999901    1    3    3    0    0 -0.69881276261E-01 -0.11857920365E+00  0.78370249815E-02  0.89073331546E+00  0.88000000000E+00 0. -1.
        -11    1    4    4    0    0  0.35881696161E-01  0.50921005093E-01  0.13374045542E-01  0.63714763550E-01  0.51100000000E-03 0. -1.
         11    1    4    4    0    0  0.30466171711E-01  0.60881197855E-01 -0.32823484801E-01  0.75580090939E-01  0.51100000000E-03 0.  1.
</event>
<event>
 8    1  0.2091070E+004  0.1043930E+01  0.7957747E-01            NaN
         13   -1    0    0    0    0  0.00000000000E+00  0.00000000000E+00  0.74505805969E-08  0.10566000000E+00  0.10566000000E+00 0.  1.
     999900   -1    0    0    0    0 -0.00000000000E+00 -0.00000000000E+00 -0.74505805969E-08  0.93827000000E+00  0.93827000000E+00 0.  1.
     999902    2    1    2    0    0 -0.20665485186E-01  0.11583871235E-01 -0.25212875477E-02  0.10201055327E+01  0.10198272857E+01 0.  0.
     999903    2    3    3    0    0 -0.86912186210E-01  0.86272763124E-01  0.31150370102E-01  0.13382068206E+00  0.44055778506E-01 0.  0.
         14    1    1    2    0    0  0.20665485186E-01 -0.11583871235E-01  0.25212875477E-02  0.23824467290E-01  0.00000000000E+00 0. -1.
     999901    1    3    3    0    0  0.66246701024E-01 -0.74688891889E-01 -0.33671657650E-01  0.88628485065E+00  0.88000000000E+00 0.  1.
        -11    1    4    4    0    0 -0.67676967130E-01  0.74620275960E-01  0.41631367308E-01  0.10900362072E+00  0.51100000000E-03 0. -1.
         11    1    4    4    0    0 -0.19235219080E-01  0.11652487164E-01 -0.10480997206E-01  0.24817061341E-01  0.51100000000E-03 0.  1.
</event>
<event>
 8    1  0.2091070E+004  0.1043930E+01  0.7957747E-01            NaN
         13   -1    0    0    0    0  0.00000000000E+00  0.00000000000E+00  0.74505805969E-08  0.10566000000E+00  0.10566000000E+00 0.  1.
     999900   -1    0    0    0    0 -0.00000000000E+00 -0.00000000000E+00 -0.74505805969E-08  0.93827000000E+00  0.93827000000E+00 0. -1.
     999902    2    1    2    0    0  0.37037278775E-02  0.10753338008E-02 -0.12635636299E-01  0.10307188968E+01  0.10306342275E+01 0.  0.
     999903    2    3    3    0    0 -0.33430737621E-01  0.54254197247E-01  0.11525469409E+00  0.13911197856E+00  0.44803637508E-01 0.  0.
         14    1    1    2    0    0 -0.37037278775E-02 -0.10753338008E-02  0.12635636299E-01  0.13211103196E-01  0.00000000000E+00 0.  1.
     999901    1    3    3    0    0  0.37134465499E-01 -0.53178863446E-01 -0.12789033039E+00  0.89160691824E+00  0.88000000000E+00 0. -1.
        -11    1    4    4    0    0 -0.48922501426E-02  0.48449764908E-01  0.75034920128E-01  0.89452860159E-01  0.51100000000E-03 0.  1.
         11    1    4    4    0    0 -0.28538487479E-01  0.58044323393E-02  0.40219773960E-01  0.49659118405E-01  0.51100000000E-03 0. -1.
</event>
<event>
 8    1  0.2091070E+004  0.1043930E+01  0.7957747E-01            NaN
         13   -1    0    0    0    0  0.00000000000E+00  0.00000000000E+00  0.74505805969E-08  0.10566000000E+00  0.10566000000E+00 0.  1.
     999900   -1    0    0    0    0 -0.00000000000E+00 -0.00000000000E+00 -0.74505805969E-08  0.93827000000E+00  0.93827000000E+00 0. -1.
     999902    2    1    2    0    0 -0.96585226655E-02  0.19412833627E-02 -0.89884275194E-02  0.10305940534E+01  0.10305077659E+01 0.  0.
     999903    2    3    3    0    0 -0.11035899732E+00 -0.61188022039E-01 -0.45759624685E-01  0.14184323587E+00  0.45852785977E-01 0.  0.
         14    1    1    2    0    0  0.96585226655E-02 -0.19412833627E-02  0.89884275194E-02  0.13335946552E-01  0.00000000000E+00 0.  1.
     999901    1    3    3    0    0  0.10070047465E+00  0.63129305402E-01  0.36771197166E-01  0.88875081757E+00  0.88000000000E+00 0.  1.
        -11    1    4    4    0    0 -0.81892441675E-01 -0.20496776289E-01 -0.32306863710E-01  0.90390731856E-01  0.51100000000E-03 0.  1.
         11    1    4    4    0    0 -0.28466555644E-01 -0.40691245750E-01 -0.13452760975E-01  0.51452504019E-01  0.51100000000E-03 0. -1.
</event>
<event>
 8    1  0.2091070E+004  0.1043930E+01  0.7957747E-01            NaN
         13   -1    0    0    0    0  0.00000000000E+00  0.00000000000E+00  0.74505805969E-08  0.10566000000E+00  0.10566000000E+00 0. -1.
     999900   -1    0    0    0    0 -0.00000000000E+00 -0.00000000000E+00 -0.74505805969E-08  0.93827000000E+00  0.93827000000E+00 0.  1.
     999902    2    1    2    0    0 -0.79312969282E-02  0.94962197769E-02 -0.52877214809E-02  0.10304747535E+01  0.10303869049E+01 0.  0.
     999903    2    3    3    0    0 -0.84350664154E-01  0.16922067737E-01  0.10219353845E+00  0.14061673999E+00  0.43910788465E-01 0.  0.
         14    1    1    2    0    0  0.79312969282E-02 -0.94962197769E-02  0.52877214809E-02  0.13455246541E-01  0.00000000000E+00 0. -1.
     999901    1    3    3    0    0  0.76419367225E-01 -0.74258479600E-02 -0.10748125993E+00  0.88985801347E+00  0.88000000000E+00 0.  1.
        -11    1    4    4    0    0 -0.42520415945E-01 -0.21629105427E-02  0.21396871297E-01  0.47652399482E-01  0.51100000000E-03 0.  1.
         11    1    4    4    0    0 -0.41830248209E-01  0.19084978280E-01  0.80796667154E-01  0.92964340504E-01  0.51100000000E-03 0. -1.
</event>
<event>
 8    1  0.2091070E+004  0.1043930E+01  0.7957747E-01            NaN
         13   -1    0    0    0    0  0.00000000000E+00  0.00000000000E+00  0.74505805969E-08  0.10566000000E+00  0.10566000000E+00 0.  1.
     999900   -1    0    0    0    0 -0.00000000000E+00 -0.00000000000E+00 -0.74505805969E-08  0.93827000000E+00  0.93827000000E+00 0. -1.
     999902    2    1    2    0    0 -0.16250828354E-02  0.63594282454E-02  0.12372368176E-01  0.10299243327E+01  0.10298290986E+01 0.  0.
     999903    2    3    3    0    0 -0.10749395301E+00 -0.71808629534E-01 -0.22395511633E-01  0.13945969647E+00  0.47286560341E-01 0.  0.
         14    1    1    2    0    0  0.16250828354E-02 -0.63594282454E-02 -0.12372368176E-01  0.14005667285E-01  0.00000000000E+00 0. -1.
     999901    1    3    3    0    0  0.10586887018E+00  0.78168057780E-01  0.34767879809E-01  0.89046463624E+00  0.88000000000E+00 0. -1.
        -11    1    4    4    0    0 -0.86229505576E-01 -0.34859201950E-01 -0.26270963775E-01  0.96649450341E-01  0.51100000000E-03 0. -1.
         11    1    4    4    0    0 -0.21264447438E-01 -0.36949427584E-01  0.38754521414E-02  0.42810246133E-01  0.51100000000E-03 0.  1.
</event>
<event>
 8    1  0.2091070E+004  0.1043930E+01  0.7957747E-01            NaN
         13   -1    0    0    0    0  0.00000000000E+00  0.00000000000E+00  0.74505805969E-08  0.10566000000E+00  0.10566000000E+00 0.  1.
     999900   -1    0    0    0    0 -0.00000000000E+00 -0.00000000000E+00 -0.74505805969E-08  0.93827000000E+00  0.93827000000E+00 0.  1.
     999902    2    1    2    0    0  0.19121634251E-02 -0.51661750626E-02 -0.12319123594E-01  0.10304353144E+01  0.10303469467E+01 0.  0.
     999903    2    3    3    0    0 -0.48881914075E-01 -0.68871281884E-01  0.10164819927E+00  0.13935342722E+00  0.44207762566E-01 0.  0.
         14    1    1    2    0    0 -0.19121634251E-02  0.51661750626E-02  0.12319123594E-01  0.13494685616E-01  0.00000000000E+00 0.  1.
     999901    1    3    3    0    0  0.50794077500E-01  0.63705106822E-01 -0.11396732287E+00  0.89108188716E+00  0.88000000000E+00 0.  1.
        -11    1    4    4    0    0 -0.16281209693E-01  0.45940141978E-04  0.32821420968E-01  0.36641324961E-01  0.51100000000E-03 0. -1.
         11    1    4    4    0    0 -0.32600704382E-01 -0.68917222026E-01  0.68826778307E-01  0.10271210226E+00  0.51100000000E-03 0.  1.
</event>
<event>
 8    1  0.2091070E+004  0.1043930E+01  0.7957747E-01            NaN
         13   -1    0    0    0    0  0.00000000000E+00  0.00000000000E+00  0.74505805969E-08  0.10566000000E+00  0.10566000000E+00 0. -1.
     999900   -1    0    0    0    0 -0.00000000000E+00 -0.00000000000E+00 -0.74505805969E-08  0.93827000000E+00  0.93827000000E+00 0. -1.
     999902    2    1    2    0    0 -0.13476127065E-01 -0.65658681257E-02  0.92666575680E-02  0.10263065052E+01  0.10261551808E+01 0.  0.
     999903    2    3    3    0    0  0.99903601481E-01  0.61491728989E-01 -0.48025059591E-01  0.13458393615E+00  0.45215784843E-01 0.  0.
         14    1    1    2    0    0  0.13476127065E-01  0.65658681257E-02 -0.92666575680E-02  0.17623494756E-01  0.00000000000E+00 0.  1.
     999901    1    3    3    0    0 -0.11337972855E+00 -0.68057597115E-01  0.57291717159E-01  0.89172256909E+00  0.88000000000E+00 0.  1.
        -11    1    4    4    0    0  0.82576549526E-01  0.26588933147E-01 -0.33122952299E-01  0.92861450492E-01  0.51100000000E-03 0.  1.
         11    1    4    4    0    0  0.17327051956E-01  0.34902795842E-01 -0.14902107291E-01  0.41722485662E-01  0.51100000000E-03 0. -1.
</event>
<event>
 8    1  0.2091070E+004  0.1043930E+01  0.7957747E-01            NaN
         13   -1    0    0    0    0  0.00000000000E+00  0.00000000000E+00  0.74505805969E-08  0.10566000000E+00  0.10566000000E+00 0.  1.
     999900   -1    0    0    0    0 -0.00000000000E+00 -0.00000000000E+00 -0.74505805969E-08  0.93827000000E+00  0.93827000000E+00 0.  1.
     999902    2    1    2    0    0  0.12744330642E-02 -0.10345128298E-01  0.13425692681E-01  0.10269330861E+01  0.10267924173E+01 0.  0.
     999903    2    3    3    0    0 -0.12242782327E+00  0.40731067539E-01  0.24448276561E-02  0.13674681040E+00  0.45234071190E-01 0.  0.
         14    1    1    2    0    0 -0.12744330642E-02  0.10345128298E-01 -0.13425692681E-01  0.16996913929E-01  0.00000000000E+00 0. -1.
     999901    1    3    3    0    0  0.12370225634E+00 -0.51076195837E-01  0.10980865025E-01  0.89018627568E+00  0.88000000000E+00 0. -1.
        -11    1    4    4    0    0 -0.94152855167E-02  0.18694520376E-01  0.51918107886E-02  0.21571942743E-01  0.51100000000E-03 0.  1.
         11    1    4    4    0    0 -0.11301253776E+00  0.22036547163E-01 -0.27469831325E-02  0.11517486765E+00  0.51100000000E-03 0. -1.
</event>
<event>
 8    1  0.2091070E+004  0.1043930E+01  0.7957747E-01            NaN
         13   -1    0    0    0    0  0.00000000000E+00  0.00000000000E+00  0.74505805969E-08  0.10566000000E+00  0.10566000000E+00 0. -1.
     999900   -1    0    0    0    0 -0.00000000000E+00 -0.00000000000E+00 -0.74505805969E-08  0.93827000000E+00  0.93827000000E+00 0.  1.
     999902    2    1    2    0    0 -0.11344641376E-01  0.80296405965E-02  0.56383751627E-03  0.10300197905E+01  0.10299258589E+01 0.  0.
     999903    2    3    3    0    0 -0.37394326885E-01 -0.12031363461E+00 -0.38005260423E-01  0.13949289155E+00  0.46261870015E-01 0.  0.
         14    1    1    2    0    0  0.11344641376E-01 -0.80296405965E-02 -0.56383751627E-03  0.13910209517E-01  0.00000000000E+00 0.  1.
     999901    1    3    3    0    0  0.26049685509E-01  0.12834327521E+00  0.38569097940E-01  0.89052689893E+00  0.88000000000E+00 0. -1.
        -11    1    4    4    0    0 -0.48046231865E-01 -0.10237497921E+00 -0.35167088680E-01  0.11843167656E+00  0.51100000000E-03 0.  1.
         11    1    4    4    0    0  0.10651904979E-01 -0.17938655395E-01 -0.28381717437E-02  0.21061214991E-01  0.51100000000E-03 0. -1.
</event>
<event>
 8    1  0.2091070E+004  0.1043930E+01  0.7957747E-01            NaN
         13   -1    0    0    0    0  0.00000000000E+00  0.00000000000E+00  0.74505805969E-08  0.10566000000E+00  0.10566000000E+00 0.  1.
     999900   -1    0    0    0    0 -0.00000000000E+00 -0.00000000000E+00 -0.74505805969E-08  0.93827000000E+00  0.93827000000E+00 0.  1.
     999902    2    1    2    0    0  0.65797970217E-02 -0.11103457910E-01 -0.90547294120E-02  0.10281639405E+01  0.10280430536E+01 0.  0.
     999903    2    3    3    0    0 -0.83220389704E-01  0.78118878519E-01 -0.62119305816E-01  0.13752341365E+00  0.45007651613E-01 0.  0.
         14    1    1    2    0    0 -0.65797970217E-02  0.11103457910E-01  0.90547294120E-02  0.15766059467E-01  0.00000000000E+00 0.  1.
     999901    1    3    3    0    0  0.89800186726E-01 -0.89222336429E-01  0.53064576404E-01  0.89064052688E+00  0.88000000000E+00 0. -1.
        -11    1    4    4    0    0 -0.23997990774E-01 -0.36489987815E-03 -0.16524897968E-01  0.29143954553E-01  0.51100000000E-03 0. -1.
         11    1    4    4    0    0 -0.59222398929E-01  0.78483778398E-01 -0.45594407848E-01  0.10837945910E+00  0.51100000000E-03 0.  1.
</event>
<event>
 8    1  0.2091070E+004  0.1043930E+01  0.7957747E-01            NaN
         13   -1    0    0    0    0  0.00000000000E+00  0.00000000000E+00  0.74505805969E-08  0.10566000000E+00  0.10566000000E+00 0.  1.
     999900   -1    0    0    0    0 -0.00000000000E+00 -0.00000000000E+00 -0.74505805969E-08  0.93827000000E+00  0.93827000000E+00 0. -1.
     999902    2    1    2    0    0 -0.43257854891E-02 -0.10288838819E-01  0.78401742615E-02  0.10302903168E+01  0.10302000272E+01 0.  0.
     999903    2    3    3    0    0  0.68980479993E-01 -0.74402242927E-01  0.87245403182E-01  0.14136426394E+00  0.45586120357E-01 0.  0.
         14    1    1    2    0    0  0.43257854891E-02  0.10288838819E-01 -0.78401742615E-02  0.13639683164E-01  0.00000000000E+00 0. -1.
     999901    1    3    3    0    0 -0.73306265482E-01  0.64113404108E-01 -0.79405228921E-01  0.88892605290E+00  0.88000000000E+00 0. -1.
        -11    1    4    4    0    0  0.42641438183E-01 -0.49106979448E-01  0.81695170174E-01  0.10442293633E+00  0.51100000000E-03 0. -1.
         11    1    4    4    0    0  0.26339041810E-01 -0.25295263479E-01  0.55502330082E-02  0.36941327607E-01  0.51100000000E-03 0.  1.
</event>
<event>
 8    1  0.2091070E+004  0.1043930E+01  0.7957747E-01            NaN
         13   -1    0    0    0    0  0.00000000000E+00  0.00000000000E+00  0.74505805969E-08  0.10566000000E+00  0.10566000000E+00 0. -1.
     999900   -1    0    0    0    0 -0.00000000000E+00 -0.00000000000E+00 -0.74505805969E-08  0.93827000000E+00  0.93827000000E+00 0.  1.
     999902    2    1    2    0    0  0.48147619449E-02 -0.52165240138E-02  0.11870568168E-01  0.10300987150E+01  0.10300058535E+01 0.  0.
     999903    2    3    3    0    0 -0.85942543417E-02  0.11051522898E+00 -0.68773061002E-01  0.13876430231E+00  0.47310893385E-01 0.  0.
         14    1    1    2    0    0 -0.48147619449E-02  0.52165240138E-02 -0.11870568168E-01  0.13831284973E-01  0.00000000000E+00 0.  1.
     999901    1    3    3    0    0  0.13409016287E-01 -0.11573175299E+00  0.80643629170E-01  0.89133441272E+00  0.88000000000E+00 0. -1.
        -11    1    4    4    0    0 -0.28278852604E-01  0.61709230339E-01 -0.39720584954E-01  0.78649275926E-01  0.51100000000E-03 0. -1.
         11    1    4    4    0    0  0.19684598262E-01  0.48805998636E-01 -0.29052476048E-01  0.60115026384E-01  0.51100000000E-03 0.  1.
</event>
<event>
 8    1  0.2091070E+004  0.1043930E+01  0.7957747E-01            NaN
         13   -1    0    0    0    0  0.00000000000E+00  0.00000000000E+00  0.74505805969E-08  0.10566000000E+00  0.10566000000E+00 0.  1.
     999900   -1    0    0    0    0 -0.00000000000E+00 -0.00000000000E+00 -0.74505805969E-08  0.93827000000E+00  0.93827000000E+00 0. -1.
     999902    2    1    2    0    0 -0.75322436643E-02 -0.46057863999E-02  0.10600782526E-01  0.10301341835E+01  0.10300418008E+01 0.  0.
     999903    2    3    3    0    0 -0.10244165800E+00 -0.37511858880E-01 -0.76009817991E-01  0.14019485822E+00  0.44448543168E-01 0.  0.
         14    1    1    2    0    0  0.75322436643E-02  0.46057863999E-02 -0.10600782526E-01  0.13795816509E-01  0.00000000000E+00 0. -1.
     999901    1    3    3    0    0  0.94909414340E-01  0.32906072480E-01  0.86610600518E-01  0.88993932527E+00  0.88000000000E+00 0.  1.
        -11    1    4    4    0    0 -0.64470119023E-01 -0.98972307651E-02 -0.64752656197E-01  0.91910385861E-01  0.51100000000E-03 0. -1.
         11    1    4    4    0    0 -0.37971538982E-01 -0.27614628115E-01 -0.11257161794E-01  0.48284472362E-01  0.51100000000E-03 0.  1.
</event>
<event>
 8    1  0.2091070E+004  0.1043930E+01  0.7957747E-01            NaN
         13   -1    0    0    0    0  0.00000000000E+00  0.00000000000E+00  0.74505805969E-08  0.10566000000E+00  0.10566000000E+00 0. -1.
     999900   -1    0    0    0    0 -0.00000000000E+00 -0.00000000000E+00 -0.74505805969E-08  0.93827000000E+00  0.93827000000E+00 0. -1.
     999902    2    1    2    0    0 -0.11255766249E-01  0.70501315452E-03 -0.81816053891E-02  0.10299970181E+01  0.10299027766E+01 0.  0.
     999903    2    3    3    0    0  0.12318964385E+00  0.36528294956E-02  0.43194222428E-01  0.13829990945E+00  0.45520243718E-01 0.  0.
         14    1    1    2    0    0  0.11255766249E-01 -0.70501315452E-03  0.81816053891E-02  0.13932981883E-01  0.00000000000E+00 0.  1.
     999901    1    3    3    0    0 -0.13444541010E+00 -0.29478163411E-02 -0.51375827817E-01  0.89169710867E+00  0.88000000000E+00 0. -1.
        -11    1    4    4    0    0  0.74470114369E-01 -0.20037913112E-01  0.22925409514E-01  0.80455897351E-01  0.51100000000E-03 0. -1.
         11    1    4    4    0    0  0.48719529480E-01  0.23690742608E-01  0.20268812914E-01  0.57844012102E-01  0.51100000000E-03 0.  1.
</event>
<event>
 8    1  0.2091070E+004  0.1043930E+01  0.7957747E-01            NaN
         13   -1    0    0    0    0  0.00000000000E+00  0.00000000000E+00  0.74505805969E-08  0.10566000000E+00  0.10566000000E+00 0.  1.
     999900   -1    0    0    0    0 -0.00000000000E+00 -0.00000000000E+00 -0.74505805969E-08  0.93827000000E+00  0.93827000000E+00 0.  1.
     999902    2    1    2    0    0 -0.11721872782E-02 -0.27603012134E-02  0.13246855706E-01  0.10303479357E+01  0.10302584123E+01 0.  0.
     999903    2    3    3    0    0  0.18334144094E-01 -0.27737994344E-02 -0.12973623327E+00  0.13859423598E+00  0.45089214012E-01 0.  0.
         14    1    1    2    0    0  0.11721872782E-02  0.27603012134E-02 -0.13246855706E-01  0.13582064346E-01  0.00000000000E+00 0. -1.
     999901    1    3    3    0    0 -0.19506331372E-01  0.13498220994E-04  0.14298308898E+00  0.89175369967E+00  0.88000000000E+00 0. -1.
        -11    1    4    4    0    0 -0.13975937132E-02  0.16694430176E-01 -0.79188511532E-01  0.80942811582E-01  0.51100000000E-03 0.  1.
         11    1    4    4    0    0  0.19731737807E-01 -0.19468229610E-01 -0.50547721741E-01  0.57651424399E-01  0.51100000000E-03 0. -1.
</event>
<event>
 8    1  0.2091070E+004  0.1043930E+01  0.7957747E-01            NaN
         13   -1    0    0    0    0  0.00000000000E+00  0.00000000000E+00  0.74505805969E-08  0.10566000000E+00  0.10566000000E+00 0.  1.
     999900   -1    0    0    0    0 -0.00000000000E+00 -0.00000000000E+00 -0.74505805969E-08  0.93827000000E+00  0.93827000000E+00 0. -1.
     999902    2    1    2    0    0 -0.10280087958E-01  0.66918889762E-02 -0.74648097017E-02  0.10295708576E+01  0.10294707212E+01 0.  0.
     999903    2    3    3    0    0  0.70762123791E-01 -0.75014386911E-01  0.79391027141E-01  0.13783788636E+00  0.45408273687E-01 0.  0.
         14    1    1    2    0    0  0.10280087958E-01 -0.66918889762E-02  0.74648097017E-02  0.14359142397E-01  0.00000000000E+00 0.  1.
     999901    1    3    3    0    0 -0.81042211749E-01  0.81706275887E-01 -0.86855836842E-01  0.89173297124E+00  0.88000000000E+00 0. -1.
        -11    1    4    4    0    0 -0.94594104158E-03 -0.79236022710E-02  0.23549299999E-01  0.24869839744E-01  0.51100000000E-03 0. -1.
         11    1    4    4    0    0  0.71708064833E-01 -0.67090784640E-01  0.55841727141E-01  0.11296804662E+00  0.51100000000E-03 0.  1.
</event>
<event>
 8    1  0.2091070E+004  0.1043930E+01  0.7957747E-01            NaN
         13   -1    0    0    0    0  0.00000000000E+00  0.00000000000E+00  0.74505805969E-08  0.10566000000E+00  0.10566000000E+00 0.  1.
     999900   -1    0    0    0    0 -0.00000000000E+00 -0.00000000000E+00 -0.74505805969E-08  0.93827000000E+00  0.93827000000E+00 0.  1.
     999902    2    1    2    0    0  0.42242416745E-02 -0.10521823448E-01 -0.79861143793E-02  0.10300616544E+01  0.10299682912E+01 0.  0.
     999903    2    3    3    0    0 -0.47696492991E-01 -0.37887086760E-01  0.11698341870E+00  0.13929681198E+00  0.44811770658E-01 0.  0.
         14    1    1    2    0    0 -0.42242416745E-02  0.10521823448E-01  0.79861143793E-02  0.13868345586E-01  0.00000000000E+00 0.  1.
     999901    1    3    3    0    0  0.51920734665E-01  0.27365263312E-01 -0.12496953308E+00  0.89076484244E+00  0.88000000000E+00 0. -1.
        -11    1    4    4    0    0  0.15483402082E-02  0.34593521059E-02  0.34494606887E-01  0.34705957697E-01  0.51100000000E-03 0. -1.
         11    1    4    4    0    0 -0.49244833199E-01 -0.41346438866E-01  0.82488811813E-01  0.10459085428E+00  0.51100000000E-03 0.  1.
</event>
<event>
 8    1  0.2091070E+004  0.1043930E+01  0.7957747E-01            NaN
         13   -1    0    0    0    0  0.00000000000E+00  0.00000000000E+00  0.74505805969E-08  0.10566000000E+00  0.10566000000E+00 0. -1.
     999900   -1    0    0    0    0 -0.00000000000E+00 -0.00000000000E+00 -0.74505805969E-08  0.93827000000E+00  0.93827000000E+00 0. -1.
     999902    2    1    2    0    0 -0.11142571828E-01 -0.64021967762E-02  0.53193324078E-02  0.10300217173E+01  0.10299278119E+01 0.  0.
     999903    2    3    3    0    0 -0.47095125384E-02  0.79232975731E-01 -0.10619759859E+00  0.13883666753E+00  0.41202504210E-01 0.  0.
         14    1    1    2    0    0  0.11142571828E-01  0.64021967762E-02 -0.53193324078E-02  0.13908282704E-01  0.00000000000E+00 0. -1.
     999901    1    3    3    0    0 -0.64330592894E-02 -0.85635172507E-01  0.11151693100E+00  0.89118504976E+00  0.88000000000E+00 0.  1.
        -11    1    4    4    0    0 -0.15227222548E-01  0.65915596029E-01 -0.63088344122E-01  0.92504780371E-01  0.51100000000E-03 0.  1.
         11    1    4    4    0    0  0.10517710009E-01  0.13317379702E-01 -0.43109254471E-01  0.46331887162E-01  0.51100000000E-03 0. -1.
</event>
<event>
 8    1  0.2091070E+004  0.1043930E+01  0.7957747E-01            NaN
         13   -1    0    0    0    0  0.00000000000E+00  0.00000000000E+00  0.74505805969E-08  0.10566000000E+00  0.10566000000E+00 0.  1.
     999900   -1    0    0    0    0 -0.00000000000E+00 -0.00000000000E+00 -0.74505805969E-08  0.93827000000E+00  0.93827000000E+00 0. -1.
     999902    2    1    2    0    0 -0.11042779667E-01  0.98489413237E-02  0.20702302210E-02  0.10289891004E+01  0.10288806239E+01 0.  0.
     999903    2    3    3    0    0  0.72788097324E-01  0.10853974333E+00 -0.17655945899E-01  0.13929442672E+00  0.44857796359E-01 0.  0.
         14    1    1    2    0    0  0.11042779667E-01 -0.98489413237E-02 -0.20702302210E-02  0.14940899609E-01  0.00000000000E+00 0. -1.
     999901    1    3    3    0    0 -0.83830876991E-01 -0.98690802009E-01  0.19726176120E-01  0.88969467367E+00  0.88000000000E+00 0. -1.
        -11    1    4    4    0    0  0.67442019278E-01  0.88138511102E-01  0.12158352047E-02  0.11098901964E+00  0.51100000000E-03 0. -1.
         11    1    4    4    0    0  0.53460780463E-02  0.20401232231E-01 -0.18871781104E-01  0.28305407082E-01  0.51100000000E-03 0.  1.
</event>
<event>
 7    1  0.2091070E+004  0.1043930E+01  0.7957747E-01            NaN
         13   -1    0    0    0    0  0.00000000000E+00  0.00000000000E+00  0.74505805969E-08  0.10566000000E+00  0.10566000000E+00 0.  1.
     999900   -1    0    0    0    0 -0.00000000000E+00 -0.00000000000E+00 -0.74505805969E-08  0.93827000000E+00  0.93827000000E+00 0.  1.
     999902    2    1    2    0    0  0.26164985933E-02 -0.13107809862E-01  0.36350128258E-02  0.10300781387E+01  0.10299849988E+01 0.  0.
         14    1    1    2    0    0 -0.26164985933E-02  0.13107809862E-01 -0.36350128258E-02  0.13851861338E-01  0.00000000000E+00 0.  1.
     999901    1    3    3    0    0  0.71781455746E-02  0.77535691452E-01 -0.79237450381E-01  0.88698471394E+00  0.88000000000E+00 0.  1.
        -11    1    3    3    0    0 -0.37229652789E-01 -0.50975310019E-01  0.31965963824E-01  0.70757425353E-01  0.51100000000E-03 0.  1.
         11    1    3    3    0    0  0.32668005808E-01 -0.39668191296E-01  0.50906499383E-01  0.72335999368E-01  0.51100000000E-03 0. -1.
</event>
<event>
 8    1  0.2091070E+004  0.1043930E+01  0.7957747E-01            NaN
         13   -1    0    0    0    0  0.00000000000E+00  0.00000000000E+00  0.74505805969E-08  0.10566000000E+00  0.10566000000E+00 0. -1.
     999900   -1    0    0    0    0 -0.00000000000E+00 -0.00000000000E+00 -0.74505805969E-08  0.93827000000E+00  0.93827000000E+00 0. -1.
     999902    2    1    2    0    0  0.12056155251E-01  0.29144637185E-03  0.67138233889E-02  0.10301274189E+01  0.10300349450E+01 0.  0.
     999903    2    3    3    0    0  0.29188650868E-02 -0.57276593733E-01 -0.11902246679E+00  0.13928108873E+00  0.44087936159E-01 0.  0.
         14    1    1    2    0    0 -0.12056155251E-01 -0.29144637185E-03 -0.67138233889E-02  0.13802581097E-01  0.00000000000E+00 0.  1.
     999901    1    3    3    0    0  0.91372901644E-02  0.57568040105E-01  0.12573629018E+00  0.89084633017E+00  0.88000000000E+00 0.  1.
        -11    1    4    4    0    0  0.20653966496E-01 -0.13838274154E-01 -0.33341673953E-01  0.41593419030E-01  0.51100000000E-03 0. -1.
         11    1    4    4    0    0 -0.17735101410E-01 -0.43438319579E-01 -0.85680792835E-01  0.97687669702E-01  0.51100000000E-03 0.  1.
</event>
<event>
 7    1  0.2091070E+004  0.1043930E+01  0.7957747E-01            NaN
         13   -1    0    0    0    0  0.00000000000E+00  0.00000000000E+00  0.74505805969E-08  0.10566000000E+00  0.10566000000E+00 0.  1.
     999900   -1    0    0    0    0 -0.00000000000E+00 -0.00000000000E+00 -0.74505805969E-08  0.93827000000E+00  0.93827000000E+00 0.  1.
     999902    2    1    2    0    0 -0.13699678491E-02  0.80045580586E-02  0.46367130659E-02  0.10345785900E+01  0.10345363261E+01 0.  0.
         14    1    1    2    0    0  0.13699678491E-02 -0.80045580586E-02 -0.46367130659E-02  0.93514100368E-02  0.00000000000E+00 0.  1.
     999901    1    3    3    0    0  0.48004368159E-01  0.12280758018E+00 -0.24896446282E-01  0.89017186776E+00  0.88000000000E+00 0.  1.
        -11    1    3    3    0    0  0.14375006244E-02 -0.54727644540E-01 -0.11081250121E-01  0.55859079031E-01  0.51100000000E-03 0. -1.
         11    1    3    3    0    0 -0.50811836633E-01 -0.60075377585E-01  0.40614409469E-01  0.88547643173E-01  0.51100000000E-03 0.  1.
</event>
<event>
 8    1  0.2091070E+004  0.1043930E+01  0.7957747E-01            NaN
         13   -1    0    0    0    0  0.00000000000E+00  0.00000000000E+00  0.74505805969E-08  0.10566000000E+00  0.10566000000E+00 0. -1.
     999900   -1    0    0    0    0 -0.00000000000E+00 -0.00000000000E+00 -0.74505805969E-08  0.93827000000E+00  0.93827000000E+00 0. -1.
     999902    2    1    2    0    0 -0.21662199327E-02  0.13233495871E-01  0.55185258024E-02  0.10294292397E+01  0.10293271042E+01 0.  0.
     999903    2    3    3    0    0  0.12462735939E+00 -0.14122462111E-01 -0.38554744697E-01  0.13882977118E+00  0.45341089336E-01 0.  0.
         14    1    1    2    0    0  0.21662199327E-02 -0.13233495871E-01 -0.55185258024E-02  0.14500760283E-01  0.00000000000E+00 0.  1.
     999901    1    3    3    0    0 -0.12679357932E+00  0.27355957982E-01  0.44073270500E-01  0.89059946854E+00  0.88000000000E+00 0.  1.
        -11    1    4    4    0    0  0.81753020666E-01 -0.11989423382E-01 -0.23361249208E-02  0.82662090838E-01  0.51100000000E-03 0. -1.
         11    1    4    4    0    0  0.42874338720E-01 -0.21330387291E-02 -0.36218619777E-01  0.56167680337E-01  0.51100000000E-03 0.  1.
</event>
<event>
 8    1  0.2091070E+004  0.1043930E+01  0.7957747E-01            NaN
         13   -1    0    0    0    0  0.00000000000E+00  0.00000000000E+00  0.74505805969E-08  0.10566000000E+00  0.10566000000E+00 0. -1.
     999900   -1    0    0    0    0 -0.00000000000E+00 -0.00000000000E+00 -0.74505805969E-08  0.93827000000E+00  0.93827000000E+00 0.  1.
     999902    2    1    2    0    0 -0.94795265556E-03  0.43243821511E-02 -0.14349857337E-01  0.10289127665E+01  0.10288031706E+01 0.  0.
     999903    2    3    3    0    0 -0.57434049203E-01 -0.10228503125E+00 -0.60398499016E-01  0.13948782674E+00  0.45254585400E-01 0.  0.
         14    1    1    2    0    0  0.94795265556E-03 -0.43243821511E-02  0.14349857337E-01  0.15017233461E-01  0.00000000000E+00 0. -1.
     999901    1    3    3    0    0  0.56486096548E-01  0.10660941340E+00  0.46048641679E-01  0.88942493980E+00  0.88000000000E+00 0. -1.
        -11    1    4    4    0    0 -0.51180764184E-02 -0.42606656138E-01 -0.61499724822E-02  0.43354413109E-01  0.51100000000E-03 0. -1.
         11    1    4    4    0    0 -0.52315972785E-01 -0.59678375115E-01 -0.54248526534E-01  0.96133413634E-01  0.51100000000E-03 0.  1.
</event>
<event>
 8    1  0.2091070E+004  0.1043930E+01  0.7957747E-01            NaN
         13   -1    0    0    0    0  0.00000000000E+00  0.00000000000E+00  0.74505805969E-08  0.10566000000E+00  0.10566000000E+00 0.  1.
     999900   -1    0    0    0    0 -0.00000000000E+00 -0.00000000000E+00 -0.74505805969E-08  0.93827000000E+00  0.93827000000E+00 0. -1.
     999902    2    1    2    0    0 -0.14276198403E-01 -0.61850790323E-03 -0.80416808952E-02  0.10275330178E+01  0.10274021811E+01 0.  0.
     999903    2    3    3    0    0 -0.35538398092E-01  0.12155203344E+00 -0.33344773898E-01  0.13847848135E+00  0.45017122050E-01 0.  0.
         14    1    1    2    0    0  0.14276198403E-01  0.61850790323E-03  0.80416808952E-02  0.16396982176E-01  0.00000000000E+00 0.  1.
     999901    1    3    3    0    0  0.21262199690E-01 -0.12217054135E+00  0.25303093003E-01  0.88905453647E+00  0.88000000000E+00 0. -1.
        -11    1    4    4    0    0 -0.32809248155E-01  0.87394355611E-01 -0.43137583586E-01  0.10283643516E+00  0.51100000000E-03 0. -1.
         11    1    4    4    0    0 -0.27291499374E-02  0.34157677832E-01  0.97928096879E-02  0.35642046193E-01  0.51100000000E-03 0.  1.
</event>
<event>
 8    1  0.2091070E+004  0.1043930E+01  0.7957747E-01            NaN
         13   -1    0    0    0    0  0.00000000000E+00  0.00000000000E+00  0.74505805969E-08  0.10566000000E+00  0.10566000000E+00 0. -1.
     999900   -1    0    0    0    0 -0.00000000000E+00 -0.00000000000E+00 -0.74505805969E-08  0.93827000000E+00  0.93827000000E+00 0. -1.
     999902    2    1    2    0    0  0.77455234586E-03 -0.59290364891E-02 -0.12755234197E-01  0.10298427929E+01  0.10297464390E+01 0.  0.
     999903    2    3    3    0    0 -0.10937961874E+00  0.20129407532E-01  0.69651010218E-01  0.13877389934E+00  0.45142417649E-01 0.  0.
         14    1    1    2    0    0 -0.77455234586E-03  0.59290364891E-02  0.12755234197E-01  0.14087207120E-01  0.00000000000E+00 0. -1.
     999901    1    3    3    0    0  0.11015417108E+00 -0.26058444021E-01 -0.82406244415E-01  0.89106889354E+00  0.88000000000E+00 0.  1.
        -11    1    4    4    0    0 -0.47184837784E-01  0.62369219974E-02  0.56186431637E-01  0.73637519878E-01  0.51100000000E-03 0.  1.
         11    1    4    4    0    0 -0.62194780954E-01  0.13892485535E-01  0.13464578581E-01  0.65136379463E-01  0.51100000000E-03 0. -1.
</event>
<event>
 8    1  0.2091070E+004  0.1043930E+01  0.7957747E-01            NaN
         13   -1    0    0    0    0  0.00000000000E+00  0.00000000000E+00  0.74505805969E-08  0.10566000000E+00  0.10566000000E+00 0.  1.
     999900   -1    0    0    0    0 -0.00000000000E+00 -0.00000000000E+00 -0.74505805969E-08  0.93827000000E+00  0.93827000000E+00 0. -1.
     999902    2    1    2    0    0 -0.18759354842E-02  0.93092917928E-02 -0.90400727578E-02  0.10308187467E+01  0.10307353606E+01 0.  0.
     999903    2    3    3    0    0 -0.66959343367E-01 -0.53023704576E-01 -0.10280047184E+00  0.14126140462E+00  0.45735987054E-01 0.  0.
         14    1    1    2    0    0  0.18759354842E-02 -0.93092917928E-02  0.90400727578E-02  0.13111253300E-01  0.00000000000E+00 0.  1.
     999901    1    3    3    0    0  0.65083407883E-01  0.62332996369E-01  0.93760399086E-01  0.88955734208E+00  0.88000000000E+00 0.  1.
        -11    1    4    4    0    0 -0.45545105203E-01 -0.40586641995E-01 -0.37964838499E-01  0.71855564849E-01  0.51100000000E-03 0. -1.
         11    1    4    4    0    0 -0.21414238164E-01 -0.12437062581E-01 -0.64835633344E-01  0.69405839768E-01  0.51100000000E-03 0.  1.
</event>
<event>
 8    1  0.2091070E+004  0.1043930E+01  0.7957747E-01            NaN
         13   -1    0    0    0    0  0.00000000000E+00  0.00000000000E+00  0.74505805969E-08  0.10566000000E+00  0.10566000000E+00 0.  1.
     999900   -1    0    0    0    0 -0.00000000000E+00 -0.00000000000E+00 -0.74505805969E-08  0.93827000000E+00  0.93827000000E+00 0.  1.
     999902    2    1    2    0    0 -0.13248366748E-01  0.16118665558E-02  0.43510244627E-02  0.10298925946E+01  0.10297969255E+01 0.  0.
     999903    2    3    3    0    0 -0.24171580938E-01  0.11664837917E+00  0.58553369524E-01  0.14068473927E+00  0.46611040481E-01 0.  0.
         14    1    1    2    0    0  0.13248366748E-01 -0.16118665558E-02 -0.43510244627E-02  0.14037405357E-01  0.00000000000E+00 0. -1.
     999901    1    3    3    0    0  0.10923214190E-01 -0.11503651261E+00 -0.54202345061E-01  0.88920785537E+00  0.88000000000E+00 0.  1.
        -11    1    4    4    0    0 -0.23483277537E-01  0.70349123200E-01  0.58363718506E-01  0.94377159407E-01  0.51100000000E-03 0. -1.
         11    1    4    4    0    0 -0.68830340099E-03  0.46299255965E-01  0.18965101789E-03  0.46307579866E-01  0.51100000000E-03 0.  1.
</event>
<event>
 8    1  0.2091070E+004  0.1043930E+01  0.7957747E-01            NaN
         13   -1    0    0    0    0  0.00000000000E+00  0.00000000000E+00  0.74505805969E-08  0.10566000000E+00  0.10566000000E+00 0. -1.
     999900   -1    0    0    0    0 -0.00000000000E+00 -0.00000000000E+00 -0.74505805969E-08  0.93827000000E+00  0.93827000000E+00 0. -1.
     999902    2    1    2    0    0  0.11529406980E-01  0.76619398114E-02  0.21031872965E-02  0.10299280022E+01  0.10298328183E+01 0.  0.
     999903    2    3    3    0    0  0.25131702760E-01 -0.89880835414E-01 -0.92243850802E-01  0.13942197800E+00  0.47110432819E-01 0.  0.
         14    1    1    2    0    0 -0.11529406980E-01 -0.76619398114E-02 -0.21031872965E-02  0.14001997850E-01  0.00000000000E+00 0.  1.
     999901    1    3    3    0    0 -0.13602295780E-01  0.97542775225E-01  0.94347038099E-01  0.89050602415E+00  0.88000000000E+00 0.  1.
        -11    1    4    4    0    0  0.65851709013E-02 -0.67077947463E-01 -0.86176395660E-01  0.10940497156E+00  0.51100000000E-03 0. -1.
         11    1    4    4    0    0  0.18546531858E-01 -0.22802887951E-01 -0.60674551423E-02  0.30017006442E-01  0.51100000000E-03 0.  1.
</event>
<event>
 8    1  0.2091070E+004  0.1043930E+01  0.7957747E-01            NaN
         13   -1    0    0    0    0  0.00000000000E+00  0.00000000000E+00  0.74505805969E-08  0.10566000000E+00  0.10566000000E+00 0.  1.
     999900   -1    0    0    0    0 -0.00000000000E+00 -0.00000000000E+00 -0.74505805969E-08  0.93827000000E+00  0.93827000000E+00 0.  1.
     999902    2    1    2    0    0  0.44542326001E-02 -0.13183825772E-01 -0.12899584877E-02  0.10299543983E+01  0.10298595754E+01 0.  0.
     999903    2    3    3    0    0  0.50201557358E-02 -0.11673512777E+00 -0.65236979685E-01  0.14157811882E+00  0.46219132315E-01 0.  0.
         14    1    1    2    0    0 -0.44542326001E-02  0.13183825772E-01  0.12899584877E-02  0.13975601702E-01  0.00000000000E+00 0. -1.
     999901    1    3    3    0    0 -0.56592313572E-03  0.10355130200E+00  0.63947021197E-01  0.88837627948E+00  0.88000000000E+00 0.  1.
        -11    1    4    4    0    0 -0.15455236451E-01 -0.24272475878E-01 -0.46527383062E-02  0.29153499168E-01  0.51100000000E-03 0.  1.
         11    1    4    4    0    0  0.20475392187E-01 -0.92462651891E-01 -0.60584241379E-01  0.11242461965E+00  0.51100000000E-03 0. -1.
</event>
<event>
 7    1  0.2091070E+004  0.1043930E+01  0.7957747E-01            NaN
         13   -1    0    0    0    0  0.00000000000E+00  0.00000000000E+00  0.74505805969E-08  0.10566000000E+00  0.10566000000E+00 0.  1.
     999900   -1    0    0    0    0 -0.00000000000E+00 -0.00000000000E+00 -0.74505805969E-08  0.93827000000E+00  0.93827000000E+00 0. -1.
     999902    2    1    2    0    0 -0.10701458368E-01  0.90122170639E-02 -0.24380573653E-02  0.10297284018E+01  0.10296304658E+01 0.  0.
         14    1    1    2    0    0  0.10701458368E-01 -0.90122170639E-02  0.24380573653E-02  0.14201598196E-01  0.00000000000E+00 0. -1.
     999901    1    3    3    0    0  0.94854500447E-01  0.51029604311E-01 -0.72884499136E-02  0.88659715670E+00  0.88000000000E+00 0.  1.
        -11    1    3    3    0    0 -0.38593502314E-01 -0.54571286611E-01  0.26110763847E-01  0.71760134148E-01  0.51100000000E-03 0. -1.
         11    1    3    3    0    0 -0.66962456501E-01  0.12553899364E-01 -0.21260371299E-01  0.71371110953E-01  0.51100000000E-03 0.  1.
</event>
<event>
 8    1  0.2091070E+004  0.1043930E+01  0.7957747E-01            NaN
         13   -1    0    0    0    0  0.00000000000E+00  0.00000000000E+00  0.74505805969E-08  0.10566000000E+00  0.10566000000E+00 0.  1.
     999900   -1    0    0    0    0 -0.00000000000E+00 -0.00000000000E+00 -0.74505805969E-08  0.93827000000E+00  0.93827000000E+00 0.  1.
     999902    2    1    2    0    0 -0.60040869915E-02  0.10247471110E-01  0.42005654176E-02  0.10313322036E+01  0.10312552592E+01 0.  0.
     999903    2    3    3    0    0  0.31161891423E-01  0.12892226299E+00 -0.23231721045E-01  0.14216543266E+00  0.45599166746E-01 0.  0.
         14    1    1    2    0    0  0.60040869915E-02 -0.10247471110E-01 -0.42005654176E-02  0.12597796417E-01  0.00000000000E+00 0. -1.
     999901    1    3    3    0    0 -0.37165978415E-01 -0.11867479188E+00  0.27432286462E-01  0.88916677093E+00  0.88000000000E+00 0. -1.
        -11    1    4    4    0    0  0.29298295108E-01  0.36863314185E-01  0.43667563379E-03  0.47092948894E-01  0.51100000000E-03 0. -1.
         11    1    4    4    0    0  0.18635963159E-02  0.92058948805E-01 -0.23668396679E-01  0.95072483762E-01  0.51100000000E-03 0.  1.
</event>
<event>
 8    1  0.2091070E+004  0.1043930E+01  0.7957747E-01            NaN
         13   -1    0    0    0    0  0.00000000000E+00  0.00000000000E+00  0.74505805969E-08  0.10566000000E+00  0.10566000000E+00 0.  1.
     999900   -1    0    0    0    0 -0.00000000000E+00 -0.00000000000E+00 -0.74505805969E-08  0.93827000000E+00  0.93827000000E+00 0.  1.
     999902    2    1    2    0    0 -0.16279536179E-02  0.48779460183E-02 -0.11947683777E-01  0.10309226276E+01  0.10308405659E+01 0.  0.
     999903    2    3    3    0    0  0.12294614794E-01  0.11711541388E+00  0.62302345627E-01  0.14058327991E+00  0.44887621874E-01 0.  0.
         14    1    1    2    0    0  0.16279536179E-02 -0.48779460183E-02  0.11947683777E-01  0.13007372447E-01  0.00000000000E+00 0.  1.
     999901    1    3    3    0    0 -0.13922568412E-01 -0.11223746786E+00 -0.74250029404E-01  0.89033934765E+00  0.88000000000E+00 0.  1.
        -11    1    4    4    0    0  0.11638090335E-01  0.84375224166E-01  0.20733528065E-01  0.87662785187E-01  0.51100000000E-03 0. -1.
         11    1    4    4    0    0  0.65652445829E-03  0.32740189713E-01  0.41568817562E-01  0.52920494719E-01  0.51100000000E-03 0.  1.
</event>
<event>
 8    1  0.2091070E+004  0.1043930E+01  0.7957747E-01            NaN
         13   -1    0    0    0    0  0.00000000000E+00  0.00000000000E+00  0.74505805969E-08  0.10566000000E+00  0.10566000000E+00 0.  1.
     999900   -1    0    0    0    0 -0.00000000000E+00 -0.00000000000E+00 -0.74505805969E-08  0.93827000000E+00  0.93827000000E+00 0. -1.
     999902    2    1    2    0    0 -0.69045864180E-02  0.39179227321E-02  0.11479673232E-01  0.10299726962E+01  0.10298781232E+01 0.  0.
     999903    2    3    3    0    0  0.27797829068E-01  0.15415150109E-01 -0.12588891509E+00  0.13856562143E+00  0.48394899993E-01 0.  0.
         14    1    1    2    0    0  0.69045864180E-02 -0.39179227321E-02 -0.11479673232E-01  0.13957303810E-01  0.00000000000E+00 0.  1.
     999901    1    3    3    0    0 -0.34702415486E-01 -0.11497227377E-01  0.13736858832E+00  0.89140707476E+00  0.88000000000E+00 0.  1.
        -11    1    4    4    0    0  0.35972474886E-01  0.25522509249E-01 -0.86733775262E-01  0.97305839085E-01  0.51100000000E-03 0. -1.
         11    1    4    4    0    0 -0.81746458177E-02 -0.10107359141E-01 -0.39155139828E-01  0.41259782343E-01  0.51100000000E-03 0.  1.
</event>
<event>
 7    1  0.2887567E+004  0.1043930E+01  0.7957747E-01            NaN
         13   -1    0    0    0    0  0.00000000000E+00  0.00000000000E+00  0.74505805969E-08  0.10566000000E+00  0.10566000000E+00 0.  1.
     999900   -1    0    0    0    0 -0.00000000000E+00 -0.00000000000E+00 -0.74505805969E-08  0.93827000000E+00  0.93827000000E+00 0.  1.
     999903    2    1    2    0    0 -0.53261428582E-01  0.69128054229E-01  0.47269773418E-01  0.10904574209E+00  0.45178255082E-01 0.  0.
         14    1    1    2    0    0 -0.26251680892E-01  0.88564884597E-02 -0.38983659729E-01  0.47825870231E-01  0.00000000000E+00 0. -1.
     999901    1    1    2    0    0  0.79513109474E-01 -0.77984542689E-01 -0.82861136893E-02  0.88705838768E+00  0.88000000000E+00 0.  1.
        -11    1    3    3    0    0 -0.12848032696E-01  0.50364359404E-02  0.27446293945E-01  0.30724547246E-01  0.51100000000E-03 0.  1.
         11    1    3    3    0    0 -0.40413395886E-01  0.64091618289E-01  0.19823479473E-01  0.78321194841E-01  0.51100000000E-03 0. -1.
</event>
<event>
 8    1  0.2091070E+004  0.1043930E+01  0.7957747E-01            NaN
         13   -1    0    0    0    0  0.00000000000E+00  0.00000000000E+00  0.74505805969E-08  0.10566000000E+00  0.10566000000E+00 0.  1.
     999900   -1    0    0    0    0 -0.00000000000E+00 -0.00000000000E+00 -0.74505805969E-08  0.93827000000E+00  0.93827000000E+00 0. -1.
     999902    2    1    2    0    0  0.49743661903E-02  0.10414811450E-01 -0.76894551231E-02  0.10300613181E+01  0.10299679504E+01 0.  0.
     999903    2    3    3    0    0  0.98430424708E-01  0.94201533529E-04  0.88108081134E-01  0.13988284288E+00  0.45995851857E-01 0.  0.
         14    1    1    2    0    0 -0.49743661903E-02 -0.10414811450E-01  0.76894551231E-02  0.13868681864E-01  0.00000000000E+00 0.  1.
     999901    1    3    3    0    0 -0.93456058518E-01  0.10320609917E-01 -0.95797536257E-01  0.89017847526E+00  0.88000000000E+00 0. -1.
        -11    1    4    4    0    0  0.18317536764E-01 -0.68355932889E-02  0.44035879116E-01  0.48183786270E-01  0.51100000000E-03 0. -1.
         11    1    4    4    0    0  0.80112887944E-01  0.69297948225E-02  0.44072202017E-01  0.91699056607E-01  0.51100000000E-03 0.  1.
</event>
<event>
 8    1  0.2091070E+004  0.1043930E+01  0.7957747E-01            NaN
         13   -1    0    0    0    0  0.00000000000E+00  0.00000000000E+00  0.74505805969E-08  0.10566000000E+00  0.10566000000E+00 0.  1.
     999900   -1    0    0    0    0 -0.00000000000E+00 -0.00000000000E+00 -0.74505805969E-08  0.93827000000E+00  0.93827000000E+00 0. -1.
     999902    2    1    2    0    0  0.13254619500E-01  0.23228121486E-02 -0.23751194376E-02  0.10302653893E+01  0.10301747671E+01 0.  0.
     999903    2    3    3    0    0 -0.74795205692E-01 -0.10207716489E+00  0.35846234599E-01  0.13891080279E+00  0.44689911720E-01 0.  0.
         14    1    1    2    0    0 -0.13254619500E-01 -0.23228121486E-02  0.23751194376E-02  0.13664610741E-01  0.00000000000E+00 0.  1.
     999901    1    3    3    0    0  0.88049825192E-01  0.10439997704E+00 -0.38221354036E-01  0.89135458647E+00  0.88000000000E+00 0. -1.
        -11    1    4    4    0    0 -0.63520114876E-01 -0.51655294055E-01  0.28652704617E-01  0.86742797976E-01  0.51100000000E-03 0. -1.
         11    1    4    4    0    0 -0.11275090816E-01 -0.50421870834E-01  0.71935299815E-02  0.52168004810E-01  0.51100000000E-03 0.  1.
</event>
<event>
 8    1  0.2091070E+004  0.1043930E+01  0.7957747E-01            NaN
         13   -1    0    0    0    0  0.00000000000E+00  0.00000000000E+00  0.74505805969E-08  0.10566000000E+00  0.10566000000E+00 0.  1.
     999900   -1    0    0    0    0 -0.00000000000E+00 -0.00000000000E+00 -0.74505805969E-08  0.93827000000E+00  0.93827000000E+00 0. -1.
     999902    2    1    2    0    0 -0.12030760986E-01  0.20208531477E-02 -0.54086092898E-02  0.10305854838E+01  0.10304990846E+01 0.  0.
     999903    2    3    3    0    0 -0.36433077021E-01  0.21343220235E-02  0.12690934291E+00  0.14035881248E+00  0.47567746352E-01 0.  0.
         14    1    1    2    0    0  0.12030760986E-01 -0.20208531477E-02  0.54086092898E-02  0.13344516169E-01  0.00000000000E+00 0.  1.
     999901    1    3    3    0    0  0.24402316035E-01 -0.11346887579E-03 -0.13231795220E+00  0.89022667135E+00  0.88000000000E+00 0. -1.
        -11    1    4    4    0    0 -0.32490254030E-01 -0.19443052910E-01  0.75526265103E-01  0.84487435485E-01  0.51100000000E-03 0. -1.
         11    1    4    4    0    0 -0.39428229915E-02  0.21577374933E-01  0.51383077805E-01  0.55871376999E-01  0.51100000000E-03 0.  1.
</event>
<event>
 8    1  0.2091070E+004  0.1043930E+01  0.7957747E-01            NaN
         13   -1    0    0    0    0  0.00000000000E+00  0.00000000000E+00  0.74505805969E-08  0.10566000000E+00  0.10566000000E+00 0.  1.
     999900   -1    0    0    0    0 -0.00000000000E+00 -0.00000000000E+00 -0.74505805969E-08  0.93827000000E+00  0.93827000000E+00 0.  1.
     999902    2    1    2    0    0 -0.26195250445E-02  0.13650331962E-01 -0.54619949649E-02  0.10289959161E+01  0.10288875392E+01 0.  0.
     999903    2    3    3    0    0 -0.10228003268E+00 -0.69344352894E-01  0.40896665451E-01  0.13828302186E+00  0.46688462456E-01 0.  0.
         14    1    1    2    0    0  0.26195250445E-02 -0.13650331962E-01  0.54619949649E-02  0.14934083940E-01  0.00000000000E+00 0.  1.
     999901    1    3    3    0    0  0.99660507637E-01  0.82994684856E-01 -0.46358660416E-01  0.89071289420E+00  0.88000000000E+00 0.  1.
        -11    1    4    4    0    0 -0.30224522489E-01 -0.24965523516E-01 -0.87475394620E-02  0.40169387496E-01  0.51100000000E-03 0. -1.
         11    1    4    4    0    0 -0.72055510192E-01 -0.44378829378E-01  0.49644204913E-01  0.98113634366E-01  0.51100000000E-03 0.  1.
</event>
<event>
 8    1  0.2091070E+004  0.1043930E+01  0.7957747E-01            NaN
         13   -1    0    0    0    0  0.00000000000E+00  0.00000000000E+00  0.74505805969E-08  0.10566000000E+00  0.10566000000E+00 0. -1.
     999900   -1    0    0    0    0 -0.00000000000E+00 -0.00000000000E+00 -0.74505805969E-08  0.93827000000E+00  0.93827000000E+00 0.  1.
     999902    2    1    2    0    0 -0.22649446703E-02  0.45760023123E-02 -0.12148538370E-01  0.10307521111E+01  0.10306678698E+01 0.  0.
     999903    2    3    3    0    0  0.65032136837E-01 -0.48384878628E-01 -0.10676532869E+00  0.14154679785E+00  0.45457510610E-01 0.  0.
         14    1    1    2    0    0  0.22649446703E-02 -0.45760023123E-02  0.12148538370E-01  0.13177888907E-01  0.00000000000E+00 0. -1.
     999901    1    3    3    0    0 -0.67297081507E-01  0.52960880941E-01  0.94616790315E-01  0.88920531324E+00  0.88000000000E+00 0. -1.
        -11    1    4    4    0    0 -0.98161987897E-03 -0.11478216898E-02 -0.29290162653E-01  0.29333527260E-01  0.51100000000E-03 0. -1.
         11    1    4    4    0    0  0.66013756716E-01 -0.47237056939E-01 -0.77475166032E-01  0.11221327059E+00  0.51100000000E-03 0.  1.
</event>
<event>
 8    1  0.2091070E+004  0.1043930E+01  0.7957747E-01            NaN
         13   -1    0    0    0    0  0.00000000000E+00  0.00000000000E+00  0.74505805969E-08  0.10566000000E+00  0.10566000000E+00 0.  1.
     999900   -1    0    0    0    0 -0.00000000000E+00 -0.00000000000E+00 -0.74505805969E-08  0.93827000000E+00  0.93827000000E+00 0.  1.
     999902    2    1    2    0    0  0.12405525322E-01 -0.47165342715E-02  0.29176292895E-02  0.10303412063E+01  0.10302515936E+01 0.  0.
     999903    2    3    3    0    0 -0.10279578959E+00  0.79450615456E-01  0.18652721639E-01  0.13871177362E+00  0.44873794848E-01 0.  0.
         14    1    1    2    0    0 -0.12405525322E-01  0.47165342715E-02 -0.29176292895E-02  0.13588793719E-01  0.00000000000E+00 0. -1.
     999901    1    3    3    0    0  0.11520131491E+00 -0.84167149728E-01 -0.15735092349E-01  0.89162943266E+00  0.88000000000E+00 0.  1.
        -11    1    4    4    0    0 -0.68577436208E-01  0.28059645601E-01 -0.39081597747E-03  0.74098733635E-01  0.51100000000E-03 0. -1.
         11    1    4    4    0    0 -0.34218353379E-01  0.51390969856E-01  0.19043537616E-01  0.64613039989E-01  0.51100000000E-03 0.  1.
</event>
<event>
 8    1  0.2091070E+004  0.1043930E+01  0.7957747E-01            NaN
         13   -1    0    0    0    0  0.00000000000E+00  0.00000000000E+00  0.74505805969E-08  0.10566000000E+00  0.10566000000E+00 0.  1.
     999900   -1    0    0    0    0 -0.00000000000E+00 -0.00000000000E+00 -0.74505805969E-08  0.93827000000E+00  0.93827000000E+00 0. -1.
     999902    2    1    2    0    0  0.86903185062E-02  0.11946622940E-01  0.70753320352E-02  0.10275500196E+01  0.10274194562E+01 0.  0.
     999903    2    3    3    0    0 -0.10376160904E+00 -0.71288674274E-01  0.26155164654E-01  0.13629383265E+00  0.45203645773E-01 0.  0.
         14    1    1    2    0    0 -0.86903185062E-02 -0.11946622940E-01 -0.70753320352E-02  0.16379980428E-01  0.00000000000E+00 0. -1.
     999901    1    3    3    0    0  0.11245192754E+00  0.83235297214E-01 -0.19079832619E-01  0.89125618692E+00  0.88000000000E+00 0.  1.
        -11    1    4    4    0    0 -0.62386077751E-01 -0.31369508578E-01 -0.65671144607E-02  0.70138840017E-01  0.51100000000E-03 0. -1.
         11    1    4    4    0    0 -0.41375531286E-01 -0.39919165695E-01  0.32722279115E-01  0.66154992635E-01  0.51100000000E-03 0.  1.
</event>
<event>
 8    1  0.2091070E+004  0.1043930E+01  0.7957747E-01            NaN
         13   -1    0    0    0    0  0.00000000000E+00  0.00000000000E+00  0.74505805969E-08  0.10566000000E+00  0.10566000000E+00 0.  1.
     999900   -1    0    0    0    0 -0.00000000000E+00 -0.00000000000E+00 -0.74505805969E-08  0.93827000000E+00  0.93827000000E+00 0. -1.
     999902    2    1    2    0    0  0.80241675900E-02 -0.13468571833E-02  0.11180402231E-01  0.10301023941E+01  0.10300095823E+01 0.  0.
     999903    2    3    3    0    0 -0.41623586876E-01  0.83169525954E-01 -0.92204582225E-01  0.13864495065E+00  0.45508728015E-01 0.  0.
         14    1    1    2    0    0 -0.80241675900E-02  0.13468571833E-02 -0.11180402231E-01  0.13827605860E-01  0.00000000000E+00 0. -1.
     999901    1    3    3    0    0  0.49647754466E-01 -0.84516383138E-01  0.10338498446E+00  0.89145744349E+00  0.88000000000E+00 0.  1.
        -11    1    4    4    0    0 -0.23513388345E-01  0.10818025166E-01 -0.10279947006E-01  0.27854039768E-01  0.51100000000E-03 0.  1.
         11    1    4    4    0    0 -0.18110198531E-01  0.72351500789E-01 -0.81924635220E-01  0.11079091088E+00  0.51100000000E-03 0. -1.
</event>
<event>
 8    1  0.2091070E+004  0.1043930E+01  0.7957747E-01            NaN
         13   -1    0    0    0    0  0.00000000000E+00  0.00000000000E+00  0.74505805969E-08  0.10566000000E+00  0.10566000000E+00 0.  1.
     999900   -1    0    0    0    0 -0.00000000000E+00 -0.00000000000E+00 -0.74505805969E-08  0.93827000000E+00  0.93827000000E+00 0.  1.
     999902    2    1    2    0    0 -0.35863294195E-02 -0.10894307564E-01 -0.32039431029E-02  0.10320214759E+01  0.10319527672E+01 0.  0.
     999903    2    3    3    0    0 -0.12927159218E+00 -0.39000877075E-01  0.37843886884E-02  0.14261965367E+00  0.45758398766E-01 0.  0.
         14    1    1    2    0    0  0.35863294195E-02  0.10894307564E-01  0.32039431029E-02  0.11908524149E-01  0.00000000000E+00 0. -1.
     999901    1    3    3    0    0  0.12568526276E+00  0.28106569511E-01 -0.69883317913E-02  0.88940182218E+00  0.88000000000E+00 0. -1.
        -11    1    4    4    0    0 -0.54144611956E-01 -0.39547061907E-01  0.70307064599E-02  0.67418847985E-01  0.51100000000E-03 0.  1.
         11    1    4    4    0    0 -0.75126980221E-01  0.54618483240E-03 -0.32463177715E-02  0.75200805681E-01  0.51100000000E-03 0. -1.
</event>
<event>
 8    1  0.2091070E+004  0.1043930E+01  0.7957747E-01            NaN
         13   -1    0    0    0    0  0.00000000000E+00  0.00000000000E+00  0.74505805969E-08  0.10566000000E+00  0.10566000000E+00 0. -1.
     999900   -1    0    0    0    0 -0.00000000000E+00 -0.00000000000E+00 -0.74505805969E-08  0.93827000000E+00  0.93827000000E+00 0.  1.
     999902    2    1    2    0    0  0.62735974191E-02  0.12419664534E-01  0.22747390046E-02  0.10298310451E+01  0.10297345293E+01 0.  0.
     999903    2    3    3    0    0  0.58440978507E-01  0.91045398413E-01  0.79066294888E-01  0.14146153598E+00  0.45335136858E-01 0.  0.
         14    1    1    2    0    0 -0.62735974191E-02 -0.12419664534E-01 -0.22747390046E-02  0.14098954899E-01  0.00000000000E+00 0. -1.
     999901    1    3    3    0    0 -0.52167381088E-01 -0.78625733879E-01 -0.76791555883E-01  0.88836950912E+00  0.88000000000E+00 0.  1.
        -11    1    4    4    0    0  0.41187565649E-01  0.25851137755E-01  0.43348818380E-01  0.65146589038E-01  0.51100000000E-03 0.  1.
         11    1    4    4    0    0  0.17253412858E-01  0.65194260657E-01  0.35717476508E-01  0.76314946944E-01  0.51100000000E-03 0. -1.
</event>
<event>
 6    1  0.2091070E+004  0.1043930E+01  0.7957747E-01            NaN
         13   -1    0    0    0    0  0.00000000000E+00  0.00000000000E+00  0.74505805969E-08  0.10566000000E+00  0.10566000000E+00 0. -1.
     999900   -1    0    0    0    0 -0.00000000000E+00 -0.00000000000E+00 -0.74505805969E-08  0.93827000000E+00  0.93827000000E+00 0.  1.
         14    1    1    2    0    0 -0.14770378285E-02  0.22709538027E-01 -0.59056343068E-01  0.63289465274E-01  0.00000000000E+00 0.  1.
     999901    1    1    2    0    0 -0.10068596582E-01 -0.83331181739E-01  0.11683265885E+00  0.89168118331E+00  0.88000000000E+00 0. -1.
        -11    1    1    2    0    0  0.32254383662E-02  0.35765793714E-01 -0.50098416853E-01  0.61641771104E-01  0.51100000000E-03 0.  1.
         11    1    1    2    0    0  0.83201960438E-02  0.24855849997E-01 -0.76778989338E-02  0.27317580316E-01  0.51100000000E-03 0. -1.
</event>
<event>
 8    1  0.2091070E+004  0.1043930E+01  0.7957747E-01            NaN
         13   -1    0    0    0    0  0.00000000000E+00  0.00000000000E+00  0.74505805969E-08  0.10566000000E+00  0.10566000000E+00 0. -1.
     999900   -1    0    0    0    0 -0.00000000000E+00 -0.00000000000E+00 -0.74505805969E-08  0.93827000000E+00  0.93827000000E+00 0.  1.
     999902    2    1    2    0    0  0.14206007655E-01  0.39027836098E-02  0.46906016648E-03  0.10291901767E+01  0.10290846211E+01 0.  0.
     999903    2    3    3    0    0 -0.62191606138E-02 -0.78833418259E-01 -0.10478893453E+00  0.13882973730E+00  0.45161813159E-01 0.  0.
         14    1    1    2    0    0 -0.14206007655E-01 -0.39027836098E-02 -0.46906016648E-03  0.14739823298E-01  0.00000000000E+00 0. -1.
     999901    1    3    3    0    0  0.20425168269E-01  0.82736201868E-01  0.10525799469E+00  0.89036043940E+00  0.88000000000E+00 0. -1.
        -11    1    4    4    0    0  0.35594583549E-02 -0.18781715357E-01 -0.60834347464E-01  0.63769126761E-01  0.51100000000E-03 0. -1.
         11    1    4    4    0    0 -0.97786189687E-02 -0.60051702902E-01 -0.43954587062E-01  0.75060610543E-01  0.51100000000E-03 0.  1.
</event>
<event>
 8    1  0.2091070E+004  0.1043930E+01  0.7957747E-01            NaN
         13   -1    0    0    0    0  0.00000000000E+00  0.00000000000E+00  0.74505805969E-08  0.10566000000E+00  0.10566000000E+00 0.  1.
     999900   -1    0    0    0    0 -0.00000000000E+00 -0.00000000000E+00 -0.74505805969E-08  0.93827000000E+00  0.93827000000E+00 0.  1.
     999902    2    1    2    0    0  0.46509947417E-02  0.12295075763E-01 -0.48827142032E-02  0.10299071066E+01  0.10298116366E+01 0.  0.
     999903    2    3    3    0    0 -0.60970480021E-01 -0.90506828071E-01 -0.72907405556E-01  0.13889545239E+00  0.45470556935E-01 0.  0.
         14    1    1    2    0    0 -0.46509947417E-02 -0.12295075763E-01  0.48827142032E-02  0.14022893357E-01  0.00000000000E+00 0.  1.
     999901    1    3    3    0    0  0.65621474763E-01  0.10280190383E+00  0.68024691352E-01  0.89101165425E+00  0.88000000000E+00 0.  1.
        -11    1    4    4    0    0 -0.44536865626E-01 -0.36173732446E-01 -0.18555667944E-01  0.60304603909E-01  0.51100000000E-03 0.  1.
         11    1    4    4    0    0 -0.16433614396E-01 -0.54333095626E-01 -0.54351737612E-01  0.78590848480E-01  0.51100000000E-03 0. -1.
</event>
<event>
 8    1  0.2091070E+004  0.1043930E+01  0.7957747E-01            NaN
         13   -1    0    0    0    0  0.00000000000E+00  0.00000000000E+00  0.74505805969E-08  0.10566000000E+00  0.10566000000E+00 0.  1.
     999900   -1    0    0    0    0 -0.00000000000E+00 -0.00000000000E+00 -0.74505805969E-08  0.93827000000E+00  0.93827000000E+00 0.  1.
     999902    2    1    2    0    0  0.31260280969E-02  0.36926764999E-02  0.12614213342E-01  0.10304197709E+01  0.10303311982E+01 0.  0.
     999903    2    3    3    0    0  0.11695927371E+00  0.59953443396E-01  0.25600798442E-01  0.14121117161E+00  0.44847597786E-01 0.  0.
         14    1    1    2    0    0 -0.31260280969E-02 -0.36926764999E-02 -0.12614213342E-01  0.13510229074E-01  0.00000000000E+00 0. -1.
     999901    1    3    3    0    0 -0.11383324561E+00 -0.56260766897E-01 -0.12986585100E-01  0.88920859931E+00  0.88000000000E+00 0. -1.
        -11    1    4    4    0    0  0.73528688697E-01  0.12731907287E-01  0.16266985797E-01  0.76376995702E-01  0.51100000000E-03 0.  1.
         11    1    4    4    0    0  0.43430585009E-01  0.47221536109E-01  0.93338126444E-02  0.64834175912E-01  0.51100000000E-03 0. -1.
</event>
<event>
 8    1  0.2091070E+004  0.1043930E+01  0.7957747E-01            NaN
         13   -1    0    0    0    0  0.00000000000E+00  0.00000000000E+00  0.74505805969E-08  0.10566000000E+00  0.10566000000E+00 0. -1.
     999900   -1    0    0    0    0 -0.00000000000E+00 -0.00000000000E+00 -0.74505805969E-08  0.93827000000E+00  0.93827000000E+00 0. -1.
     999902    2    1    2    0    0  0.97704552900E-02  0.94870450936E-02 -0.32826636485E-02  0.10299213705E+01  0.10298260958E+01 0.  0.
     999903    2    3    3    0    0 -0.71819042751E-01 -0.96933341473E-01  0.49937774695E-01  0.13817333433E+00  0.45211075943E-01 0.  0.
         14    1    1    2    0    0 -0.97704552900E-02 -0.94870450936E-02  0.32826636485E-02  0.14008629548E-01  0.00000000000E+00 0. -1.
     999901    1    3    3    0    0  0.81589498041E-01  0.10642038657E+00 -0.53220438343E-01  0.89174803612E+00  0.88000000000E+00 0.  1.
        -11    1    4    4    0    0 -0.62347520725E-01 -0.78211076226E-01  0.20633263335E-01  0.10212824517E+00  0.51100000000E-03 0. -1.
         11    1    4    4    0    0 -0.94715220260E-02 -0.18722265247E-01  0.29304511360E-01  0.36045089160E-01  0.51100000000E-03 0.  1.
</event>
<event>
 8    1  0.2091070E+004  0.1043930E+01  0.7957747E-01            NaN
         13   -1    0    0    0    0  0.00000000000E+00  0.00000000000E+00  0.74505805969E-08  0.10566000000E+00  0.10566000000E+00 0.  1.
     999900   -1    0    0    0    0 -0.00000000000E+00 -0.00000000000E+00 -0.74505805969E-08  0.93827000000E+00  0.93827000000E+00 0.  1.
     999902    2    1    2    0    0 -0.12780104532E-01  0.47360552810E-04 -0.34080868595E-02  0.10307031950E+01  0.10306183230E+01 0.  0.
     999903    2    3    3    0    0 -0.85913828609E-01 -0.66320515950E-01 -0.79781898568E-01  0.14189151879E+00  0.44592095520E-01 0.  0.
         14    1    1    2    0    0  0.12780104532E-01 -0.47360552810E-04  0.34080868595E-02  0.13226805015E-01  0.00000000000E+00 0.  1.
     999901    1    3    3    0    0  0.73133724077E-01  0.66367876503E-01  0.76373811708E-01  0.88881167620E+00  0.88000000000E+00 0. -1.
        -11    1    4    4    0    0 -0.26372230023E-01 -0.49991466955E-02 -0.38589544479E-01  0.47009574006E-01  0.51100000000E-03 0. -1.
         11    1    4    4    0    0 -0.59541598586E-01 -0.61321369254E-01 -0.41192354088E-01  0.94881944783E-01  0.51100000000E-03 0.  1.
</event>
<event>
 8    1  0.2091070E+004  0.1043930E+01  0.7957747E-01            NaN
         13   -1    0    0    0    0  0.00000000000E+00  0.00000000000E+00  0.74505805969E-08  0.10566000000E+00  0.10566000000E+00 0. -1.
     999900   -1    0    0    0    0 -0.00000000000E+00 -0.00000000000E+00 -0.74505805969E-08  0.93827000000E+00  0.93827000000E+00 0.  1.
     999902    2    1    2    0    0  0.12859742258E-01  0.27732389474E-02  0.56034281858E-02  0.10296309709E+01  0.10295316770E+01 0.  0.
     999903    2    3    3    0    0  0.61656859078E-01 -0.11730824006E+00  0.23281146511E-02  0.14013029757E+00  0.45478442373E-01 0.  0.
         14    1    1    2    0    0 -0.12859742258E-01 -0.27732389474E-02 -0.56034281858E-02  0.14299029080E-01  0.00000000000E+00 0.  1.
     999901    1    3    3    0    0 -0.48797116820E-01  0.12008147901E+00  0.32753135347E-02  0.88950067335E+00  0.88000000000E+00 0. -1.
        -11    1    4    4    0    0  0.28707119946E-01 -0.75958114614E-01 -0.18528346520E-01  0.83290423562E-01  0.51100000000E-03 0. -1.
         11    1    4    4    0    0  0.32949739132E-01 -0.41350125450E-01  0.20856461171E-01  0.56839874008E-01  0.51100000000E-03 0.  1.
</event>
<event>
 8    1  0.2091070E+004  0.1043930E+01  0.7957747E-01            NaN
         13   -1    0    0    0    0  0.00000000000E+00  0.00000000000E+00  0.74505805969E-08  0.10566000000E+00  0.10566000000E+00 0.  1.
     999900   -1    0    0    0    0 -0.00000000000E+00 -0.00000000000E+00 -0.74505805969E-08  0.93827000000E+00  0.93827000000E+00 0.  1.
     999902    2    1    2    0    0  0.54431013276E-02  0.33036813863E-02 -0.12115037136E-01  0.10302436642E+01  0.10301527517E+01 0.  0.
     999903    2    3    3    0    0 -0.64281185949E-01 -0.80555058809E-01 -0.83666913771E-01  0.14062945816E+00  0.46425248255E-01 0.  0.
         14    1    1    2    0    0 -0.54431013276E-02 -0.33036813863E-02  0.12115037136E-01  0.13686335798E-01  0.00000000000E+00 0.  1.
     999901    1    3    3    0    0  0.69724287277E-01  0.83858740195E-01  0.71551876634E-01  0.88961420604E+00  0.88000000000E+00 0.  1.
        -11    1    4    4    0    0 -0.31287704768E-01 -0.31966165081E-01 -0.65181950333E-01  0.79055069097E-01  0.51100000000E-03 0. -1.
         11    1    4    4    0    0 -0.32993481181E-01 -0.48588893728E-01 -0.18484963437E-01  0.61574389062E-01  0.51100000000E-03 0.  1.
</event>
<event>
 8    1  0.2091070E+004  0.1043930E+01  0.7957747E-01            NaN
         13   -1    0    0    0    0  0.00000000000E+00  0.00000000000E+00  0.74505805969E-08  0.10566000000E+00  0.10566000000E+00 0.  1.
     999900   -1    0    0    0    0 -0.00000000000E+00 -0.00000000000E+00 -0.74505805969E-08  0.93827000000E+00  0.93827000000E+00 0.  1.
     999902    2    1    2    0    0 -0.63366505862E-02  0.11797643690E-01 -0.21217659919E-02  0.10303712601E+01  0.10302820459E+01 0.  0.
     999903    2    3    3    0    0 -0.26836441043E-01 -0.93218823388E-02 -0.12996866083E+00  0.14064596298E+00  0.45632686148E-01 0.  0.
         14    1    1    2    0    0  0.63366505862E-02 -0.11797643690E-01  0.21217659919E-02  0.13558739920E-01  0.00000000000E+00 0.  1.
     999901    1    3    3    0    0  0.20499790457E-01  0.21119526029E-01  0.12784689484E+00  0.88972529710E+00  0.88000000000E+00 0. -1.
        -11    1    4    4    0    0  0.11862777667E-01 -0.87806049407E-02 -0.42605441395E-01  0.45092230756E-01  0.51100000000E-03 0.  1.
         11    1    4    4    0    0 -0.38699218710E-01 -0.54127739808E-03 -0.87363219435E-01  0.95553732220E-01  0.51100000000E-03 0. -1.
</event>
<event>
 8    1  0.2091070E+004  0.1043930E+01  0.7957747E-01            NaN
         13   -1    0    0    0    0  0.00000000000E+00  0.00000000000E+00  0.74505805969E-08  0.10566000000E+00  0.10566000000E+00 0.  1.
     999900   -1    0    0    0    0 -0.00000000000E+00 -0.00000000000E+00 -0.74505805969E-08  0.93827000000E+00  0.93827000000E+00 0.  1.
     999902    2    1    2    0    0  0.97029925020E-02  0.58531454936E-02  0.84160173002E-02  0.10298148761E+01  0.10297181373E+01 0.  0.
     999903    2    3    3    0    0 -0.38062544369E-01  0.88384900998E-01  0.92591905670E-01  0.14066999625E+00  0.44205642624E-01 0.  0.
         14    1    1    2    0    0 -0.97029925020E-02 -0.58531454936E-02 -0.84160173002E-02  0.14115123905E-01  0.00000000000E+00 0. -1.
     999901    1    3    3    0    0  0.47765536871E-01 -0.82531755505E-01 -0.84175888369E-01  0.88914487985E+00  0.88000000000E+00 0.  1.
        -11    1    4    4    0    0 -0.27655453064E-01  0.18977459605E-01  0.43897475570E-01  0.55246878098E-01  0.51100000000E-03 0.  1.
         11    1    4    4    0    0 -0.10407091306E-01  0.69407441393E-01  0.48694430100E-01  0.85423118147E-01  0.51100000000E-03 0. -1.
</event>
<event>
 8    1  0.2091070E+004  0.1043930E+01  0.7957747E-01            NaN
         13   -1    0    0    0    0  0.00000000000E+00  0.00000000000E+00  0.74505805969E-08  0.10566000000E+00  0.10566000000E+00 0. -1.
     999900   -1    0    0    0    0 -0.00000000000E+00 -0.00000000000E+00 -0.74505805969E-08  0.93827000000E+00  0.93827000000E+00 0.  1.
     999902    2    1    2    0    0  0.73873542170E-02 -0.91419335350E-02 -0.83539762324E-02  0.10295099837E+01  0.10294089905E+01 0.  0.
     999903    2    3    3    0    0  0.32356279477E-01  0.10015497333E+00 -0.79784517291E-01  0.13952594830E+00  0.44988593496E-01 0.  0.
         14    1    1    2    0    0 -0.73873542170E-02  0.91419335350E-02  0.83539762324E-02  0.14420016296E-01  0.00000000000E+00 0. -1.
     999901    1    3    3    0    0 -0.24968925260E-01 -0.10929690687E+00  0.71430541059E-01  0.88998403540E+00  0.88000000000E+00 0. -1.
        -11    1    4    4    0    0 -0.83217271294E-02  0.76339207036E-02 -0.17411665650E-01  0.20759458313E-01  0.51100000000E-03 0. -1.
         11    1    4    4    0    0  0.40678006606E-01  0.92521052628E-01 -0.62372851641E-01  0.11876648999E+00  0.51100000000E-03 0.  1.
</event>
<event>
 8    1  0.2091070E+004  0.1043930E+01  0.7957747E-01            NaN
         13   -1    0    0    0    0  0.00000000000E+00  0.00000000000E+00  0.74505805969E-08  0.10566000000E+00  0.10566000000E+00 0. -1.
     999900   -1    0    0    0    0 -0.00000000000E+00 -0.00000000000E+00 -0.74505805969E-08  0.93827000000E+00  0.93827000000E+00 0.  1.
     999902    2    1    2    0    0  0.11734840613E-01 -0.25914169936E-02 -0.71687078721E-02  0.10299367052E+01  0.10298416405E+01 0.  0.
     999903    2    3    3    0    0  0.10233417590E-01  0.15623927265E-01 -0.13217436234E+00  0.14091450826E+00  0.45144286913E-01 0.  0.
         14    1    1    2    0    0 -0.11734840613E-01  0.25914169936E-02  0.71687078721E-02  0.13993294780E-01  0.00000000000E+00 0. -1.
     999901    1    3    3    0    0  0.15014230228E-02 -0.18215344259E-01  0.12500565446E+00  0.88902219696E+00  0.88000000000E+00 0. -1.
        -11    1    4    4    0    0 -0.49519619520E-02 -0.44432649395E-02 -0.99235054272E-01  0.99459145622E-01  0.51100000000E-03 0. -1.
         11    1    4    4    0    0  0.15185379542E-01  0.20067192205E-01 -0.32939308064E-01  0.41455362639E-01  0.51100000000E-03 0.  1.
</event>
<event>
 8    1  0.2091070E+004  0.1043930E+01  0.7957747E-01            NaN
         13   -1    0    0    0    0  0.00000000000E+00  0.00000000000E+00  0.74505805969E-08  0.10566000000E+00  0.10566000000E+00 0.  1.
     999900   -1    0    0    0    0 -0.00000000000E+00 -0.00000000000E+00 -0.74505805969E-08  0.93827000000E+00  0.93827000000E+00 0. -1.
     999902    2    1    2    0    0 -0.11398191293E-01  0.67190711434E-02 -0.29699716982E-02  0.10303695644E+01  0.10302803278E+01 0.  0.
     999903    2    3    3    0    0  0.64804256776E-01  0.80287119196E-01  0.82145709558E-01  0.13994059476E+00  0.46795718361E-01 0.  0.
         14    1    1    2    0    0  0.11398191293E-01 -0.67190711434E-02  0.29699716982E-02  0.13560435600E-01  0.00000000000E+00 0. -1.
     999901    1    3    3    0    0 -0.76202448068E-01 -0.73568048052E-01 -0.85115681256E-01  0.89042896964E+00  0.88000000000E+00 0. -1.
        -11    1    4    4    0    0  0.10981785776E-01  0.45403574221E-01  0.20626650111E-01  0.51066662184E-01  0.51100000000E-03 0. -1.
         11    1    4    4    0    0  0.53822471000E-01  0.34883544975E-01  0.61519059447E-01  0.88873932572E-01  0.51100000000E-03 0.  1.
</event>
<event>
 8    1  0.2091070E+004  0.1043930E+01  0.7957747E-01            NaN
         13   -1    0    0    0    0  0.00000000000E+00  0.00000000000E+00  0.74505805969E-08  0.10566000000E+00  0.10566000000E+00 0.  1.
     999900   -1    0    0    0    0 -0.00000000000E+00 -0.00000000000E+00 -0.74505805969E-08  0.93827000000E+00  0.93827000000E+00 0. -1.
     999902    2    1    2    0    0 -0.16505938140E-01 -0.12940534848E-02  0.10630809253E-01  0.10242542618E+01  0.10240652607E+01 0.  0.
     999903    2    3    3    0    0  0.67968380306E-01  0.84568884910E-01 -0.61937076082E-01  0.13308960101E+00  0.45880752895E-01 0.  0.
         14    1    1    2    0    0  0.16505938140E-01  0.12940534848E-02 -0.10630809253E-01  0.19675738199E-01  0.00000000000E+00 0.  1.
     999901    1    3    3    0    0 -0.84474318446E-01 -0.85862938395E-01  0.72567885335E-01  0.89116466079E+00  0.88000000000E+00 0. -1.
        -11    1    4    4    0    0  0.16901836990E-01  0.67639747996E-02 -0.29234286694E-01  0.34443113800E-01  0.51100000000E-03 0. -1.
         11    1    4    4    0    0  0.51066543316E-01  0.77804910110E-01 -0.32702789388E-01  0.98646487207E-01  0.51100000000E-03 0.  1.
</event>
<event>
 8    1  0.2091070E+004  0.1043930E+01  0.7957747E-01            NaN
         13   -1    0    0    0    0  0.00000000000E+00  0.00000000000E+00  0.74505805969E-08  0.10566000000E+00  0.10566000000E+00 0.  1.
     999900   -1    0    0    0    0 -0.00000000000E+00 -0.00000000000E+00 -0.74505805969E-08  0.93827000000E+00  0.93827000000E+00 0.  1.
     999902    2    1    2    0    0  0.73444903232E-02 -0.98417506525E-04  0.11027219571E-01  0.10306804417E+01  0.10305952756E+01 0.  0.
     999903    2    3    3    0    0  0.35982091468E-01  0.12758509128E+00  0.18256040533E-01  0.14097518348E+00  0.44362742471E-01 0.  0.
         14    1    1    2    0    0 -0.73444903232E-02  0.98417506525E-04 -0.11027219571E-01  0.13249558316E-01  0.00000000000E+00 0. -1.
     999901    1    3    3    0    0 -0.28637601145E-01 -0.12768350878E+00 -0.72288209620E-02  0.88970525820E+00  0.88000000000E+00 0.  1.
        -11    1    4    4    0    0 -0.22044413754E-02  0.55884939454E-01 -0.58541160328E-02  0.56236267791E-01  0.51100000000E-03 0. -1.
         11    1    4    4    0    0  0.38186532844E-01  0.71700151825E-01  0.24110156565E-01  0.84738915694E-01  0.51100000000E-03 0.  1.
</event>
<event>
 8    1  0.2091070E+004  0.1043930E+01  0.7957747E-01            NaN
         13   -1    0    0    0    0  0.00000000000E+00  0.00000000000E+00  0.74505805969E-08  0.10566000000E+00  0.10566000000E+00 0. -1.
     999900   -1    0    0    0    0 -0.00000000000E+00 -0.00000000000E+00 -0.74505805969E-08  0.93827000000E+00  0.93827000000E+00 0. -1.
     999902    2    1    2    0    0  0.52089489434E-02  0.12678522134E-01  0.34060996482E-03  0.10302189064E+01  0.10301276625E+01 0.  0.
     999903    2    3    3    0    0  0.43236364179E-01  0.98765120742E-01  0.80032462302E-01  0.14162013412E+00  0.45023717115E-01 0.  0.
         14    1    1    2    0    0 -0.52089489434E-02 -0.12678522134E-01 -0.34060996482E-03  0.13711093602E-01  0.00000000000E+00 0. -1.
     999901    1    3    3    0    0 -0.38027415236E-01 -0.86086598607E-01 -0.79691852338E-01  0.88859877228E+00  0.88000000000E+00 0. -1.
        -11    1    4    4    0    0  0.40775017691E-01  0.38419208571E-01  0.44473100797E-01  0.71531499847E-01  0.51100000000E-03 0.  1.
         11    1    4    4    0    0  0.24613464883E-02  0.60345912171E-01  0.35559361505E-01  0.70088634271E-01  0.51100000000E-03 0. -1.
</event>
<event>
 8    1  0.2091070E+004  0.1043930E+01  0.7957747E-01            NaN
         13   -1    0    0    0    0  0.00000000000E+00  0.00000000000E+00  0.74505805969E-08  0.10566000000E+00  0.10566000000E+00 0. -1.
     999900   -1    0    0    0    0 -0.00000000000E+00 -0.00000000000E+00 -0.74505805969E-08  0.93827000000E+00  0.93827000000E+00 0.  1.
     999902    2    1    2    0    0  0.25180418419E-03  0.54939502183E-02  0.12846394308E-01  0.10299558545E+01  0.10298610516E+01 0.  0.
     999903    2    3    3    0    0  0.91668678889E-01  0.88639792337E-01 -0.37476061870E-01  0.13989820156E+00  0.43667975826E-01 0.  0.
         14    1    1    2    0    0 -0.25180418419E-03 -0.54939502183E-02 -0.12846394308E-01  0.13974145450E-01  0.00000000000E+00 0.  1.
     999901    1    3    3    0    0 -0.91416874705E-01 -0.83145842119E-01  0.50322456178E-01  0.89005765299E+00  0.88000000000E+00 0. -1.
        -11    1    4    4    0    0  0.80125182465E-01  0.50426858723E-01 -0.22951166311E-01  0.97416272264E-01  0.51100000000E-03 0. -1.
         11    1    4    4    0    0  0.11543496424E-01  0.38212933614E-01 -0.14524895559E-01  0.42481929300E-01  0.51100000000E-03 0.  1.
</event>
<event>
 8    1  0.2091070E+004  0.1043930E+01  0.7957747E-01            NaN
         13   -1    0    0    0    0  0.00000000000E+00  0.00000000000E+00  0.74505805969E-08  0.10566000000E+00  0.10566000000E+00 0. -1.
     999900   -1    0    0    0    0 -0.00000000000E+00 -0.00000000000E+00 -0.74505805969E-08  0.93827000000E+00  0.93827000000E+00 0. -1.
     999902    2    1    2    0    0  0.39424664599E-02 -0.53330585321E-02  0.11764662609E-01  0.10304247476E+01  0.10303362406E+01 0.  0.
     999903    2    3    3    0    0 -0.57473742891E-01  0.11686022909E+00 -0.21628166861E-01  0.13923552454E+00  0.44262957710E-01 0.  0.
         14    1    1    2    0    0 -0.39424664599E-02  0.53330585321E-02 -0.11764662609E-01  0.13505252364E-01  0.00000000000E+00 0.  1.
     999901    1    3    3    0    0  0.61416209351E-01 -0.12219328763E+00  0.33392829470E-01  0.89118922310E+00  0.88000000000E+00 0.  1.
        -11    1    4    4    0    0 -0.31016714303E-01  0.66262653146E-01  0.10187806362E-01  0.73870347823E-01  0.51100000000E-03 0. -1.
         11    1    4    4    0    0 -0.26457028588E-01  0.50597575947E-01 -0.31815973223E-01  0.65365176712E-01  0.51100000000E-03 0.  1.
</event>
<event>
 8    1  0.2091070E+004  0.1043930E+01  0.7957747E-01            NaN
         13   -1    0    0    0    0  0.00000000000E+00  0.00000000000E+00  0.74505805969E-08  0.10566000000E+00  0.10566000000E+00 0.  1.
     999900   -1    0    0    0    0 -0.00000000000E+00 -0.00000000000E+00 -0.74505805969E-08  0.93827000000E+00  0.93827000000E+00 0.  1.
     999902    2    1    2    0    0  0.66503947442E-02  0.12905325245E-01  0.47621707211E-02  0.10286508168E+01  0.10285373350E+01 0.  0.
     999903    2    3    3    0    0  0.93788930129E-01  0.89126061684E-01  0.30986739856E-01  0.14068096761E+00  0.45728965807E-01 0.  0.
         14    1    1    2    0    0 -0.66503947442E-02 -0.12905325245E-01 -0.47621707211E-02  0.15279183221E-01  0.00000000000E+00 0. -1.
     999901    1    3    3    0    0 -0.87138535385E-01 -0.76220736439E-01 -0.26224569135E-01  0.88796984917E+00  0.88000000000E+00 0.  1.
        -11    1    4    4    0    0  0.35546495062E-01  0.38123728157E-01 -0.10006559797E-01  0.53078850023E-01  0.51100000000E-03 0. -1.
         11    1    4    4    0    0  0.58242435067E-01  0.51002333527E-01  0.40993299653E-01  0.87602117584E-01  0.51100000000E-03 0.  1.
</event>
<event>
 8    1  0.2091070E+004  0.1043930E+01  0.7957747E-01            NaN
         13   -1    0    0    0    0  0.00000000000E+00  0.00000000000E+00  0.74505805969E-08  0.10566000000E+00  0.10566000000E+00 0.  1.
     999900   -1    0    0    0    0 -0.00000000000E+00 -0.00000000000E+00 -0.74505805969E-08  0.93827000000E+00  0.93827000000E+00 0.  1.
     999902    2    1    2    0    0  0.81176192234E-02  0.98055954244E-02  0.47983244405E-02  0.10303259800E+01  0.10302361650E+01 0.  0.
     999903    2    3    3    0    0 -0.81055998042E-01  0.21161434059E-01 -0.10191077470E+00  0.13933343178E+00  0.44834340652E-01 0.  0.
         14    1    1    2    0    0 -0.81176192234E-02 -0.98055954244E-02 -0.47983244405E-02  0.13604020028E-01  0.00000000000E+00 0.  1.
     999901    1    3    3    0    0  0.89173617265E-01 -0.11355838635E-01  0.10670909914E+00  0.89099254819E+00  0.88000000000E+00 0. -1.
        -11    1    4    4    0    0 -0.71535648515E-01  0.31436697142E-01 -0.71793456048E-01  0.10611397829E+00  0.51100000000E-03 0. -1.
         11    1    4    4    0    0 -0.95203495270E-02 -0.10275263082E-01 -0.30117318657E-01  0.33219453496E-01  0.51100000000E-03 0.  1.
</event>
<event>
 8    1  0.2091070E+004  0.1043930E+01  0.7957747E-01            NaN
         13   -1    0    0    0    0  0.00000000000E+00  0.00000000000E+00  0.74505805969E-08  0.10566000000E+00  0.10566000000E+00 0.  1.
     999900   -1    0    0    0    0 -0.00000000000E+00 -0.00000000000E+00 -0.74505805969E-08  0.93827000000E+00  0.93827000000E+00 0.  1.
     999902    2    1    2    0    0  0.92553857445E-02 -0.64065280595E-02 -0.10396488178E-01  0.10286070521E+01  0.10284929143E+01 0.  0.
     999903    2    3    3    0    0 -0.12437150597E-01  0.10072731789E+00  0.80362953571E-01  0.13721179554E+00  0.45477436649E-01 0.  0.
         14    1    1    2    0    0 -0.92553857445E-02  0.64065280595E-02  0.10396488178E-01  0.15322947938E-01  0.00000000000E+00 0.  1.
     999901    1    3    3    0    0  0.21692536341E-01 -0.10713384595E+00 -0.90759441750E-01  0.89139525652E+00  0.88000000000E+00 0.  1.
        -11    1    4    4    0    0 -0.12816855928E-01  0.17151016893E-01  0.37736774241E-01  0.43390718218E-01  0.51100000000E-03 0. -1.
         11    1    4    4    0    0  0.37970533089E-03  0.83576300999E-01  0.42626179330E-01  0.93821077324E-01  0.51100000000E-03 0.  1.
</event>
<event>
 8    1  0.2091070E+004  0.1043930E+01  0.7957747E-01            NaN
         13   -1    0    0    0    0  0.00000000000E+00  0.00000000000E+00  0.74505805969E-08  0.10566000000E+00  0.10566000000E+00 0. -1.
     999900   -1    0    0    0    0 -0.00000000000E+00 -0.00000000000E+00 -0.74505805969E-08  0.93827000000E+00  0.93827000000E+00 0.  1.
     999902    2    1    2    0    0  0.69078077148E-02  0.54650129159E-02 -0.13370043449E-01  0.10279193087E+01  0.10277946113E+01 0.  0.
     999903    2    3    3    0    0  0.11890862935E+00  0.23188031156E-01  0.51775325546E-01  0.13825521001E+00  0.41915055004E-01 0.  0.
         14    1    1    2    0    0 -0.69078077148E-02 -0.54650129159E-02  0.13370043449E-01  0.16010691285E-01  0.00000000000E+00 0. -1.
     999901    1    3    3    0    0 -0.11200082164E+00 -0.17723018240E-01 -0.65145368995E-01  0.88966409871E+00  0.88000000000E+00 0.  1.
        -11    1    4    4    0    0  0.32867035068E-01 -0.12152056501E-01  0.16981041876E-01  0.38942667802E-01  0.51100000000E-03 0. -1.
         11    1    4    4    0    0  0.86041594285E-01  0.35340087656E-01  0.34794283671E-01  0.99312542208E-01  0.51100000000E-03 0.  1.
</event>
<event>
 8    1  0.2091070E+004  0.1043930E+01  0.7957747E-01            NaN
         13   -1    0    0    0    0  0.00000000000E+00  0.00000000000E+00  0.74505805969E-08  0.10566000000E+00  0.10566000000E+00 0.  1.
     999900   -1    0    0    0    0 -0.00000000000E+00 -0.00000000000E+00 -0.74505805969E-08  0.93827000000E+00  0.93827000000E+00 0.  1.
     999902    2    1    2    0    0  0.77816876079E-02 -0.10887640840E-01  0.52948577399E-02  0.10295379569E+01  0.10294373579E+01 0.  0.
     999903    2    3    3    0    0 -0.54437320716E-01 -0.41957400496E-01 -0.11253319652E+00  0.13896511582E+00  0.43860434944E-01 0.  0.
         14    1    1    2    0    0 -0.77816876079E-02  0.10887640840E-01 -0.52948577399E-02  0.14392043064E-01  0.00000000000E+00 0. -1.
     999901    1    3    3    0    0  0.62219008324E-01  0.31069759657E-01  0.11782805426E+00  0.89057284112E+00  0.88000000000E+00 0. -1.
        -11    1    4    4    0    0 -0.18248516187E-01  0.77511102570E-02 -0.23297309727E-01  0.30595977101E-01  0.51100000000E-03 0.  1.
         11    1    4    4    0    0 -0.36188804529E-01 -0.49708510753E-01 -0.89235886790E-01  0.10836913872E+00  0.51100000000E-03 0. -1.
</event>
<event>
 8    1  0.2091070E+004  0.1043930E+01  0.7957747E-01            NaN
         13   -1    0    0    0    0  0.00000000000E+00  0.00000000000E+00  0.74505805969E-08  0.10566000000E+00  0.10566000000E+00 0.  1.
     999900   -1    0    0    0    0 -0.00000000000E+00 -0.00000000000E+00 -0.74505805969E-08  0.93827000000E+00  0.93827000000E+00 0. -1.
     999902    2    1    2    0    0  0.10287178343E-01 -0.82829273186E-02  0.31318545980E-02  0.10303564435E+01  0.10302670330E+01 0.  0.
     999903    2    3    3    0    0 -0.37404036995E-01 -0.46650957046E-01  0.11871455910E+00  0.14069025929E+00  0.46100203259E-01 0.  0.
         14    1    1    2    0    0 -0.10287178343E-01  0.82829273186E-02 -0.31318545980E-02  0.13573556514E-01  0.00000000000E+00 0. -1.
     999901    1    3    3    0    0  0.47691215338E-01  0.38368029727E-01 -0.11558270450E+00  0.88966618420E+00  0.88000000000E+00 0. -1.
        -11    1    4    4    0    0 -0.15961650419E-01 -0.45681162175E-01  0.10386460511E+00  0.11458472925E+00  0.51100000000E-03 0. -1.
         11    1    4    4    0    0 -0.21442386576E-01 -0.96979487054E-03  0.14849953986E-01  0.26105530038E-01  0.51100000000E-03 0.  1.
</event>
<event>
 8    1  0.2091070E+004  0.1043930E+01  0.7957747E-01            NaN
         13   -1    0    0    0    0  0.00000000000E+00  0.00000000000E+00  0.74505805969E-08  0.10566000000E+00  0.10566000000E+00 0.  1.
     999900   -1    0    0    0    0 -0.00000000000E+00 -0.00000000000E+00 -0.74505805969E-08  0.93827000000E+00  0.93827000000E+00 0. -1.
     999902    2    1    2    0    0  0.10678976469E-02  0.92224811870E-02  0.76635776276E-02  0.10318915206E+01  0.10318212952E+01 0.  0.
     999903    2    3    3    0    0 -0.86788222062E-01  0.74141022951E-01  0.72981791367E-01  0.14273485054E+00  0.44920027992E-01 0.  0.
         14    1    1    2    0    0 -0.10678976469E-02 -0.92224811870E-02 -0.76635776276E-02  0.12038479417E-01  0.00000000000E+00 0.  1.
     999901    1    3    3    0    0  0.87856119709E-01 -0.64918541764E-01 -0.65318213739E-01  0.88915667004E+00  0.88000000000E+00 0. -1.
        -11    1    4    4    0    0 -0.69106636662E-02  0.13348426951E-01 -0.47537301936E-02  0.15773295348E-01  0.51100000000E-03 0.  1.
         11    1    4    4    0    0 -0.79877558395E-01  0.60792596000E-01  0.77735521560E-01  0.12696155519E+00  0.51100000000E-03 0. -1.
</event>
<event>
 8    1  0.2091070E+004  0.1043930E+01  0.7957747E-01            NaN
         13   -1    0    0    0    0  0.00000000000E+00  0.00000000000E+00  0.74505805969E-08  0.10566000000E+00  0.10566000000E+00 0.  1.
     999900   -1    0    0    0    0 -0.00000000000E+00 -0.00000000000E+00 -0.74505805969E-08  0.93827000000E+00  0.93827000000E+00 0.  1.
     999902    2    1    2    0    0 -0.72136503513E-02 -0.77359727945E-02 -0.10053211505E-01  0.10293372248E+01  0.10292337797E+01 0.  0.
     999903    2    3    3    0    0 -0.41048494475E-01 -0.11647230819E+00 -0.48856263479E-01  0.14115139731E+00  0.47812184718E-01 0.  0.
         14    1    1    2    0    0  0.72136503513E-02  0.77359727945E-02  0.10053211505E-01  0.14592775200E-01  0.00000000000E+00 0.  1.
     999901    1    3    3    0    0  0.33834844123E-01  0.10873633540E+00  0.38803051974E-01  0.88818582749E+00  0.88000000000E+00 0. -1.
        -11    1    4    4    0    0 -0.49755249193E-01 -0.81183922398E-01 -0.28035678686E-01  0.99260639121E-01  0.51100000000E-03 0. -1.
         11    1    4    4    0    0  0.87067547184E-02 -0.35288385792E-01 -0.20820584793E-01  0.41890758189E-01  0.51100000000E-03 0.  1.
</event>
<event>
 7    1  0.2091070E+004  0.1043930E+01  0.7957747E-01            NaN
         13   -1    0    0    0    0  0.00000000000E+00  0.00000000000E+00  0.74505805969E-08  0.10566000000E+00  0.10566000000E+00 0. -1.
     999900   -1    0    0    0    0 -0.00000000000E+00 -0.00000000000E+00 -0.74505805969E-08  0.93827000000E+00  0.93827000000E+00 0.  1.
     999903    2    1    2    0    0  0.25234453707E-02 -0.20224813167E-01 -0.85851351110E-01  0.98817407029E-01  0.44486116941E-01 0.  0.
         14    1    1    2    0    0  0.51429387073E-01  0.60086860959E-03  0.34129227977E-01  0.61726389009E-01  0.00000000000E+00 0. -1.
     999901    1    1    2    0    0 -0.53952832444E-01  0.19623944557E-01  0.51722123133E-01  0.88338620396E+00  0.88000000000E+00 0. -1.
        -11    1    3    3    0    0  0.20670495309E-01 -0.61135449254E-02 -0.21363909959E-01  0.30353295993E-01  0.51100000000E-03 0.  1.
         11    1    3    3    0    0 -0.18147049939E-01 -0.14111268241E-01 -0.64487441150E-01  0.68464111036E-01  0.51100000000E-03 0. -1.
</event>
<event>
 8    1  0.2091070E+004  0.1043930E+01  0.7957747E-01            NaN
         13   -1    0    0    0    0  0.00000000000E+00  0.00000000000E+00  0.74505805969E-08  0.10566000000E+00  0.10566000000E+00 0.  1.
     999900   -1    0    0    0    0 -0.00000000000E+00 -0.00000000000E+00 -0.74505805969E-08  0.93827000000E+00  0.93827000000E+00 0. -1.
     999902    2    1    2    0    0  0.47052686772E-02 -0.11852137775E-01 -0.63123429580E-02  0.10297012124E+01  0.10296028984E+01 0.  0.
     999903    2    3    3    0    0 -0.63436070014E-01  0.44080805118E-01 -0.10455404860E+00  0.13985674909E+00  0.51585936349E-01 0.  0.
         14    1    1    2    0    0 -0.47052686772E-02  0.11852137775E-01  0.63123429580E-02  0.14228787608E-01  0.00000000000E+00 0. -1.
     999901    1    3    3    0    0  0.68141338691E-01 -0.55932942894E-01  0.98241705642E-01  0.88984446330E+00  0.88000000000E+00 0.  1.
        -11    1    4    4    0    0 -0.57693804157E-01  0.48312103453E-01 -0.64327792836E-01  0.98999800152E-01  0.51100000000E-03 0. -1.
         11    1    4    4    0    0 -0.57422658574E-02 -0.42312983344E-02 -0.40226255764E-01  0.40856948939E-01  0.51100000000E-03 0.  1.
</event>
<event>
 8    1  0.2091070E+004  0.1043930E+01  0.7957747E-01            NaN
         13   -1    0    0    0    0  0.00000000000E+00  0.00000000000E+00  0.74505805969E-08  0.10566000000E+00  0.10566000000E+00 0. -1.
     999900   -1    0    0    0    0 -0.00000000000E+00 -0.00000000000E+00 -0.74505805969E-08  0.93827000000E+00  0.93827000000E+00 0. -1.
     999902    2    1    2    0    0  0.12110078919E-01  0.82943874881E-03 -0.53377093483E-02  0.10306697918E+01  0.10305844879E+01 0.  0.
     999903    2    3    3    0    0 -0.46202662303E-01 -0.67818454956E-01  0.10316818594E+00  0.13944230211E+00  0.45458246670E-01 0.  0.
         14    1    1    2    0    0 -0.12110078919E-01 -0.82943874881E-03  0.53377093483E-02  0.13260208186E-01  0.00000000000E+00 0.  1.
     999901    1    3    3    0    0  0.58312741222E-01  0.68647893705E-01 -0.10850589529E+00  0.89122748971E+00  0.88000000000E+00 0. -1.
        -11    1    4    4    0    0 -0.10269874394E-01  0.45837259039E-02  0.51085397332E-02  0.12362813694E-01  0.51100000000E-03 0. -1.
         11    1    4    4    0    0 -0.35932787909E-01 -0.72402180860E-01  0.98059646205E-01  0.12707948841E+00  0.51100000000E-03 0.  1.
</event>
<event>
 8    1  0.2091070E+004  0.1043930E+01  0.7957747E-01            NaN
         13   -1    0    0    0    0  0.00000000000E+00  0.00000000000E+00  0.74505805969E-08  0.10566000000E+00  0.10566000000E+00 0. -1.
     999900   -1    0    0    0    0 -0.00000000000E+00 -0.00000000000E+00 -0.74505805969E-08  0.93827000000E+00  0.93827000000E+00 0. -1.
     999902    2    1    2    0    0  0.23266303751E-02 -0.52751116278E-02  0.12745764967E-01  0.10299409137E+01  0.10298459065E+01 0.  0.
     999903    2    3    3    0    0  0.30291829746E-01  0.12227015155E+00  0.41413173128E-01  0.13984447686E+00  0.44427940430E-01 0.  0.
         14    1    1    2    0    0 -0.23266303751E-02  0.52751116278E-02 -0.12745764967E-01  0.13989086324E-01  0.00000000000E+00 0.  1.
     999901    1    3    3    0    0 -0.27965199371E-01 -0.12754526318E+00 -0.28667408161E-01  0.89009643681E+00  0.88000000000E+00 0.  1.
        -11    1    4    4    0    0 -0.93145638572E-02  0.48336699217E-01  0.97078476257E-02  0.50176697954E-01  0.51100000000E-03 0. -1.
         11    1    4    4    0    0  0.39606393603E-01  0.73933452335E-01  0.31705325502E-01  0.89667778910E-01  0.51100000000E-03 0.  1.
</event>
<event>
 8    1  0.2091070E+004  0.1043930E+01  0.7957747E-01            NaN
         13   -1    0    0    0    0  0.00000000000E+00  0.00000000000E+00  0.74505805969E-08  0.10566000000E+00  0.10566000000E+00 0. -1.
     999900   -1    0    0    0    0 -0.00000000000E+00 -0.00000000000E+00 -0.74505805969E-08  0.93827000000E+00  0.93827000000E+00 0. -1.
     999902    2    1    2    0    0 -0.13179460581E-01  0.12735857909E-02 -0.43831475410E-02  0.10299825205E+01  0.10298880815E+01 0.  0.
     999903    2    3    3    0    0 -0.26848448091E-01 -0.12672826572E+00 -0.29423212104E-01  0.14026440782E+00  0.45027615886E-01 0.  0.
         14    1    1    2    0    0  0.13179460581E-01 -0.12735857909E-02  0.43831475410E-02  0.13947479498E-01  0.00000000000E+00 0. -1.
     999901    1    3    3    0    0  0.13668987510E-01  0.12800185151E+00  0.25040064563E-01  0.88971811269E+00  0.88000000000E+00 0. -1.
        -11    1    4    4    0    0 -0.12948498021E-01 -0.45850537151E-01 -0.33264336007E-01  0.58109487427E-01  0.51100000000E-03 0. -1.
         11    1    4    4    0    0 -0.13899950070E-01 -0.80877728568E-01  0.38411239029E-02  0.82154920389E-01  0.51100000000E-03 0.  1.
</event>
<event>
 8    1  0.2091070E+004  0.1043930E+01  0.7957747E-01            NaN
         13   -1    0    0    0    0  0.00000000000E+00  0.00000000000E+00  0.74505805969E-08  0.10566000000E+00  0.10566000000E+00 0. -1.
     999900   -1    0    0    0    0 -0.00000000000E+00 -0.00000000000E+00 -0.74505805969E-08  0.93827000000E+00  0.93827000000E+00 0.  1.
     999902    2    1    2    0    0  0.17963026494E-02  0.36998598424E-02 -0.12902623971E-01  0.10303877191E+01  0.10302987229E+01 0.  0.
     999903    2    3    3    0    0  0.12536700444E+00 -0.44766717079E-01 -0.32121492541E-02  0.14038062212E+00  0.44446106731E-01 0.  0.
         14    1    1    2    0    0 -0.17963026494E-02 -0.36998598424E-02  0.12902623971E-01  0.13542280879E-01  0.00000000000E+00 0. -1.
     999901    1    3    3    0    0 -0.12357070179E+00  0.48466576921E-01 -0.96904747171E-02  0.89000709700E+00  0.88000000000E+00 0.  1.
        -11    1    4    4    0    0  0.41079934557E-01  0.49820735991E-02 -0.89379906892E-02  0.42338290933E-01  0.51100000000E-03 0. -1.
         11    1    4    4    0    0  0.84287069879E-01 -0.49748790678E-01  0.57258414351E-02  0.98042331183E-01  0.51100000000E-03 0.  1.
</event>
<event>
 8    1  0.2091070E+004  0.1043930E+01  0.7957747E-01            NaN
         13   -1    0    0    0    0  0.00000000000E+00  0.00000000000E+00  0.74505805969E-08  0.10566000000E+00  0.10566000000E+00 0. -1.
     999900   -1    0    0    0    0 -0.00000000000E+00 -0.00000000000E+00 -0.74505805969E-08  0.93827000000E+00  0.93827000000E+00 0.  1.
     999902    2    1    2    0    0 -0.19055120632E-02 -0.14107647493E-01 -0.87343290265E-02  0.10272283475E+01  0.10270925628E+01 0.  0.
     999903    2    3    3    0    0  0.78200815211E-01  0.93233831865E-01  0.40153213573E-01  0.13575248762E+00  0.44816765061E-01 0.  0.
         14    1    1    2    0    0  0.19055120632E-02  0.14107647493E-01  0.87343290265E-02  0.16701652539E-01  0.00000000000E+00 0. -1.
     999901    1    3    3    0    0 -0.80106327274E-01 -0.10734147936E+00 -0.48887542599E-01  0.89147585984E+00  0.88000000000E+00 0. -1.
        -11    1    4    4    0    0  0.52092366891E-01  0.72144246935E-01  0.48246501245E-01  0.10122446867E+00  0.51100000000E-03 0. -1.
         11    1    4    4    0    0  0.26108448320E-01  0.21089584930E-01 -0.80932876719E-02  0.34528018949E-01  0.51100000000E-03 0.  1.
</event>
<event>
 8    1  0.2091070E+004  0.1043930E+01  0.7957747E-01            NaN
         13   -1    0    0    0    0  0.00000000000E+00  0.00000000000E+00  0.74505805969E-08  0.10566000000E+00  0.10566000000E+00 0.  1.
     999900   -1    0    0    0    0 -0.00000000000E+00 -0.00000000000E+00 -0.74505805969E-08  0.93827000000E+00  0.93827000000E+00 0. -1.
     999902    2    1    2    0    0  0.33792366444E-02 -0.10001890982E-01  0.68147619182E-02  0.10313642512E+01  0.10312877002E+01 0.  0.
     999903    2    3    3    0    0  0.11927350545E+00 -0.51541898500E-01 -0.33696998267E-01  0.14187099292E+00  0.45925532530E-01 0.  0.
         14    1    1    2    0    0 -0.33792366444E-02  0.10001890982E-01 -0.68147619182E-02  0.12565748825E-01  0.00000000000E+00 0. -1.
     999901    1    3    3    0    0 -0.11589426880E+00  0.41540007518E-01  0.40511760185E-01  0.88949325825E+00  0.88000000000E+00 0. -1.
        -11    1    4    4    0    0  0.10220305267E+00 -0.59562701099E-01 -0.24184076121E-01  0.12074067250E+00  0.51100000000E-03 0. -1.
         11    1    4    4    0    0  0.17070452773E-01  0.80208025993E-02 -0.95129221463E-02  0.21130320418E-01  0.51100000000E-03 0.  1.
</event>
<event>
 8    1  0.2091070E+004  0.1043930E+01  0.7957747E-01            NaN
         13   -1    0    0    0    0  0.00000000000E+00  0.00000000000E+00  0.74505805969E-08  0.10566000000E+00  0.10566000000E+00 0. -1.
     999900   -1    0    0    0    0 -0.00000000000E+00 -0.00000000000E+00 -0.74505805969E-08  0.93827000000E+00  0.93827000000E+00 0. -1.
     999902    2    1    2    0    0  0.20784211256E-02  0.70975530929E-02  0.10946172313E-01  0.10307196335E+01  0.10306349738E+01 0.  0.
     999903    2    3    3    0    0  0.11786927789E+00 -0.60517389636E-01  0.12837401493E-01  0.14056072650E+00  0.45133112463E-01 0.  0.
         14    1    1    2    0    0 -0.20784211256E-02 -0.70975530929E-02 -0.10946172313E-01  0.13210366482E-01  0.00000000000E+00 0.  1.
     999901    1    3    3    0    0 -0.11579085676E+00  0.67614942729E-01 -0.18912291801E-02  0.89015890701E+00  0.88000000000E+00 0.  1.
        -11    1    4    4    0    0  0.80172489388E-01 -0.46092896166E-01 -0.11863513564E-01  0.93237262973E-01  0.51100000000E-03 0. -1.
         11    1    4    4    0    0  0.37696788497E-01 -0.14424493470E-01  0.24700915057E-01  0.47323463530E-01  0.51100000000E-03 0.  1.
</event>
<event>
 8    1  0.2091070E+004  0.1043930E+01  0.7957747E-01            NaN
         13   -1    0    0    0    0  0.00000000000E+00  0.00000000000E+00  0.74505805969E-08  0.10566000000E+00  0.10566000000E+00 0.  1.
     999900   -1    0    0    0    0 -0.00000000000E+00 -0.00000000000E+00 -0.74505805969E-08  0.93827000000E+00  0.93827000000E+00 0. -1.
     999902    2    1    2    0    0  0.13368976396E-01 -0.21248497061E-02 -0.36182683633E-02  0.10299179915E+01  0.10298226706E+01 0.  0.
     999903    2    3    3    0    0  0.10556000673E+00  0.66556379532E-01 -0.48131872268E-01  0.14132485724E+00  0.45643964227E-01 0.  0.
         14    1    1    2    0    0 -0.13368976396E-01  0.21248497061E-02  0.36182683633E-02  0.14012008497E-01  0.00000000000E+00 0. -1.
     999901    1    3    3    0    0 -0.92191030329E-01 -0.68681229238E-01  0.44513603904E-01  0.88859313426E+00  0.88000000000E+00 0.  1.
        -11    1    4    4    0    0  0.59539989161E-01  0.40496091086E-01 -0.34545901042E-02  0.72091185428E-01  0.51100000000E-03 0.  1.
         11    1    4    4    0    0  0.46020017564E-01  0.26060288446E-01 -0.44677282163E-01  0.69233671815E-01  0.51100000000E-03 0. -1.
</event>
<event>
 8    1  0.2091070E+004  0.1043930E+01  0.7957747E-01            NaN
         13   -1    0    0    0    0  0.00000000000E+00  0.00000000000E+00  0.74505805969E-08  0.10566000000E+00  0.10566000000E+00 0. -1.
     999900   -1    0    0    0    0 -0.00000000000E+00 -0.00000000000E+00 -0.74505805969E-08  0.93827000000E+00  0.93827000000E+00 0. -1.
     999902    2    1    2    0    0  0.33270366678E-02  0.14326829495E-01 -0.36495855595E-02  0.10287759018E+01  0.10286642842E+01 0.  0.
     999903    2    3    3    0    0  0.52752161143E-01 -0.77565027202E-01 -0.90836296815E-01  0.13833304636E+00  0.45669190328E-01 0.  0.
         14    1    1    2    0    0 -0.33270366678E-02 -0.14326829495E-01  0.36495855595E-02  0.15154098162E-01  0.00000000000E+00 0.  1.
     999901    1    3    3    0    0 -0.49425124475E-01  0.91891856697E-01  0.87186711256E-01  0.89044285548E+00  0.88000000000E+00 0.  1.
        -11    1    4    4    0    0  0.38549639105E-01 -0.37603680674E-01 -0.23514555960E-01  0.58764844408E-01  0.51100000000E-03 0.  1.
         11    1    4    4    0    0  0.14202522039E-01 -0.39961346528E-01 -0.67321740855E-01  0.79568201949E-01  0.51100000000E-03 0. -1.
</event>
<event>
 8    1  0.2091070E+004  0.1043930E+01  0.7957747E-01            NaN
         13   -1    0    0    0    0  0.00000000000E+00  0.00000000000E+00  0.74505805969E-08  0.10566000000E+00  0.10566000000E+00 0.  1.
     999900   -1    0    0    0    0 -0.00000000000E+00 -0.00000000000E+00 -0.74505805969E-08  0.93827000000E+00  0.93827000000E+00 0.  1.
     999902    2    1    2    0    0  0.12833205065E-01  0.47787713540E-02 -0.50110022567E-04  0.10302358290E+01  0.10301448117E+01 0.  0.
     999903    2    3    3    0    0  0.10862534223E+00  0.12035745974E-01 -0.78369917003E-01  0.14154983870E+00  0.44160941900E-01 0.  0.
         14    1    1    2    0    0 -0.12833205065E-01 -0.47787713540E-02  0.50110022567E-04  0.13694170982E-01  0.00000000000E+00 0.  1.
     999901    1    3    3    0    0 -0.95792137163E-01 -0.72569746204E-02  0.78319806980E-01  0.88868599032E+00  0.88000000000E+00 0. -1.
        -11    1    4    4    0    0  0.21144241127E-01  0.14520841719E-01 -0.36285771012E-01  0.44439307780E-01  0.51100000000E-03 0.  1.
         11    1    4    4    0    0  0.87481101100E-01 -0.24850957442E-02 -0.42084145991E-01  0.97110530919E-01  0.51100000000E-03 0. -1.
</event>
<event>
 8    1  0.2091070E+004  0.1043930E+01  0.7957747E-01            NaN
         13   -1    0    0    0    0  0.00000000000E+00  0.00000000000E+00  0.74505805969E-08  0.10566000000E+00  0.10566000000E+00 0. -1.
     999900   -1    0    0    0    0 -0.00000000000E+00 -0.00000000000E+00 -0.74505805969E-08  0.93827000000E+00  0.93827000000E+00 0. -1.
     999902    2    1    2    0    0  0.14476117313E-02 -0.13711010481E-01 -0.32289426078E-02  0.10297697225E+01  0.10296723595E+01 0.  0.
     999903    2    3    3    0    0 -0.54986056604E-01 -0.15353918887E-01 -0.11984739211E+00  0.14028261140E+00  0.45349800651E-01 0.  0.
         14    1    1    2    0    0 -0.14476117313E-02  0.13711010481E-01  0.32289426078E-02  0.14160277487E-01  0.00000000000E+00 0.  1.
     999901    1    3    3    0    0  0.56433668335E-01  0.16429084058E-02  0.11661844951E+00  0.88948711111E+00  0.88000000000E+00 0.  1.
        -11    1    4    4    0    0 -0.50338558255E-01  0.54044746141E-02 -0.94318335697E-01  0.10704853274E+00  0.51100000000E-03 0. -1.
         11    1    4    4    0    0 -0.46474983482E-02 -0.20758393501E-01 -0.25529056417E-01  0.33234078657E-01  0.51100000000E-03 0.  1.
</event>
<event>
 7    1  0.2091070E+004  0.1043930E+01  0.7957747E-01            NaN
         13   -1    0    0    0    0  0.00000000000E+00  0.00000000000E+00  0.74505805969E-08  0.10566000000E+00  0.10566000000E+00 0. -1.
     999900   -1    0    0    0    0 -0.00000000000E+00 -0.00000000000E+00 -0.74505805969E-08  0.93827000000E+00  0.93827000000E+00 0.  1.
     999902    2    1    2    0    0  0.10740958896E-01 -0.90195766990E-02  0.50081076058E-02  0.10290369780E+01  0.10289292007E+01 0.  0.
         14    1    1    2    0    0 -0.10740958896E-01  0.90195766990E-02 -0.50081076058E-02  0.14893021978E-01  0.00000000000E+00 0.  1.
     999901    1    3    3    0    0  0.94342655300E-01 -0.11074021572E-01 -0.10123551926E+00  0.89088259660E+00  0.88000000000E+00 0.  1.
        -11    1    3    3    0    0 -0.84375343704E-01  0.55527077431E-02  0.10022015002E+00  0.13112730753E+00  0.51100000000E-03 0.  1.
         11    1    3    3    0    0  0.77364730091E-03 -0.34982628698E-02  0.60234768439E-02  0.70270738961E-02  0.51100000000E-03 0. -1.
</event>
<event>
 8    1  0.2091070E+004  0.1043930E+01  0.7957747E-01            NaN
         13   -1    0    0    0    0  0.00000000000E+00  0.00000000000E+00  0.74505805969E-08  0.10566000000E+00  0.10566000000E+00 0.  1.
     999900   -1    0    0    0    0 -0.00000000000E+00 -0.00000000000E+00 -0.74505805969E-08  0.93827000000E+00  0.93827000000E+00 0. -1.
     999902    2    1    2    0    0 -0.89588388457E-02  0.20637937622E-02  0.90314821263E-02  0.10310424980E+01  0.10309619513E+01 0.  0.
     999903    2    3    3    0    0  0.16261480494E-01 -0.43639202606E-01 -0.12329644660E+00  0.13961919278E+00  0.46072654556E-01 0.  0.
         14    1    1    2    0    0  0.89588388457E-02 -0.20637937622E-02 -0.90314821263E-02  0.12887501990E-01  0.00000000000E+00 0. -1.
     999901    1    3    3    0    0 -0.25220319340E-01  0.45702996368E-01  0.13232792872E+00  0.89142330523E+00  0.88000000000E+00 0.  1.
        -11    1    4    4    0    0 -0.48571999393E-03 -0.18267010049E-01 -0.99070026001E-01  0.10074249725E+00  0.51100000000E-03 0. -1.
         11    1    4    4    0    0  0.16747200488E-01 -0.25372192557E-01 -0.24226420595E-01  0.38876695528E-01  0.51100000000E-03 0.  1.
</event>
<event>
 8    1  0.2091070E+004  0.1043930E+01  0.7957747E-01            NaN
         13   -1    0    0    0    0  0.00000000000E+00  0.00000000000E+00  0.74505805969E-08  0.10566000000E+00  0.10566000000E+00 0. -1.
     999900   -1    0    0    0    0 -0.00000000000E+00 -0.00000000000E+00 -0.74505805969E-08  0.93827000000E+00  0.93827000000E+00 0.  1.
     999902    2    1    2    0    0  0.76335279283E-02 -0.90852171907E-02 -0.12690412965E-02  0.10319959150E+01  0.10319269093E+01 0.  0.
     999903    2    3    3    0    0  0.31575420104E-01  0.66803963971E-02  0.13080374744E+00  0.14167856126E+00  0.43835596533E-01 0.  0.
         14    1    1    2    0    0 -0.76335279283E-02  0.90852171907E-02  0.12690412965E-02  0.11934085044E-01  0.00000000000E+00 0.  1.
     999901    1    3    3    0    0 -0.23941892175E-01 -0.15765613588E-01 -0.13207278874E+00  0.89031735370E+00  0.88000000000E+00 0.  1.
        -11    1    4    4    0    0  0.19941887364E-01 -0.94792396701E-02  0.22389307111E-01  0.31449595391E-01  0.51100000000E-03 0. -1.
         11    1    4    4    0    0  0.11633532740E-01  0.16159636067E-01  0.10841444033E+00  0.11022896587E+00  0.51100000000E-03 0.  1.
</event>
<event>
 8    1  0.2091070E+004  0.1043930E+01  0.7957747E-01            NaN
         13   -1    0    0    0    0  0.00000000000E+00  0.00000000000E+00  0.74505805969E-08  0.10566000000E+00  0.10566000000E+00 0.  1.
     999900   -1    0    0    0    0 -0.00000000000E+00 -0.00000000000E+00 -0.74505805969E-08  0.93827000000E+00  0.93827000000E+00 0.  1.
     999902    2    1    2    0    0 -0.13970701064E-01  0.15920454826E-03 -0.68797745509E-02  0.10283563963E+01  0.10282384649E+01 0.  0.
     999903    2    3    3    0    0 -0.13268724711E+00  0.33840747832E-02 -0.88730278719E-02  0.14037667178E+00  0.44827690661E-01 0.  0.
         14    1    1    2    0    0  0.13970701064E-01 -0.15920454826E-03  0.68797745509E-02  0.15573603699E-01  0.00000000000E+00 0.  1.
     999901    1    3    3    0    0  0.11871654605E+00 -0.32248702349E-02  0.19932533210E-02  0.88797972452E+00  0.88000000000E+00 0.  1.
        -11    1    4    4    0    0 -0.95153251321E-01 -0.76049837279E-02  0.11718254142E-01  0.96174610036E-01  0.51100000000E-03 0.  1.
         11    1    4    4    0    0 -0.37533995788E-01  0.10989058511E-01 -0.20591282014E-01  0.44202061748E-01  0.51100000000E-03 0. -1.
</event>
<event>
 8    1  0.2091070E+004  0.1043930E+01  0.7957747E-01            NaN
         13   -1    0    0    0    0  0.00000000000E+00  0.00000000000E+00  0.74505805969E-08  0.10566000000E+00  0.10566000000E+00 0.  1.
     999900   -1    0    0    0    0 -0.00000000000E+00 -0.00000000000E+00 -0.74505805969E-08  0.93827000000E+00  0.93827000000E+00 0.  1.
     999902    2    1    2    0    0  0.62983291945E-02  0.83827626203E-02  0.94876550876E-02  0.10297894463E+01  0.10296923562E+01 0.  0.
     999903    2    3    3    0    0  0.30157115121E-01 -0.11348526585E+00  0.60322162283E-01  0.13961799925E+00  0.45453990954E-01 0.  0.
         14    1    1    2    0    0 -0.62983291945E-02 -0.83827626203E-02 -0.94876550876E-02  0.14140553697E-01  0.00000000000E+00 0. -1.
     999901    1    3    3    0    0 -0.23858785926E-01  0.12186802847E+00 -0.50834507195E-01  0.89017144705E+00  0.88000000000E+00 0.  1.
        -11    1    4    4    0    0  0.24682345447E-01 -0.29016309403E-01  0.48305606452E-02  0.38402601804E-01  0.51100000000E-03 0.  1.
         11    1    4    4    0    0  0.54747696739E-02 -0.84468956449E-01  0.55491601638E-01  0.10121539744E+00  0.51100000000E-03 0. -1.
</event>
<event>
 8    1  0.2091070E+004  0.1043930E+01  0.7957747E-01            NaN
         13   -1    0    0    0    0  0.00000000000E+00  0.00000000000E+00  0.74505805969E-08  0.10566000000E+00  0.10566000000E+00 0.  1.
     999900   -1    0    0    0    0 -0.00000000000E+00 -0.00000000000E+00 -0.74505805969E-08  0.93827000000E+00  0.93827000000E+00 0. -1.
     999902    2    1    2    0    0 -0.10450640080E-01  0.94407847120E-02 -0.19707351634E-02  0.10297093076E+01  0.10296111063E+01 0.  0.
     999903    2    3    3    0    0 -0.33874104787E-01  0.12776938208E+00  0.22383810623E-01  0.14114672709E+00  0.44146275234E-01 0.  0.
         14    1    1    2    0    0  0.10450640080E-01 -0.94407847120E-02  0.19707351634E-02  0.14220692358E-01  0.00000000000E+00 0.  1.
     999901    1    3    3    0    0  0.23423464707E-01 -0.11832859737E+00 -0.24354545786E-01  0.88856258055E+00  0.88000000000E+00 0.  1.
        -11    1    4    4    0    0 -0.35803094568E-01  0.50652231599E-01  0.13614848844E-01  0.63506971088E-01  0.51100000000E-03 0.  1.
         11    1    4    4    0    0  0.19289897815E-02  0.77117150485E-01  0.87689617784E-02  0.77639756003E-01  0.51100000000E-03 0. -1.
</event>
<event>
 8    1  0.2091070E+004  0.1043930E+01  0.7957747E-01            NaN
         13   -1    0    0    0    0  0.00000000000E+00  0.00000000000E+00  0.74505805969E-08  0.10566000000E+00  0.10566000000E+00 0.  1.
     999900   -1    0    0    0    0 -0.00000000000E+00 -0.00000000000E+00 -0.74505805969E-08  0.93827000000E+00  0.93827000000E+00 0.  1.
     999902    2    1    2    0    0 -0.12844817361E-01 -0.60738002626E-02 -0.10300160857E-01  0.10263808206E+01  0.10262307807E+01 0.  0.
     999903    2    3    3    0    0 -0.10930520695E+00  0.34861972034E-01  0.61680684418E-01  0.13724551805E+00  0.43230082517E-01 0.  0.
         14    1    1    2    0    0  0.12844817361E-01  0.60738002626E-02  0.10300160857E-01  0.17549179364E-01  0.00000000000E+00 0.  1.
     999901    1    3    3    0    0  0.96460389590E-01 -0.40935772296E-01 -0.71980845275E-01  0.88913530258E+00  0.88000000000E+00 0.  1.
        -11    1    4    4    0    0 -0.48945986419E-02  0.30096235669E-02 -0.63821355952E-02  0.86027731364E-02  0.51100000000E-03 0.  1.
         11    1    4    4    0    0 -0.10441060831E+00  0.31852348467E-01  0.68062820013E-01  0.12864274492E+00  0.51100000000E-03 0. -1.
</event>
<event>
 8    1  0.2091070E+004  0.1043930E+01  0.7957747E-01            NaN
         13   -1    0    0    0    0  0.00000000000E+00  0.00000000000E+00  0.74505805969E-08  0.10566000000E+00  0.10566000000E+00 0.  1.
     999900   -1    0    0    0    0 -0.00000000000E+00 -0.00000000000E+00 -0.74505805969E-08  0.93827000000E+00  0.93827000000E+00 0. -1.
     999902    2    1    2    0    0  0.92656393067E-02 -0.57567872648E-02  0.10743872666E-01  0.10286191061E+01  0.10285051492E+01 0.  0.
     999903    2    3    3    0    0 -0.10674822458E-02 -0.10620110264E+00  0.79387450503E-01  0.14018915691E+00  0.45506248989E-01 0.  0.
         14    1    1    2    0    0 -0.92656393067E-02  0.57567872648E-02 -0.10743872666E-01  0.15310893874E-01  0.00000000000E+00 0. -1.
     999901    1    3    3    0    0  0.10333121552E-01  0.10044431537E+00 -0.68643577837E-01  0.88842994922E+00  0.88000000000E+00 0. -1.
        -11    1    4    4    0    0  0.51835098606E-02  0.23264122330E-02  0.90891664131E-02  0.10731031425E-01  0.51100000000E-03 0. -1.
         11    1    4    4    0    0 -0.62509921063E-02 -0.10852751487E+00  0.70298284090E-01  0.12945812548E+00  0.51100000000E-03 0.  1.
</event>
<event>
 8    1  0.2091070E+004  0.1043930E+01  0.7957747E-01            NaN
         13   -1    0    0    0    0  0.00000000000E+00  0.00000000000E+00  0.74505805969E-08  0.10566000000E+00  0.10566000000E+00 0. -1.
     999900   -1    0    0    0    0 -0.00000000000E+00 -0.00000000000E+00 -0.74505805969E-08  0.93827000000E+00  0.93827000000E+00 0.  1.
     999902    2    1    2    0    0 -0.66843918839E-02 -0.52069368821E-03 -0.12330113937E-01  0.10298949038E+01  0.10297992663E+01 0.  0.
     999903    2    3    3    0    0  0.11659862633E+00  0.59175961673E-01 -0.18468929378E-01  0.13927709667E+00  0.44271595903E-01 0.  0.
         14    1    1    2    0    0  0.66843918839E-02  0.52069368821E-03  0.12330113937E-01  0.14035096240E-01  0.00000000000E+00 0. -1.
     999901    1    3    3    0    0 -0.12328301821E+00 -0.59696655362E-01  0.61388154412E-02  0.89061780708E+00  0.88000000000E+00 0.  1.
        -11    1    4    4    0    0  0.34357478676E-01  0.24554972756E-02 -0.19059647110E-01  0.39370002245E-01  0.51100000000E-03 0.  1.
         11    1    4    4    0    0  0.82241147654E-01  0.56720464398E-01  0.59071773117E-03  0.99907094430E-01  0.51100000000E-03 0. -1.
</event>
<event>
 8    1  0.2091070E+004  0.1043930E+01  0.7957747E-01            NaN
         13   -1    0    0    0    0  0.00000000000E+00  0.00000000000E+00  0.74505805969E-08  0.10566000000E+00  0.10566000000E+00 0. -1.
     999900   -1    0    0    0    0 -0.00000000000E+00 -0.00000000000E+00 -0.74505805969E-08  0.93827000000E+00  0.93827000000E+00 0.  1.
     999902    2    1    2    0    0 -0.12089669659E-01 -0.67285851004E-02  0.15734629758E-03  0.10300931388E+01  0.10300002019E+01 0.  0.
     999903    2    3    3    0    0 -0.12110776015E+00 -0.57246125812E-01  0.12139905262E-01  0.14184736893E+00  0.45045424684E-01 0.  0.
         14    1    1    2    0    0  0.12089669659E-01  0.67285851004E-02 -0.15734629758E-03  0.13836861196E-01  0.00000000000E+00 0.  1.
     999901    1    3    3    0    0  0.10901809049E+00  0.50517540712E-01 -0.11982558964E-01  0.88824576987E+00  0.88000000000E+00 0.  1.
        -11    1    4    4    0    0 -0.10647904136E+00 -0.54688111786E-01 -0.41799566169E-02  0.11977607849E+00  0.51100000000E-03 0.  1.
         11    1    4    4    0    0 -0.14628718784E-01 -0.25580140261E-02  0.16319861878E-01  0.22071290441E-01  0.51100000000E-03 0. -1.
</event>
<event>
 8    1  0.2091070E+004  0.1043930E+01  0.7957747E-01            NaN
         13   -1    0    0    0    0  0.00000000000E+00  0.00000000000E+00  0.74505805969E-08  0.10566000000E+00  0.10566000000E+00 0.  1.
     999900   -1    0    0    0    0 -0.00000000000E+00 -0.00000000000E+00 -0.74505805969E-08  0.93827000000E+00  0.93827000000E+00 0. -1.
     999902    2    1    2    0    0  0.23730401576E-02 -0.16978201797E-01 -0.34486759512E-02  0.10264433187E+01  0.10262943547E+01 0.  0.
     999903    2    3    3    0    0 -0.24350181485E-02  0.80597577929E-01 -0.99734975677E-01  0.13581702127E+00  0.44691151396E-01 0.  0.
         14    1    1    2    0    0 -0.23730401576E-02  0.16978201797E-01  0.34486759512E-02  0.17486681265E-01  0.00000000000E+00 0.  1.
     999901    1    3    3    0    0  0.48080583060E-02 -0.97575779726E-01  0.96286299726E-01  0.89062629746E+00  0.88000000000E+00 0. -1.
        -11    1    4    4    0    0  0.62777561333E-02  0.76604450804E-01 -0.10010765012E+00  0.12621194412E+00  0.51100000000E-03 0. -1.
         11    1    4    4    0    0 -0.87127742818E-02  0.39931271246E-02  0.37267444106E-03  0.96050771553E-02  0.51100000000E-03 0.  1.
</event>
<event>
 8    1  0.2091070E+004  0.1043930E+01  0.7957747E-01            NaN
         13   -1    0    0    0    0  0.00000000000E+00  0.00000000000E+00  0.74505805969E-08  0.10566000000E+00  0.10566000000E+00 0.  1.
     999900   -1    0    0    0    0 -0.00000000000E+00 -0.00000000000E+00 -0.74505805969E-08  0.93827000000E+00  0.93827000000E+00 0.  1.
     999902    2    1    2    0    0  0.78210875011E-02 -0.76445506835E-02  0.73490465605E-02  0.10307536177E+01  0.10306693958E+01 0.  0.
     999903    2    3    3    0    0  0.25351394337E-01  0.94424237258E-01  0.90866832622E-01  0.14075329765E+00  0.44677508332E-01 0.  0.
         14    1    1    2    0    0 -0.78210875011E-02  0.76445506835E-02 -0.73490465605E-02  0.13176382288E-01  0.00000000000E+00 0. -1.
     999901    1    3    3    0    0 -0.17530306836E-01 -0.10206878794E+00 -0.83517786061E-01  0.89000032007E+00  0.88000000000E+00 0.  1.
        -11    1    4    4    0    0 -0.12950622059E-01  0.22100795405E-01  0.20241517963E-01  0.32651859667E-01  0.51100000000E-03 0.  1.
         11    1    4    4    0    0  0.38302016396E-01  0.72323441853E-01  0.70625314658E-01  0.10810143798E+00  0.51100000000E-03 0. -1.
</event>
<event>
 8    1  0.2091070E+004  0.1043930E+01  0.7957747E-01            NaN
         13   -1    0    0    0    0  0.00000000000E+00  0.00000000000E+00  0.74505805969E-08  0.10566000000E+00  0.10566000000E+00 0. -1.
     999900   -1    0    0    0    0 -0.00000000000E+00 -0.00000000000E+00 -0.74505805969E-08  0.93827000000E+00  0.93827000000E+00 0. -1.
     999902    2    1    2    0    0  0.73955422747E-03 -0.81737276196E-03 -0.13850098848E-01  0.10300361065E+01  0.10299423966E+01 0.  0.
     999903    2    3    3    0    0  0.12860886572E+00 -0.10855652792E-01 -0.33452109997E-01  0.14052187573E+00  0.44376439196E-01 0.  0.
         14    1    1    2    0    0 -0.73955422747E-03  0.81737276196E-03  0.13850098848E-01  0.13893893507E-01  0.00000000000E+00 0. -1.
     999901    1    3    3    0    0 -0.12786931149E+00  0.10038280030E-01  0.19602011149E-01  0.88951423076E+00  0.88000000000E+00 0.  1.
        -11    1    4    4    0    0  0.51712115409E-01  0.16744970712E-01 -0.18796474834E-01  0.57516132619E-01  0.51100000000E-03 0. -1.
         11    1    4    4    0    0  0.76896750312E-01 -0.27600623504E-01 -0.14655635162E-01  0.83005743111E-01  0.51100000000E-03 0.  1.
</event>
<event>
 8    1  0.2091070E+004  0.1043930E+01  0.7957747E-01            NaN
         13   -1    0    0    0    0  0.00000000000E+00  0.00000000000E+00  0.74505805969E-08  0.10566000000E+00  0.10566000000E+00 0. -1.
     999900   -1    0    0    0    0 -0.00000000000E+00 -0.00000000000E+00 -0.74505805969E-08  0.93827000000E+00  0.93827000000E+00 0. -1.
     999902    2    1    2    0    0 -0.70756469520E-02  0.51268079068E-02  0.11162716793E-01  0.10297541337E+01  0.10296565547E+01 0.  0.
     999903    2    3    3    0    0 -0.50503332594E-01  0.10568739986E+00 -0.62029058284E-01  0.13994773202E+00  0.44914925525E-01 0.  0.
         14    1    1    2    0    0  0.70756469520E-02 -0.51268079068E-02 -0.11162716793E-01  0.14175866298E-01  0.00000000000E+00 0.  1.
     999901    1    3    3    0    0  0.43427685642E-01 -0.10056059195E+00  0.73191775078E-01  0.88980640168E+00  0.88000000000E+00 0.  1.
        -11    1    4    4    0    0 -0.32500361100E-01  0.60598095974E-01 -0.11228397114E-01  0.69675969531E-01  0.51100000000E-03 0.  1.
         11    1    4    4    0    0 -0.18002971494E-01  0.45089303881E-01 -0.50800661171E-01  0.70271762490E-01  0.51100000000E-03 0. -1.
</event>
<event>
 8    1  0.2091070E+004  0.1043930E+01  0.7957747E-01            NaN
         13   -1    0    0    0    0  0.00000000000E+00  0.00000000000E+00  0.74505805969E-08  0.10566000000E+00  0.10566000000E+00 0.  1.
     999900   -1    0    0    0    0 -0.00000000000E+00 -0.00000000000E+00 -0.74505805969E-08  0.93827000000E+00  0.93827000000E+00 0. -1.
     999902    2    1    2    0    0 -0.53816687235E-02  0.15589904531E-02  0.10589978943E-01  0.10319491627E+01  0.10318796121E+01 0.  0.
     999903    2    3    3    0    0  0.10636567707E+00  0.67477795216E-01 -0.43232551684E-01  0.14080965454E+00  0.45731774309E-01 0.  0.
         14    1    1    2    0    0  0.53816687235E-02 -0.15589904531E-02 -0.10589978943E-01  0.11980837346E-01  0.00000000000E+00 0. -1.
     999901    1    3    3    0    0 -0.11174734579E+00 -0.65918804763E-01  0.53822530628E-01  0.89113950811E+00  0.88000000000E+00 0.  1.
        -11    1    4    4    0    0  0.27400453509E-01  0.23957198011E-02 -0.24378298679E-01  0.36757133911E-01  0.51100000000E-03 0.  1.
         11    1    4    4    0    0  0.78965223562E-01  0.65082075415E-01 -0.18854253005E-01  0.10405252063E+00  0.51100000000E-03 0. -1.
</event>
<event>
 8    1  0.2091070E+004  0.1043930E+01  0.7957747E-01            NaN
         13   -1    0    0    0    0  0.00000000000E+00  0.00000000000E+00  0.74505805969E-08  0.10566000000E+00  0.10566000000E+00 0. -1.
     999900   -1    0    0    0    0 -0.00000000000E+00 -0.00000000000E+00 -0.74505805969E-08  0.93827000000E+00  0.93827000000E+00 0.  1.
     999902    2    1    2    0    0  0.34388689220E-02  0.99009075331E-02 -0.98475336146E-02  0.10295484942E+01  0.10294480435E+01 0.  0.
     999903    2    3    3    0    0  0.27450564494E-01  0.12857098709E+00  0.22146460699E-01  0.14068249480E+00  0.44911762488E-01 0.  0.
         14    1    1    2    0    0 -0.34388689220E-02 -0.99009075331E-02  0.98475336146E-02  0.14381505753E-01  0.00000000000E+00 0. -1.
     999901    1    3    3    0    0 -0.24011695573E-01 -0.11867007955E+00 -0.31993994313E-01  0.88886599945E+00  0.88000000000E+00 0. -1.
        -11    1    4    4    0    0  0.73868013844E-02  0.49246814793E-01 -0.13246615133E-01  0.51532004963E-01  0.51100000000E-03 0.  1.
         11    1    4    4    0    0  0.20063763110E-01  0.79324172292E-01  0.35393075832E-01  0.89150489835E-01  0.51100000000E-03 0. -1.
</event>
<event>
 8    1  0.2091070E+004  0.1043930E+01  0.7957747E-01            NaN
         13   -1    0    0    0    0  0.00000000000E+00  0.00000000000E+00  0.74505805969E-08  0.10566000000E+00  0.10566000000E+00 0.  1.
     999900   -1    0    0    0    0 -0.00000000000E+00 -0.00000000000E+00 -0.74505805969E-08  0.93827000000E+00  0.93827000000E+00 0.  1.
     999902    2    1    2    0    0  0.98307529263E-02  0.83973547751E-02  0.33160085503E-02  0.10305825215E+01  0.10304960836E+01 0.  0.
     999903    2    3    3    0    0 -0.66113397897E-01  0.11057236051E+00  0.34708884455E-01  0.14086753425E+00  0.45185476149E-01 0.  0.
         14    1    1    2    0    0 -0.98307529263E-02 -0.83973547751E-02 -0.33160085503E-02  0.13347478527E-01  0.00000000000E+00 0. -1.
     999901    1    3    3    0    0  0.75944150824E-01 -0.10217500573E+00 -0.31392875905E-01  0.88971498723E+00  0.88000000000E+00 0.  1.
        -11    1    4    4    0    0 -0.69802995153E-01  0.97141594237E-01  0.21253184779E-01  0.12149447085E+00  0.51100000000E-03 0.  1.
         11    1    4    4    0    0  0.36895972555E-02  0.13430766269E-01  0.13455699676E-01  0.19373063394E-01  0.51100000000E-03 0. -1.
</event>
<event>
 8    1  0.2091070E+004  0.1043930E+01  0.7957747E-01            NaN
         13   -1    0    0    0    0  0.00000000000E+00  0.00000000000E+00  0.74505805969E-08  0.10566000000E+00  0.10566000000E+00 0.  1.
     999900   -1    0    0    0    0 -0.00000000000E+00 -0.00000000000E+00 -0.74505805969E-08  0.93827000000E+00  0.93827000000E+00 0.  1.
     999902    2    1    2    0    0 -0.25591087691E-02 -0.68892238584E-02  0.11793733913E-01  0.10300338638E+01  0.10299401234E+01 0.  0.
     999903    2    3    3    0    0  0.31932071003E-01  0.11541759613E+00 -0.53270061116E-01  0.13852845316E+00  0.44850354153E-01 0.  0.
         14    1    1    2    0    0  0.25591087691E-02  0.68892238584E-02 -0.11793733913E-01  0.13896136250E-01  0.00000000000E+00 0. -1.
     999901    1    3    3    0    0 -0.34491179773E-01 -0.12230681999E+00  0.65063795028E-01  0.89150541060E+00  0.88000000000E+00 0.  1.
        -11    1    4    4    0    0  0.23697146827E-02  0.49147870166E-01 -0.12156785204E-02  0.49222633867E-01  0.51100000000E-03 0. -1.
         11    1    4    4    0    0  0.29562356321E-01  0.66269725962E-01 -0.52054382595E-01  0.89305819288E-01  0.51100000000E-03 0.  1.
</event>
<event>
 8    1  0.2091070E+004  0.1043930E+01  0.7957747E-01            NaN
         13   -1    0    0    0    0  0.00000000000E+00  0.00000000000E+00  0.74505805969E-08  0.10566000000E+00  0.10566000000E+00 0.  1.
     999900   -1    0    0    0    0 -0.00000000000E+00 -0.00000000000E+00 -0.74505805969E-08  0.93827000000E+00  0.93827000000E+00 0.  1.
     999902    2    1    2    0    0 -0.11172214854E-01 -0.59990226869E-02  0.61271529463E-02  0.10298463690E+01  0.10297500644E+01 0.  0.
     999903    2    3    3    0    0  0.21907599066E-01  0.49212843086E-01 -0.11952363184E+00  0.13859402322E+00  0.44950616043E-01 0.  0.
         14    1    1    2    0    0  0.11172214854E-01  0.59990226869E-02 -0.61271529463E-02  0.14083630965E-01  0.00000000000E+00 0. -1.
     999901    1    3    3    0    0 -0.33079813919E-01 -0.55211865773E-01  0.12565078478E+00  0.89125234582E+00  0.88000000000E+00 0. -1.
        -11    1    4    4    0    0  0.84463950864E-02  0.49173011519E-02 -0.70452237221E-01  0.71128758537E-01  0.51100000000E-03 0. -1.
         11    1    4    4    0    0  0.13461203979E-01  0.44295541934E-01 -0.49071394614E-01  0.67465264679E-01  0.51100000000E-03 0.  1.
</event>
<event>
 8    1  0.2091070E+004  0.1043930E+01  0.7957747E-01            NaN
         13   -1    0    0    0    0  0.00000000000E+00  0.00000000000E+00  0.74505805969E-08  0.10566000000E+00  0.10566000000E+00 0.  1.
     999900   -1    0    0    0    0 -0.00000000000E+00 -0.00000000000E+00 -0.74505805969E-08  0.93827000000E+00  0.93827000000E+00 0. -1.
     999902    2    1    2    0    0 -0.17813723075E-03  0.13506170875E-01 -0.37522852993E-02  0.10299111545E+01  0.10298157399E+01 0.  0.
     999903    2    3    3    0    0 -0.11430036687E+00  0.48312673878E-01  0.47632361817E-01  0.14037433237E+00  0.45137821969E-01 0.  0.
         14    1    1    2    0    0  0.17813723075E-03 -0.13506170875E-01  0.37522852993E-02  0.14018845514E-01  0.00000000000E+00 0.  1.
     999901    1    3    3    0    0  0.11412222963E+00 -0.34806503003E-01 -0.51384647116E-01  0.88953682212E+00  0.88000000000E+00 0. -1.
        -11    1    4    4    0    0 -0.41713396808E-01  0.91711792502E-02 -0.42797646595E-02  0.42926629365E-01  0.51100000000E-03 0.  1.
         11    1    4    4    0    0 -0.72586970057E-01  0.39141494628E-01  0.51912126476E-01  0.97447703001E-01  0.51100000000E-03 0. -1.
</event>
<event>
 8    1  0.2091070E+004  0.1043930E+01  0.7957747E-01            NaN
         13   -1    0    0    0    0  0.00000000000E+00  0.00000000000E+00  0.74505805969E-08  0.10566000000E+00  0.10566000000E+00 0. -1.
     999900   -1    0    0    0    0 -0.00000000000E+00 -0.00000000000E+00 -0.74505805969E-08  0.93827000000E+00  0.93827000000E+00 0. -1.
     999902    2    1    2    0    0  0.11582775689E-01  0.33244651368E-02 -0.65141001551E-02  0.10302315964E+01  0.10301405224E+01 0.  0.
     999903    2    3    3    0    0 -0.38684260011E-01  0.15051916397E-01 -0.12660487335E+00  0.14057654985E+00  0.44832357209E-01 0.  0.
         14    1    1    2    0    0 -0.11582775689E-01 -0.33244651368E-02  0.65141001551E-02  0.13698403627E-01  0.00000000000E+00 0. -1.
     999901    1    3    3    0    0  0.50267035699E-01 -0.11727451260E-01  0.12009077319E+00  0.88965504652E+00  0.88000000000E+00 0.  1.
        -11    1    4    4    0    0 -0.45710384770E-01  0.21396679397E-01 -0.11501871312E+00  0.12560582253E+00  0.51100000000E-03 0.  1.
         11    1    4    4    0    0  0.70261247594E-02 -0.63447630003E-02 -0.11586160230E-01  0.14970727322E-01  0.51100000000E-03 0. -1.
</event>
<event>
 8    1  0.2091070E+004  0.1043930E+01  0.7957747E-01            NaN
         13   -1    0    0    0    0  0.00000000000E+00  0.00000000000E+00  0.74505805969E-08  0.10566000000E+00  0.10566000000E+00 0.  1.
     999900   -1    0    0    0    0 -0.00000000000E+00 -0.00000000000E+00 -0.74505805969E-08  0.93827000000E+00  0.93827000000E+00 0.  1.
     999902    2    1    2    0    0 -0.38107401716E-03  0.45423709686E-02  0.12919904225E-01  0.10302295520E+01  0.10301384506E+01 0.  0.
     999903    2    3    3    0    0  0.70811891873E-02  0.13274035590E+00  0.14686790129E-01  0.14090760204E+00  0.44374600665E-01 0.  0.
         14    1    1    2    0    0  0.38107401716E-03 -0.45423709686E-02 -0.12919904225E-01  0.13700448044E-01  0.00000000000E+00 0. -1.
     999901    1    3    3    0    0 -0.74622632045E-02 -0.12819798493E+00 -0.17668859041E-02  0.88932194991E+00  0.88000000000E+00 0. -1.
        -11    1    4    4    0    0  0.13719689363E-01  0.57482879561E-01 -0.12874858511E-01  0.60485820003E-01  0.51100000000E-03 0. -1.
         11    1    4    4    0    0 -0.66385001752E-02  0.75257476339E-01  0.27561648640E-01  0.80421782038E-01  0.51100000000E-03 0.  1.
</event>
<event>
 8    1  0.2091070E+004  0.1043930E+01  0.7957747E-01            NaN
         13   -1    0    0    0    0  0.00000000000E+00  0.00000000000E+00  0.74505805969E-08  0.10566000000E+00  0.10566000000E+00 0.  1.
     999900   -1    0    0    0    0 -0.00000000000E+00 -0.00000000000E+00 -0.74505805969E-08  0.93827000000E+00  0.93827000000E+00 0. -1.
     999902    2    1    2    0    0 -0.11275849264E-01  0.74382898175E-02  0.20485021299E-03  0.10304201926E+01  0.10303316255E+01 0.  0.
     999903    2    3    3    0    0  0.16322899532E-02  0.13213435248E+00  0.22240560217E-01  0.14126255720E+00  0.44702528697E-01 0.  0.
         14    1    1    2    0    0  0.11275849264E-01 -0.74382898175E-02 -0.20485021299E-03  0.13509807387E-01  0.00000000000E+00 0.  1.
     999901    1    3    3    0    0 -0.12908139217E-01 -0.12469606266E+00 -0.22035710004E-01  0.88915763541E+00  0.88000000000E+00 0. -1.
        -11    1    4    4    0    0 -0.15359831147E-01  0.50355169610E-01 -0.62318675551E-02  0.53015703461E-01  0.51100000000E-03 0. -1.
         11    1    4    4    0    0  0.16992121100E-01  0.81779182869E-01  0.28472427772E-01  0.88246853736E-01  0.51100000000E-03 0.  1.
</event>
<event>
 8    1  0.2091070E+004  0.1043930E+01  0.7957747E-01            NaN
         13   -1    0    0    0    0  0.00000000000E+00  0.00000000000E+00  0.74505805969E-08  0.10566000000E+00  0.10566000000E+00 0.  1.
     999900   -1    0    0    0    0 -0.00000000000E+00 -0.00000000000E+00 -0.74505805969E-08  0.93827000000E+00  0.93827000000E+00 0.  1.
     999902    2    1    2    0    0  0.10796699191E-01  0.76629136131E-02 -0.44601696818E-02  0.10299592423E+01  0.10298644856E+01 0.  0.
     999903    2    3    3    0    0  0.11872400194E+00  0.62674674910E-01  0.31728800303E-02  0.14162773881E+00  0.44998285758E-01 0.  0.
         14    1    1    2    0    0 -0.10796699191E-01 -0.76629136131E-02  0.44601696818E-02  0.13970757748E-01  0.00000000000E+00 0. -1.
     999901    1    3    3    0    0 -0.10792730275E+00 -0.55011761297E-01 -0.76330497121E-02  0.88833150344E+00  0.88000000000E+00 0.  1.
        -11    1    4    4    0    0  0.19646172877E-01  0.32501054048E-01 -0.62904304334E-03  0.37986147990E-01  0.51100000000E-03 0. -1.
         11    1    4    4    0    0  0.99077829063E-01  0.30173620861E-01  0.38019230736E-02  0.10364159082E+00  0.51100000000E-03 0.  1.
</event>
<event>
 8    1  0.2147412E+004  0.1043930E+01  0.7957747E-01            NaN
         13   -1    0    0    0    0  0.00000000000E+00  0.00000000000E+00  0.74505805969E-08  0.10566000000E+00  0.10566000000E+00 0.  1.
     999900   -1    0    0    0    0 -0.00000000000E+00 -0.00000000000E+00 -0.74505805969E-08  0.93827000000E+00  0.93827000000E+00 0. -1.
     999902    2    1    2    0    0 -0.26409876254E-02 -0.13764270845E-01  0.11744828341E-02  0.10298655278E+01  0.10297694868E+01 0.  0.
     999903    2    3    3    0    0 -0.12616540048E+00 -0.35719921671E-01  0.18858242535E-01  0.14079126404E+00  0.47675209859E-01 0.  0.
         14    1    1    2    0    0  0.26409876254E-02  0.13764270845E-01 -0.11744828341E-02  0.14064472171E-01  0.00000000000E+00 0.  1.
     999901    1    3    3    0    0  0.12352441286E+00  0.21955650826E-01 -0.17683759701E-01  0.88907426379E+00  0.88000000000E+00 0.  1.
        -11    1    4    4    0    0 -0.74413659585E-01 -0.64431785127E-02  0.29641264555E-01  0.80360269833E-01  0.51100000000E-03 0. -1.
         11    1    4    4    0    0 -0.51751740898E-01 -0.29276743158E-01 -0.10783022019E-01  0.60430994207E-01  0.51100000000E-03 0.  1.
</event>
<event>
 8    1  0.2091070E+004  0.1043930E+01  0.7957747E-01            NaN
         13   -1    0    0    0    0  0.00000000000E+00  0.00000000000E+00  0.74505805969E-08  0.10566000000E+00  0.10566000000E+00 0. -1.
     999900   -1    0    0    0    0 -0.00000000000E+00 -0.00000000000E+00 -0.74505805969E-08  0.93827000000E+00  0.93827000000E+00 0.  1.
     999902    2    1    2    0    0 -0.13189681020E-01  0.14549896510E-02 -0.41425496128E-02  0.10300287268E+01  0.10299349167E+01 0.  0.
     999903    2    3    3    0    0 -0.43293749999E-01 -0.39821237690E-01 -0.11865984258E+00  0.14113942415E+00  0.48786258793E-01 0.  0.
         14    1    1    2    0    0  0.13189681020E-01 -0.14549896510E-02  0.41425496128E-02  0.13901273236E-01  0.00000000000E+00 0. -1.
     999901    1    3    3    0    0  0.30104068979E-01  0.41276227341E-01  0.11451729297E+00  0.88888930261E+00  0.88000000000E+00 0. -1.
        -11    1    4    4    0    0 -0.34499501451E-01 -0.89815510962E-02 -0.94448922501E-01  0.10095416754E+00  0.51100000000E-03 0.  1.
         11    1    4    4    0    0 -0.87942485477E-02 -0.30839686594E-01 -0.24210920082E-01  0.40185256612E-01  0.51100000000E-03 0. -1.
</event>
<event>
 8    1  0.2091070E+004  0.1043930E+01  0.7957747E-01            NaN
         13   -1    0    0    0    0  0.00000000000E+00  0.00000000000E+00  0.74505805969E-08  0.10566000000E+00  0.10566000000E+00 0.  1.
     999900   -1    0    0    0    0 -0.00000000000E+00 -0.00000000000E+00 -0.74505805969E-08  0.93827000000E+00  0.93827000000E+00 0.  1.
     999902    2    1    2    0    0  0.13225243258E-01  0.44243196590E-02 -0.48511163119E-02  0.10291646692E+01  0.10290587453E+01 0.  0.
     999903    2    3    3    0    0 -0.65647117088E-02  0.12368316157E+00  0.46010966617E-01  0.13944490144E+00  0.44578600182E-01 0.  0.
         14    1    1    2    0    0 -0.13225243258E-01 -0.44243196590E-02  0.48511163119E-02  0.14765330784E-01  0.00000000000E+00 0. -1.
     999901    1    3    3    0    0  0.19789954967E-01 -0.11925884191E+00 -0.50862082929E-01  0.88971976778E+00  0.88000000000E+00 0. -1.
        -11    1    4    4    0    0 -0.20989136431E-01  0.10626411619E+00  0.32471434356E-01  0.11308077382E+00  0.51100000000E-03 0.  1.
         11    1    4    4    0    0  0.14424424723E-01  0.17419045379E-01  0.13539532261E-01  0.26364127623E-01  0.51100000000E-03 0. -1.
</event>
<event>
 8    1  0.2091070E+004  0.1043930E+01  0.7957747E-01            NaN
         13   -1    0    0    0    0  0.00000000000E+00  0.00000000000E+00  0.74505805969E-08  0.10566000000E+00  0.10566000000E+00 0.  1.
     999900   -1    0    0    0    0 -0.00000000000E+00 -0.00000000000E+00 -0.74505805969E-08  0.93827000000E+00  0.93827000000E+00 0.  1.
     999902    2    1    2    0    0 -0.21327614108E-02  0.49889961676E-02  0.12416081103E-01  0.10303801725E+01  0.10302910764E+01 0.  0.
     999903    2    3    3    0    0 -0.95183408265E-01  0.77486967018E-02 -0.90861727810E-01  0.13946359697E+00  0.45544679052E-01 0.  0.
         14    1    1    2    0    0  0.21327614108E-02 -0.49889961676E-02 -0.12416081103E-01  0.13549827451E-01  0.00000000000E+00 0. -1.
     999901    1    3    3    0    0  0.93050646854E-01 -0.27597005342E-02  0.10327780891E+00  0.89091657558E+00  0.88000000000E+00 0. -1.
        -11    1    4    4    0    0 -0.67409080928E-01  0.19336706081E-01 -0.41039098758E-01  0.81254914569E-01  0.51100000000E-03 0.  1.
         11    1    4    4    0    0 -0.27774327337E-01 -0.11588009379E-01 -0.49822629052E-01  0.58208682402E-01  0.51100000000E-03 0. -1.
</event>
<event>
 8    1  0.2091070E+004  0.1043930E+01  0.7957747E-01            NaN
         13   -1    0    0    0    0  0.00000000000E+00  0.00000000000E+00  0.74505805969E-08  0.10566000000E+00  0.10566000000E+00 0.  1.
     999900   -1    0    0    0    0 -0.00000000000E+00 -0.00000000000E+00 -0.74505805969E-08  0.93827000000E+00  0.93827000000E+00 0. -1.
     999902    2    1    2    0    0  0.59564268293E-02  0.13642639367E-01 -0.27544211306E-02  0.10287910613E+01  0.10286796685E+01 0.  0.
     999903    2    3    3    0    0 -0.78142565265E-01 -0.80892658033E-01 -0.68388218194E-01  0.13732184800E+00  0.39121080261E-01 0.  0.
         14    1    1    2    0    0 -0.59564268293E-02 -0.13642639367E-01  0.27544211306E-02  0.15138938709E-01  0.00000000000E+00 0. -1.
     999901    1    3    3    0    0  0.84098992094E-01  0.94535297401E-01  0.65633797064E-01  0.89146921329E+00  0.88000000000E+00 0.  1.
        -11    1    4    4    0    0 -0.36238759087E-01 -0.24979418618E-01 -0.75221634171E-02  0.44654933413E-01  0.51100000000E-03 0. -1.
         11    1    4    4    0    0 -0.41903806178E-01 -0.55913239416E-01 -0.60866054777E-01  0.92666914588E-01  0.51100000000E-03 0.  1.
</event>
<event>
 8    1  0.2091070E+004  0.1043930E+01  0.7957747E-01            NaN
         13   -1    0    0    0    0  0.00000000000E+00  0.00000000000E+00  0.74505805969E-08  0.10566000000E+00  0.10566000000E+00 0. -1.
     999900   -1    0    0    0    0 -0.00000000000E+00 -0.00000000000E+00 -0.74505805969E-08  0.93827000000E+00  0.93827000000E+00 0.  1.
     999902    2    1    2    0    0 -0.83346176255E-02  0.75654629188E-02 -0.74210590509E-02  0.10304476338E+01  0.10303594285E+01 0.  0.
     999903    2    3    3    0    0  0.13137137793E+00 -0.88511451095E-02 -0.49303369033E-02  0.13927230096E+00  0.45118553676E-01 0.  0.
         14    1    1    2    0    0  0.83346176255E-02 -0.75654629188E-02  0.74210590509E-02  0.13482366171E-01  0.00000000000E+00 0. -1.
     999901    1    3    3    0    0 -0.13970599555E+00  0.16416608028E-01 -0.24907221476E-02  0.89117533287E+00  0.88000000000E+00 0. -1.
        -11    1    4    4    0    0  0.27581630527E-01  0.15464681016E-01 -0.80193626693E-02  0.32626277754E-01  0.51100000000E-03 0.  1.
         11    1    4    4    0    0  0.10378974740E+00 -0.24315826125E-01  0.30890257660E-02  0.10664602321E+00  0.51100000000E-03 0. -1.
</event>
<event>
 8    1  0.2091070E+004  0.1043930E+01  0.7957747E-01            NaN
         13   -1    0    0    0    0  0.00000000000E+00  0.00000000000E+00  0.74505805969E-08  0.10566000000E+00  0.10566000000E+00 0. -1.
     999900   -1    0    0    0    0 -0.00000000000E+00 -0.00000000000E+00 -0.74505805969E-08  0.93827000000E+00  0.93827000000E+00 0.  1.
     999902    2    1    2    0    0 -0.77506902053E-02  0.38284844849E-02  0.11417750100E-01  0.10296088440E+01  0.10295092404E+01 0.  0.
     999903    2    3    3    0    0 -0.85872452056E-01 -0.96890744650E-01 -0.27155135274E-01  0.13958904630E+00  0.44562383852E-01 0.  0.
         14    1    1    2    0    0  0.77506902053E-02 -0.38284844849E-02 -0.11417750100E-01  0.14321156010E-01  0.00000000000E+00 0. -1.
     999901    1    3    3    0    0  0.78121761850E-01  0.10071922914E+00  0.38572885374E-01  0.89001979769E+00  0.88000000000E+00 0. -1.
        -11    1    4    4    0    0 -0.28761230896E-01 -0.58163661413E-01 -0.27770284843E-01  0.70580944686E-01  0.51100000000E-03 0.  1.
         11    1    4    4    0    0 -0.57111221160E-01 -0.38727083238E-01  0.61514956939E-03  0.69008101615E-01  0.51100000000E-03 0. -1.
</event>
<event>
 8    1  0.2091070E+004  0.1043930E+01  0.7957747E-01            NaN
         13   -1    0    0    0    0  0.00000000000E+00  0.00000000000E+00  0.74505805969E-08  0.10566000000E+00  0.10566000000E+00 0. -1.
     999900   -1    0    0    0    0 -0.00000000000E+00 -0.00000000000E+00 -0.74505805969E-08  0.93827000000E+00  0.93827000000E+00 0.  1.
     999902    2    1    2    0    0 -0.11978238013E-01  0.60491572008E-02  0.28514655120E-02  0.10302113505E+01  0.10301200053E+01 0.  0.
     999903    2    3    3    0    0  0.10410827596E+00  0.55416377794E-01  0.59625460992E-01  0.13940470045E+00  0.44373042010E-01 0.  0.
         14    1    1    2    0    0  0.11978238013E-01 -0.60491572008E-02 -0.28514655120E-02  0.13718649507E-01  0.00000000000E+00 0. -1.
     999901    1    3    3    0    0 -0.11608651398E+00 -0.49367220593E-01 -0.56773995480E-01  0.89080665004E+00  0.88000000000E+00 0.  1.
        -11    1    4    4    0    0  0.46594258527E-01  0.43689479348E-01  0.14853955998E-01  0.65579697035E-01  0.51100000000E-03 0. -1.
         11    1    4    4    0    0  0.57514017438E-01  0.11726898446E-01  0.44771504994E-01  0.73825003416E-01  0.51100000000E-03 0.  1.
</event>
<event>
 8    1  0.2091070E+004  0.1043930E+01  0.7957747E-01            NaN
         13   -1    0    0    0    0  0.00000000000E+00  0.00000000000E+00  0.74505805969E-08  0.10566000000E+00  0.10566000000E+00 0.  1.
     999900   -1    0    0    0    0 -0.00000000000E+00 -0.00000000000E+00 -0.74505805969E-08  0.93827000000E+00  0.93827000000E+00 0.  1.
     999902    2    1    2    0    0 -0.10281205339E-01  0.52326857657E-02 -0.84561926862E-02  0.10296264557E+01  0.10295270987E+01 0.  0.
     999903    2    3    3    0    0  0.98264244958E-01  0.16777198615E-01 -0.86580173377E-01  0.13944740245E+00  0.44856609307E-01 0.  0.
         14    1    1    2    0    0  0.10281205339E-01 -0.52326857657E-02  0.84561926862E-02  0.14303544256E-01  0.00000000000E+00 0.  1.
     999901    1    3    3    0    0 -0.10854545030E+00 -0.11544512850E-01  0.78123980691E-01  0.89017905329E+00  0.88000000000E+00 0. -1.
        -11    1    4    4    0    0  0.82317289898E-02 -0.49392507240E-02 -0.28617415996E-01  0.30188991026E-01  0.51100000000E-03 0. -1.
         11    1    4    4    0    0  0.90032515968E-01  0.21716449339E-01 -0.57962757381E-01  0.10925841143E+00  0.51100000000E-03 0.  1.
</event>
<event>
 8    1  0.2091070E+004  0.1043930E+01  0.7957747E-01            NaN
         13   -1    0    0    0    0  0.00000000000E+00  0.00000000000E+00  0.74505805969E-08  0.10566000000E+00  0.10566000000E+00 0. -1.
     999900   -1    0    0    0    0 -0.00000000000E+00 -0.00000000000E+00 -0.74505805969E-08  0.93827000000E+00  0.93827000000E+00 0.  1.
     999902    2    1    2    0    0 -0.87821855059E-02 -0.49669123451E-02  0.92516557505E-02  0.10302409484E+01  0.10301499995E+01 0.  0.
     999903    2    3    3    0    0 -0.35918733666E-02 -0.22795404702E-01  0.13174671178E+00  0.14156224758E+00  0.46369622006E-01 0.  0.
         14    1    1    2    0    0  0.87821855059E-02  0.49669123451E-02 -0.92516557505E-02  0.13689051634E-01  0.00000000000E+00 0. -1.
     999901    1    3    3    0    0 -0.51903121393E-02  0.17828492357E-01 -0.12249505603E+00  0.88867870079E+00  0.88000000000E+00 0.  1.
        -11    1    4    4    0    0 -0.10651897046E-01  0.10933689609E-01  0.60781781450E-01  0.62671321642E-01  0.51100000000E-03 0.  1.
         11    1    4    4    0    0  0.70600236796E-02 -0.33729094311E-01  0.70964930331E-01  0.78890925938E-01  0.51100000000E-03 0. -1.
</event>
<event>
 8    1  0.2091070E+004  0.1043930E+01  0.7957747E-01            NaN
         13   -1    0    0    0    0  0.00000000000E+00  0.00000000000E+00  0.74505805969E-08  0.10566000000E+00  0.10566000000E+00 0. -1.
     999900   -1    0    0    0    0 -0.00000000000E+00 -0.00000000000E+00 -0.74505805969E-08  0.93827000000E+00  0.93827000000E+00 0.  1.
     999902    2    1    2    0    0  0.79328556835E-02  0.10951241183E-01 -0.40150499340E-02  0.10298239549E+01  0.10297273414E+01 0.  0.
     999903    2    3    3    0    0  0.25751585454E-01 -0.12787379780E+00  0.14734726582E-01  0.13856560138E+00  0.44367346117E-01 0.  0.
         14    1    1    2    0    0 -0.79328556835E-02 -0.10951241183E-01  0.40150499340E-02  0.14106045113E-01  0.00000000000E+00 0. -1.
     999901    1    3    3    0    0 -0.17818729771E-01  0.13882503898E+00 -0.18749776516E-01  0.89125835351E+00  0.88000000000E+00 0.  1.
        -11    1    4    4    0    0  0.37003137373E-01 -0.85407923556E-01  0.16792607471E-01  0.94583287996E-01  0.51100000000E-03 0.  1.
         11    1    4    4    0    0 -0.11251551919E-01 -0.42465874242E-01 -0.20578808889E-02  0.43982313383E-01  0.51100000000E-03 0. -1.
</event>
<event>
 8    1  0.2091070E+004  0.1043930E+01  0.7957747E-01            NaN
         13   -1    0    0    0    0  0.00000000000E+00  0.00000000000E+00  0.74505805969E-08  0.10566000000E+00  0.10566000000E+00 0. -1.
     999900   -1    0    0    0    0 -0.00000000000E+00 -0.00000000000E+00 -0.74505805969E-08  0.93827000000E+00  0.93827000000E+00 0.  1.
     999902    2    1    2    0    0 -0.49444921528E-02 -0.25737641857E-02 -0.12288276594E-01  0.10304365199E+01  0.10303481681E+01 0.  0.
     999903    2    3    3    0    0 -0.15922169349E-01  0.11805930211E+00  0.57507329686E-01  0.13940101398E+00  0.43977669784E-01 0.  0.
         14    1    1    2    0    0  0.49444921528E-02  0.25737641857E-02  0.12288276594E-01  0.13493480144E-01  0.00000000000E+00 0. -1.
     999901    1    3    3    0    0  0.10977677197E-01 -0.12063306629E+00 -0.69795606280E-01  0.89103550588E+00  0.88000000000E+00 0.  1.
        -11    1    4    4    0    0  0.61322048463E-02  0.35813605129E-01  0.36902518108E-01  0.51790686540E-01  0.51100000000E-03 0. -1.
         11    1    4    4    0    0 -0.22054374196E-01  0.82245696978E-01  0.20604811579E-01  0.87610327438E-01  0.51100000000E-03 0.  1.
</event>
<event>
 8    1  0.2091070E+004  0.1043930E+01  0.7957747E-01            NaN
         13   -1    0    0    0    0  0.00000000000E+00  0.00000000000E+00  0.74505805969E-08  0.10566000000E+00  0.10566000000E+00 0.  1.
     999900   -1    0    0    0    0 -0.00000000000E+00 -0.00000000000E+00 -0.74505805969E-08  0.93827000000E+00  0.93827000000E+00 0. -1.
     999902    2    1    2    0    0  0.17854344894E-02  0.78475048724E-02 -0.18975341468E-01  0.10233184815E+01  0.10231108835E+01 0.  0.
     999903    2    3    3    0    0 -0.13386412483E-01 -0.12380634833E+00 -0.16209436163E-01  0.13339119675E+00  0.44980636082E-01 0.  0.
         14    1    1    2    0    0 -0.17854344894E-02 -0.78475048724E-02  0.18975341468E-01  0.20611518451E-01  0.00000000000E+00 0.  1.
     999901    1    3    3    0    0  0.15171846972E-01  0.13165385320E+00 -0.27659053044E-02  0.88992728480E+00  0.88000000000E+00 0.  1.
        -11    1    4    4    0    0  0.14603314324E-01 -0.19481702125E-01 -0.18032551585E-02  0.24419384863E-01  0.51100000000E-03 0.  1.
         11    1    4    4    0    0 -0.27989726807E-01 -0.10432464621E+00 -0.14406181005E-01  0.10897181188E+00  0.51100000000E-03 0. -1.
</event>
<event>
 8    1  0.2091070E+004  0.1043930E+01  0.7957747E-01            NaN
         13   -1    0    0    0    0  0.00000000000E+00  0.00000000000E+00  0.74505805969E-08  0.10566000000E+00  0.10566000000E+00 0. -1.
     999900   -1    0    0    0    0 -0.00000000000E+00 -0.00000000000E+00 -0.74505805969E-08  0.93827000000E+00  0.93827000000E+00 0.  1.
     999902    2    1    2    0    0 -0.14674429958E-01 -0.11311221667E-02  0.15452542709E-02  0.10291311439E+01  0.10290247350E+01 0.  0.
     999903    2    3    3    0    0  0.53100479825E-01 -0.59333794785E-01 -0.10358215555E+00  0.13838271598E+00  0.45610886547E-01 0.  0.
         14    1    1    2    0    0  0.14674429958E-01  0.11311221667E-02 -0.15452542709E-02  0.14798856129E-01  0.00000000000E+00 0.  1.
     999901    1    3    3    0    0 -0.67774909783E-01  0.58202672618E-01  0.10512740982E+00  0.89074842789E+00  0.88000000000E+00 0. -1.
        -11    1    4    4    0    0  0.17810236536E-01  0.29584093330E-02 -0.34239907955E-01  0.38711614911E-01  0.51100000000E-03 0. -1.
         11    1    4    4    0    0  0.35290243289E-01 -0.62292204118E-01 -0.69342247598E-01  0.99671101068E-01  0.51100000000E-03 0.  1.
</event>
<event>
 8    1  0.2091070E+004  0.1043930E+01  0.7957747E-01            NaN
         13   -1    0    0    0    0  0.00000000000E+00  0.00000000000E+00  0.74505805969E-08  0.10566000000E+00  0.10566000000E+00 0. -1.
     999900   -1    0    0    0    0 -0.00000000000E+00 -0.00000000000E+00 -0.74505805969E-08  0.93827000000E+00  0.93827000000E+00 0.  1.
     999902    2    1    2    0    0 -0.91700779878E-02  0.97981208009E-02 -0.16587461198E-02  0.10304079831E+01  0.10303192548E+01 0.  0.
     999903    2    3    3    0    0  0.65931889708E-01 -0.24697989003E-01 -0.11211553061E+00  0.13966055070E+00  0.44476650918E-01 0.  0.
         14    1    1    2    0    0  0.91700779878E-02 -0.97981208009E-02  0.16587461198E-02  0.13522016870E-01  0.00000000000E+00 0. -1.
     999901    1    3    3    0    0 -0.75101967696E-01  0.34496109804E-01  0.11045678449E+00  0.89074743243E+00  0.88000000000E+00 0. -1.
        -11    1    4    4    0    0  0.54178432001E-01 -0.16432095696E-01 -0.48841442190E-01  0.74773416795E-01  0.51100000000E-03 0.  1.
         11    1    4    4    0    0  0.11753457708E-01 -0.82658933062E-02 -0.63274088417E-01  0.64887133904E-01  0.51100000000E-03 0. -1.
</event>
<event>
 8    1  0.2091070E+004  0.1043930E+01  0.7957747E-01            NaN
         13   -1    0    0    0    0  0.00000000000E+00  0.00000000000E+00  0.74505805969E-08  0.10566000000E+00  0.10566000000E+00 0. -1.
     999900   -1    0    0    0    0 -0.00000000000E+00 -0.00000000000E+00 -0.74505805969E-08  0.93827000000E+00  0.93827000000E+00 0.  1.
     999902    2    1    2    0    0  0.57246022836E-02 -0.94184180699E-02 -0.93970294723E-02  0.10294461527E+01  0.10293442570E+01 0.  0.
     999903    2    3    3    0    0 -0.10897230538E+00 -0.15468581995E-01 -0.70206397004E-01  0.13990145774E+00  0.50291543315E-01 0.  0.
         14    1    1    2    0    0 -0.57246022836E-02  0.94184180699E-02  0.93970294723E-02  0.14483847319E-01  0.00000000000E+00 0. -1.
     999901    1    3    3    0    0  0.11469690767E+00  0.60501639250E-02  0.60809367532E-01  0.88954469494E+00  0.88000000000E+00 0. -1.
        -11    1    4    4    0    0 -0.62191759798E-01  0.46140186191E-02 -0.62708858045E-01  0.88440749391E-01  0.51100000000E-03 0. -1.
         11    1    4    4    0    0 -0.46780545586E-01 -0.20082600614E-01 -0.74975389593E-02  0.51460708353E-01  0.51100000000E-03 0.  1.
</event>
<event>
 8    1  0.2091070E+004  0.1043930E+01  0.7957747E-01            NaN
         13   -1    0    0    0    0  0.00000000000E+00  0.00000000000E+00  0.74505805969E-08  0.10566000000E+00  0.10566000000E+00 0. -1.
     999900   -1    0    0    0    0 -0.00000000000E+00 -0.00000000000E+00 -0.74505805969E-08  0.93827000000E+00  0.93827000000E+00 0.  1.
     999902    2    1    2    0    0 -0.57653396823E-02  0.13489671315E-01  0.57322112055E-02  0.10281798057E+01  0.10280591638E+01 0.  0.
     999903    2    3    3    0    0 -0.16317793963E-01 -0.11005711919E+00  0.68469527581E-01  0.13727513374E+00  0.42160956480E-01 0.  0.
         14    1    1    2    0    0  0.57653396823E-02 -0.13489671315E-01 -0.57322112055E-02  0.15750194257E-01  0.00000000000E+00 0.  1.
     999901    1    3    3    0    0  0.10552454281E-01  0.12354679050E+00 -0.62737316375E-01  0.89090467201E+00  0.88000000000E+00 0.  1.
        -11    1    4    4    0    0 -0.14053456276E-01 -0.74069595177E-01  0.22163008593E-01  0.78582852034E-01  0.51100000000E-03 0.  1.
         11    1    4    4    0    0 -0.22643376869E-02 -0.35987524013E-01  0.46306518988E-01  0.58692281703E-01  0.51100000000E-03 0. -1.
</event>
<event>
 8    1  0.2091070E+004  0.1043930E+01  0.7957747E-01            NaN
         13   -1    0    0    0    0  0.00000000000E+00  0.00000000000E+00  0.74505805969E-08  0.10566000000E+00  0.10566000000E+00 0. -1.
     999900   -1    0    0    0    0 -0.00000000000E+00 -0.00000000000E+00 -0.74505805969E-08  0.93827000000E+00  0.93827000000E+00 0.  1.
     999902    2    1    2    0    0  0.10324885935E-01 -0.53490778067E-02 -0.74278849961E-02  0.10301318342E+01  0.10300394199E+01 0.  0.
     999903    2    3    3    0    0 -0.19230010101E-01 -0.35761569444E-01 -0.12699662463E+00  0.14103392342E+00  0.45975447250E-01 0.  0.
         14    1    1    2    0    0 -0.10324885935E-01  0.53490778067E-02  0.74278849961E-02  0.13798165765E-01  0.00000000000E+00 0. -1.
     999901    1    3    3    0    0  0.29554896036E-01  0.30412491638E-01  0.11956873963E+00  0.88909791082E+00  0.88000000000E+00 0. -1.
        -11    1    4    4    0    0  0.74061140586E-02 -0.30682189444E-01 -0.47452670729E-01  0.56993546607E-01  0.51100000000E-03 0.  1.
         11    1    4    4    0    0 -0.26636124160E-01 -0.50793800001E-02 -0.79543953897E-01  0.84040376808E-01  0.51100000000E-03 0. -1.
</event>
<event>
 8    1  0.2091070E+004  0.1043930E+01  0.7957747E-01            NaN
         13   -1    0    0    0    0  0.00000000000E+00  0.00000000000E+00  0.74505805969E-08  0.10566000000E+00  0.10566000000E+00 0. -1.
     999900   -1    0    0    0    0 -0.00000000000E+00 -0.00000000000E+00 -0.74505805969E-08  0.93827000000E+00  0.93827000000E+00 0. -1.
     999902    2    1    2    0    0  0.74183236193E-02 -0.12291971421E-01  0.16593492366E-03  0.10295720189E+01  0.10294718988E+01 0.  0.
     999903    2    3    3    0    0 -0.55403459449E-01  0.11581952609E+00  0.22582085089E-01  0.13779759899E+00  0.44660069186E-01 0.  0.
         14    1    1    2    0    0 -0.74183236193E-02  0.12291971421E-01 -0.16593492366E-03  0.14357981095E-01  0.00000000000E+00 0.  1.
     999901    1    3    3    0    0  0.62821783068E-01 -0.12811149751E+00 -0.22416150165E-01  0.89177441991E+00  0.88000000000E+00 0. -1.
        -11    1    4    4    0    0 -0.25480687391E-01  0.42661613109E-01 -0.12618248900E-01  0.51271434437E-01  0.51100000000E-03 0. -1.
         11    1    4    4    0    0 -0.29922772058E-01  0.73157912977E-01  0.35200333990E-01  0.86526164556E-01  0.51100000000E-03 0.  1.
</event>
<event>
 8    1  0.2091070E+004  0.1043930E+01  0.7957747E-01            NaN
         13   -1    0    0    0    0  0.00000000000E+00  0.00000000000E+00  0.74505805969E-08  0.10566000000E+00  0.10566000000E+00 0. -1.
     999900   -1    0    0    0    0 -0.00000000000E+00 -0.00000000000E+00 -0.74505805969E-08  0.93827000000E+00  0.93827000000E+00 0.  1.
     999902    2    1    2    0    0 -0.79353763663E-02  0.73135321962E-02  0.88321952960E-02  0.10299849068E+01  0.10298905003E+01 0.  0.
     999903    2    3    3    0    0 -0.63854240335E-01  0.12829000850E-01  0.11699082648E+00  0.14158430500E+00  0.46014287665E-01 0.  0.
         14    1    1    2    0    0  0.79353763663E-02 -0.73135321962E-02 -0.88321952960E-02  0.13945093223E-01  0.00000000000E+00 0.  1.
     999901    1    3    3    0    0  0.55918863968E-01 -0.55154686536E-02 -0.10815863119E+00  0.88840060178E+00  0.88000000000E+00 0.  1.
        -11    1    4    4    0    0 -0.38638750673E-01  0.17950738026E-01  0.33450903928E-01  0.54170159164E-01  0.51100000000E-03 0. -1.
         11    1    4    4    0    0 -0.25215489662E-01 -0.51217371761E-02  0.83539922553E-01  0.87414145833E-01  0.51100000000E-03 0.  1.
</event>
<event>
 8    1  0.2091070E+004  0.1043930E+01  0.7957747E-01            NaN
         13   -1    0    0    0    0  0.00000000000E+00  0.00000000000E+00  0.74505805969E-08  0.10566000000E+00  0.10566000000E+00 0. -1.
     999900   -1    0    0    0    0 -0.00000000000E+00 -0.00000000000E+00 -0.74505805969E-08  0.93827000000E+00  0.93827000000E+00 0. -1.
     999902    2    1    2    0    0  0.35056919466E-02 -0.11754525533E-01  0.70763088293E-02  0.10297690363E+01  0.10296716638E+01 0.  0.
     999903    2    3    3    0    0 -0.48057064702E-01  0.11978861398E+00 -0.20152825854E-01  0.13808313800E+00  0.44743972819E-01 0.  0.
         14    1    1    2    0    0 -0.35056919466E-02  0.11754525533E-01 -0.70763088293E-02  0.14160963709E-01  0.00000000000E+00 0.  1.
     999901    1    3    3    0    0  0.51562756649E-01 -0.13154313952E+00  0.27229134683E-01  0.89168589829E+00  0.88000000000E+00 0.  1.
        -11    1    4    4    0    0 -0.27481238412E-01  0.34255780608E-01  0.10075084263E-01  0.45060463975E-01  0.51100000000E-03 0. -1.
         11    1    4    4    0    0 -0.20575826290E-01  0.85532833374E-01 -0.30227910117E-01  0.93022674029E-01  0.51100000000E-03 0.  1.
</event>
<event>
 8    1  0.2091070E+004  0.1043930E+01  0.7957747E-01            NaN
         13   -1    0    0    0    0  0.00000000000E+00  0.00000000000E+00  0.74505805969E-08  0.10566000000E+00  0.10566000000E+00 0.  1.
     999900   -1    0    0    0    0 -0.00000000000E+00 -0.00000000000E+00 -0.74505805969E-08  0.93827000000E+00  0.93827000000E+00 0. -1.
     999902    2    1    2    0    0  0.11646167686E-01 -0.84545682778E-02  0.41577564832E-02  0.10289500172E+01  0.10288409683E+01 0.  0.
     999903    2    3    3    0    0 -0.25480966854E-01  0.84393175884E-01  0.96933523014E-01  0.13844090966E+00  0.44702234563E-01 0.  0.
         14    1    1    2    0    0 -0.11646167686E-01  0.84545682778E-02 -0.41577564832E-02  0.14979982827E-01  0.00000000000E+00 0.  1.
     999901    1    3    3    0    0  0.37127134540E-01 -0.92847744162E-01 -0.92775766531E-01  0.89050910752E+00  0.88000000000E+00 0. -1.
        -11    1    4    4    0    0 -0.23909163173E-01  0.64742233122E-01  0.43742977092E-01  0.81712385837E-01  0.51100000000E-03 0.  1.
         11    1    4    4    0    0 -0.15718036811E-02  0.19650942762E-01  0.53190545922E-01  0.56728523820E-01  0.51100000000E-03 0. -1.
</event>
<event>
 8    1  0.2091070E+004  0.1043930E+01  0.7957747E-01            NaN
         13   -1    0    0    0    0  0.00000000000E+00  0.00000000000E+00  0.74505805969E-08  0.10566000000E+00  0.10566000000E+00 0.  1.
     999900   -1    0    0    0    0 -0.00000000000E+00 -0.00000000000E+00 -0.74505805969E-08  0.93827000000E+00  0.93827000000E+00 0. -1.
     999902    2    1    2    0    0  0.83622623660E-02  0.10577656586E-01 -0.39025711153E-02  0.10298927527E+01  0.10297970857E+01 0.  0.
     999903    2    3    3    0    0 -0.22248140608E-01 -0.12171846405E+00  0.41474261037E-01  0.13832205039E+00  0.45853146514E-01 0.  0.
         14    1    1    2    0    0 -0.83622623660E-02 -0.10577656586E-01  0.39025711153E-02  0.14037247310E-01  0.00000000000E+00 0.  1.
     999901    1    3    3    0    0  0.30610402974E-01  0.13229612063E+00 -0.45376832152E-01  0.89157070230E+00  0.88000000000E+00 0.  1.
        -11    1    4    4    0    0 -0.58302196385E-02 -0.93690715213E-01  0.47617688601E-01  0.10525990199E+00  0.51100000000E-03 0.  1.
         11    1    4    4    0    0 -0.16417920970E-01 -0.28027748833E-01 -0.61434275639E-02  0.33062148400E-01  0.51100000000E-03 0. -1.
</event>
<event>
 8    1  0.2091070E+004  0.1043930E+01  0.7957747E-01            NaN
         13   -1    0    0    0    0  0.00000000000E+00  0.00000000000E+00  0.74505805969E-08  0.10566000000E+00  0.10566000000E+00 0. -1.
     999900   -1    0    0    0    0 -0.00000000000E+00 -0.00000000000E+00 -0.74505805969E-08  0.93827000000E+00  0.93827000000E+00 0. -1.
     999902    2    1    2    0    0 -0.10404772041E-01  0.67963838481E-02 -0.61241578332E-02  0.10300752021E+01  0.10299820225E+01 0.  0.
     999903    2    3    3    0    0 -0.10031500398E+00  0.84332376494E-01 -0.29427838626E-01  0.14179667515E+00  0.45445017872E-01 0.  0.
         14    1    1    2    0    0  0.10404772041E-01 -0.67963838481E-02  0.61241578332E-02  0.13854797862E-01  0.00000000000E+00 0. -1.
     999901    1    3    3    0    0  0.89910231941E-01 -0.77535992646E-01  0.23303680793E-01  0.88827852698E+00  0.88000000000E+00 0. -1.
        -11    1    4    4    0    0 -0.75635624517E-01  0.74221404598E-01 -0.57468160068E-02  0.10612658296E+00  0.51100000000E-03 0.  1.
         11    1    4    4    0    0 -0.24679379464E-01  0.10110971896E-01 -0.23681022620E-01  0.35670092189E-01  0.51100000000E-03 0. -1.
</event>
<event>
 8    1  0.2091070E+004  0.1043930E+01  0.7957747E-01            NaN
         13   -1    0    0    0    0  0.00000000000E+00  0.00000000000E+00  0.74505805969E-08  0.10566000000E+00  0.10566000000E+00 0. -1.
     999900   -1    0    0    0    0 -0.00000000000E+00 -0.00000000000E+00 -0.74505805969E-08  0.93827000000E+00  0.93827000000E+00 0. -1.
     999902    2    1    2    0    0 -0.75399278968E-02 -0.65535422537E-02  0.10058932482E-01  0.10297532038E+01  0.10296556119E+01 0.  0.
     999903    2    3    3    0    0 -0.13155294806E+00  0.21149503769E-01 -0.51427730767E-02  0.14049633436E+00  0.44263892753E-01 0.  0.
         14    1    1    2    0    0  0.75399278968E-02  0.65535422537E-02 -0.10058932482E-01  0.14176796233E-01  0.00000000000E+00 0.  1.
     999901    1    3    3    0    0  0.12401302016E+00 -0.27703046023E-01  0.15201705559E-01  0.88925686940E+00  0.88000000000E+00 0.  1.
        -11    1    4    4    0    0 -0.65957661260E-01 -0.27525306980E-02  0.15264247713E-01  0.67758747652E-01  0.51100000000E-03 0. -1.
         11    1    4    4    0    0 -0.65595286801E-01  0.23902034467E-01 -0.20407020790E-01  0.72737586712E-01  0.51100000000E-03 0.  1.
</event>
<event>
 8    1  0.2091070E+004  0.1043930E+01  0.7957747E-01            NaN
         13   -1    0    0    0    0  0.00000000000E+00  0.00000000000E+00  0.74505805969E-08  0.10566000000E+00  0.10566000000E+00 0. -1.
     999900   -1    0    0    0    0 -0.00000000000E+00 -0.00000000000E+00 -0.74505805969E-08  0.93827000000E+00  0.93827000000E+00 0.  1.
     999902    2    1    2    0    0  0.33060822978E-02  0.78137412662E-02 -0.13101448563E-01  0.10283212625E+01  0.10282027943E+01 0.  0.
     999903    2    3    3    0    0  0.12895539986E+00 -0.17011616155E-01 -0.18656460340E-01  0.13903227259E+00  0.45420469745E-01 0.  0.
         14    1    1    2    0    0 -0.33060822978E-02 -0.78137412662E-02  0.13101448563E-01  0.15608737527E-01  0.00000000000E+00 0. -1.
     999901    1    3    3    0    0 -0.12564931756E+00  0.24825357421E-01  0.55550117767E-02  0.88928898988E+00  0.88000000000E+00 0.  1.
        -11    1    4    4    0    0  0.43834037213E-01 -0.21031508454E-01 -0.22826104763E-01  0.53712562273E-01  0.51100000000E-03 0. -1.
         11    1    4    4    0    0  0.85121362645E-01  0.40198922995E-02  0.41696444234E-02  0.85319710315E-01  0.51100000000E-03 0.  1.
</event>
<event>
 8    1  0.2091070E+004  0.1043930E+01  0.7957747E-01            NaN
         13   -1    0    0    0    0  0.00000000000E+00  0.00000000000E+00  0.74505805969E-08  0.10566000000E+00  0.10566000000E+00 0.  1.
     999900   -1    0    0    0    0 -0.00000000000E+00 -0.00000000000E+00 -0.74505805969E-08  0.93827000000E+00  0.93827000000E+00 0.  1.
     999902    2    1    2    0    0  0.11989810610E-02 -0.14179874398E-01  0.95402630289E-03  0.10296675823E+01  0.10295687997E+01 0.  0.
     999903    2    3    3    0    0 -0.70584228862E-01  0.15086177419E-01  0.11057740563E+00  0.13948410886E+00  0.44930255680E-01 0.  0.
         14    1    1    2    0    0 -0.11989810610E-02  0.14179874398E-01 -0.95402630289E-03  0.14262417738E-01  0.00000000000E+00 0.  1.
     999901    1    3    3    0    0  0.71783209923E-01 -0.29266051817E-01 -0.10962337933E+00  0.89018347340E+00  0.88000000000E+00 0.  1.
        -11    1    4    4    0    0 -0.13862229337E-01  0.22986143738E-01  0.26257073726E-01  0.37552886012E-01  0.51100000000E-03 0.  1.
         11    1    4    4    0    0 -0.56721999525E-01 -0.78999663194E-02  0.84320331908E-01  0.10193122285E+00  0.51100000000E-03 0. -1.
</event>
<event>
 8    1  0.2091070E+004  0.1043930E+01  0.7957747E-01            NaN
         13   -1    0    0    0    0  0.00000000000E+00  0.00000000000E+00  0.74505805969E-08  0.10566000000E+00  0.10566000000E+00 0.  1.
     999900   -1    0    0    0    0 -0.00000000000E+00 -0.00000000000E+00 -0.74505805969E-08  0.93827000000E+00  0.93827000000E+00 0.  1.
     999902    2    1    2    0    0 -0.38553950891E-02 -0.85715883203E-02 -0.11260718207E-01  0.10292623495E+01  0.10291578324E+01 0.  0.
     999903    2    3    3    0    0  0.42593400593E-01  0.80102733172E-01 -0.95665034545E-01  0.13957436229E+00  0.45810022246E-01 0.  0.
         14    1    1    2    0    0  0.38553950891E-02  0.85715883203E-02  0.11260718207E-01  0.14667650533E-01  0.00000000000E+00 0.  1.
     999901    1    3    3    0    0 -0.46448795682E-01 -0.88674321493E-01  0.84404316338E-01  0.88968798718E+00  0.88000000000E+00 0. -1.
        -11    1    4    4    0    0  0.81051952339E-02  0.53507708584E-01 -0.33430928088E-01  0.63613340908E-01  0.51100000000E-03 0. -1.
         11    1    4    4    0    0  0.34488205359E-01  0.26595024588E-01 -0.62234106457E-01  0.75961021381E-01  0.51100000000E-03 0.  1.
</event>
<event>
 8    1  0.2091070E+004  0.1043930E+01  0.7957747E-01            NaN
         13   -1    0    0    0    0  0.00000000000E+00  0.00000000000E+00  0.74505805969E-08  0.10566000000E+00  0.10566000000E+00 0.  1.
     999900   -1    0    0    0    0 -0.00000000000E+00 -0.00000000000E+00 -0.74505805969E-08  0.93827000000E+00  0.93827000000E+00 0. -1.
     999902    2    1    2    0    0  0.41465072026E-03 -0.12215235643E-01  0.26140517186E-02  0.10314313127E+01  0.10313555816E+01 0.  0.
     999903    2    3    3    0    0 -0.96127903128E-01  0.13950659524E-01  0.91061276363E-01  0.14135938849E+00  0.47488166959E-01 0.  0.
         14    1    1    2    0    0 -0.41465072026E-03  0.12215235643E-01 -0.26140517186E-02  0.12498687268E-01  0.00000000000E+00 0.  1.
     999901    1    3    3    0    0  0.96542553848E-01 -0.26165895167E-01 -0.88447224644E-01  0.89007192424E+00  0.88000000000E+00 0. -1.
        -11    1    4    4    0    0 -0.24121315084E-01  0.16745490840E-01  0.61763430570E-02  0.30010958655E-01  0.51100000000E-03 0. -1.
         11    1    4    4    0    0 -0.72006588044E-01 -0.27948313157E-02  0.84884933305E-01  0.11134842984E+00  0.51100000000E-03 0.  1.
</event>
<event>
 8    1  0.2091070E+004  0.1043930E+01  0.7957747E-01            NaN
         13   -1    0    0    0    0  0.00000000000E+00  0.00000000000E+00  0.74505805969E-08  0.10566000000E+00  0.10566000000E+00 0. -1.
     999900   -1    0    0    0    0 -0.00000000000E+00 -0.00000000000E+00 -0.74505805969E-08  0.93827000000E+00  0.93827000000E+00 0. -1.
     999902    2    1    2    0    0 -0.83371013869E-02 -0.73762098059E-02 -0.53218698935E-02  0.10315915224E+01  0.10315177318E+01 0.  0.
     999903    2    3    3    0    0 -0.12407516599E+00  0.33569011921E-01  0.43408236160E-01  0.14173398659E+00  0.41021002083E-01 0.  0.
         14    1    1    2    0    0  0.83371013869E-02  0.73762098059E-02  0.53218698935E-02  0.12338477613E-01  0.00000000000E+00 0.  1.
     999901    1    3    3    0    0  0.11573806460E+00 -0.40945221727E-01 -0.48730106053E-01  0.88985753580E+00  0.88000000000E+00 0. -1.
        -11    1    4    4    0    0 -0.99130101831E-01  0.23203708440E-01  0.50718834634E-01  0.11374467232E+00  0.51100000000E-03 0. -1.
         11    1    4    4    0    0 -0.24945064157E-01  0.10365303481E-01 -0.73105984744E-02  0.27989314266E-01  0.51100000000E-03 0.  1.
</event>
<event>
 8    1  0.2091070E+004  0.1043930E+01  0.7957747E-01            NaN
         13   -1    0    0    0    0  0.00000000000E+00  0.00000000000E+00  0.74505805969E-08  0.10566000000E+00  0.10566000000E+00 0.  1.
     999900   -1    0    0    0    0 -0.00000000000E+00 -0.00000000000E+00 -0.74505805969E-08  0.93827000000E+00  0.93827000000E+00 0.  1.
     999902    2    1    2    0    0  0.11084805596E-01 -0.49759360472E-02 -0.35733528876E-02  0.10312650205E+01  0.10311872482E+01 0.  0.
     999903    2    3    3    0    0  0.85552529385E-01  0.35013882876E-01  0.96635792561E-01  0.14155355024E+00  0.46408230977E-01 0.  0.
         14    1    1    2    0    0 -0.11084805596E-01  0.49759360472E-02  0.35733528876E-02  0.12664979491E-01  0.00000000000E+00 0.  1.
     999901    1    3    3    0    0 -0.74467723790E-01 -0.39989818923E-01 -0.10020914545E+00  0.88971147027E+00  0.88000000000E+00 0.  1.
        -11    1    4    4    0    0  0.38519478575E-01  0.39085950061E-01  0.63197156921E-01  0.83699483187E-01  0.51100000000E-03 0. -1.
         11    1    4    4    0    0  0.47033050811E-01 -0.40720671854E-02  0.33438635640E-01  0.57854067049E-01  0.51100000000E-03 0.  1.
</event>
<event>
 8    1  0.2091070E+004  0.1043930E+01  0.7957747E-01            NaN
         13   -1    0    0    0    0  0.00000000000E+00  0.00000000000E+00  0.74505805969E-08  0.10566000000E+00  0.10566000000E+00 0. -1.
     999900   -1    0    0    0    0 -0.00000000000E+00 -0.00000000000E+00 -0.74505805969E-08  0.93827000000E+00  0.93827000000E+00 0.  1.
     999902    2    1    2    0    0 -0.27441633999E-02 -0.14642148358E-01  0.28765005132E-02  0.10287577491E+01  0.10286458619E+01 0.  0.
     999903    2    3    3    0    0 -0.52863056551E-01  0.11710568951E+00 -0.17708370171E-01  0.13730212312E+00  0.45055980483E-01 0.  0.
         14    1    1    2    0    0  0.27441633999E-02  0.14642148358E-01 -0.28765005132E-02  0.15172250872E-01  0.00000000000E+00 0.  1.
     999901    1    3    3    0    0  0.50118893151E-01 -0.13174783787E+00  0.20584870684E-01  0.89145562600E+00  0.88000000000E+00 0.  1.
        -11    1    4    4    0    0 -0.48356774448E-01  0.83177022644E-01 -0.30233765700E-01  0.10085205224E+00  0.51100000000E-03 0.  1.
         11    1    4    4    0    0 -0.45062821033E-02  0.33928666864E-01  0.12525395529E-01  0.36450070888E-01  0.51100000000E-03 0. -1.
</event>
<event>
 8    1  0.2091070E+004  0.1043930E+01  0.7957747E-01            NaN
         13   -1    0    0    0    0  0.00000000000E+00  0.00000000000E+00  0.74505805969E-08  0.10566000000E+00  0.10566000000E+00 0.  1.
     999900   -1    0    0    0    0 -0.00000000000E+00 -0.00000000000E+00 -0.74505805969E-08  0.93827000000E+00  0.93827000000E+00 0. -1.
     999902    2    1    2    0    0  0.22483077959E-02  0.11744611538E-01  0.25684391312E-02  0.10316993963E+01  0.10316268980E+01 0.  0.
     999903    2    3    3    0    0  0.11033967595E+00 -0.16118031845E-01  0.74936885869E-01  0.14170093399E+00  0.45044231510E-01 0.  0.
         14    1    1    2    0    0 -0.22483077959E-02 -0.11744611538E-01 -0.25684391312E-02  0.12230603733E-01  0.00000000000E+00 0. -1.
     999901    1    3    3    0    0 -0.10809136815E+00  0.27862643383E-01 -0.72368446738E-01  0.88999846227E+00  0.88000000000E+00 0. -1.
        -11    1    4    4    0    0  0.22902064975E-01 -0.62144432706E-02  0.41020991766E-01  0.47393108906E-01  0.51100000000E-03 0.  1.
         11    1    4    4    0    0  0.87437610971E-01 -0.99035885748E-02  0.33915894104E-01  0.94307825088E-01  0.51100000000E-03 0. -1.
</event>
<event>
 7    1  0.2091070E+004  0.1043930E+01  0.7957747E-01            NaN
         13   -1    0    0    0    0  0.00000000000E+00  0.00000000000E+00  0.74505805969E-08  0.10566000000E+00  0.10566000000E+00 0. -1.
     999900   -1    0    0    0    0 -0.00000000000E+00 -0.00000000000E+00 -0.74505805969E-08  0.93827000000E+00  0.93827000000E+00 0. -1.
     999903    2    1    2    0    0 -0.43763059149E-01  0.63862930609E-01 -0.98539182468E-02  0.90039929429E-01  0.44904453396E-01 0.  0.
         14    1    1    2    0    0  0.28861552089E-02  0.50742459894E-01 -0.39168575180E-01  0.64166224836E-01  0.00000000000E+00 0.  1.
     999901    1    1    2    0    0  0.40876903940E-01 -0.11460539050E+00  0.49022493427E-01  0.88972384574E+00  0.88000000000E+00 0.  1.
        -11    1    3    3    0    0 -0.10580015482E-01  0.13129931954E-02  0.11880326066E-01  0.15970721561E-01  0.51100000000E-03 0.  1.
         11    1    3    3    0    0 -0.33183043666E-01  0.62549937413E-01 -0.21734244313E-01  0.74069207868E-01  0.51100000000E-03 0. -1.
</event>
<event>
 8    1  0.2105622E+004  0.1043930E+01  0.7957747E-01            NaN
         13   -1    0    0    0    0  0.00000000000E+00  0.00000000000E+00  0.74505805969E-08  0.10566000000E+00  0.10566000000E+00 0.  1.
     999900   -1    0    0    0    0 -0.00000000000E+00 -0.00000000000E+00 -0.74505805969E-08  0.93827000000E+00  0.93827000000E+00 0. -1.
     999902    2    1    2    0    0  0.12439741343E-01  0.67422008715E-02 -0.97233690478E-04  0.10297803042E+01  0.10296830877E+01 0.  0.
     999903    2    3    3    0    0 -0.72654525995E-01  0.10650473613E+00  0.28323525862E-01  0.13961102964E+00  0.45465135135E-01 0.  0.
         14    1    1    2    0    0 -0.12439741343E-01 -0.67422008715E-02  0.97233690478E-04  0.14149695815E-01  0.00000000000E+00 0. -1.
     999901    1    3    3    0    0  0.85094267338E-01 -0.99762535261E-01 -0.28420759553E-01  0.89016927455E+00  0.88000000000E+00 0.  1.
        -11    1    4    4    0    0 -0.56653354895E-01  0.42779078938E-01  0.15535558683E-01  0.72672325683E-01  0.51100000000E-03 0. -1.
         11    1    4    4    0    0 -0.16001171101E-01  0.63725657194E-01  0.12787967179E-01  0.66938703954E-01  0.51100000000E-03 0.  1.
</event>
<event>
 8    1  0.2091070E+004  0.1043930E+01  0.7957747E-01            NaN
         13   -1    0    0    0    0  0.00000000000E+00  0.00000000000E+00  0.74505805969E-08  0.10566000000E+00  0.10566000000E+00 0.  1.
     999900   -1    0    0    0    0 -0.00000000000E+00 -0.00000000000E+00 -0.74505805969E-08  0.93827000000E+00  0.93827000000E+00 0. -1.
     999902    2    1    2    0    0  0.94860630834E-02  0.30418022845E-02  0.64409837342E-02  0.10320672758E+01  0.10319990977E+01 0.  0.
     999903    2    3    3    0    0 -0.75781638574E-01  0.64156688765E-01 -0.89088246598E-01  0.14070234260E+00  0.44738083023E-01 0.  0.
         14    1    1    2    0    0 -0.94860630834E-02 -0.30418022845E-02 -0.64409837342E-02  0.11862724199E-01  0.00000000000E+00 0.  1.
     999901    1    3    3    0    0  0.85267701657E-01 -0.61114886481E-01  0.95529230332E-01  0.89136493320E+00  0.88000000000E+00 0.  1.
        -11    1    4    4    0    0 -0.48716278194E-01  0.13345285336E-01 -0.33083000674E-01  0.60383097439E-01  0.51100000000E-03 0. -1.
         11    1    4    4    0    0 -0.27065360380E-01  0.50811403430E-01 -0.56005245923E-01  0.80319245159E-01  0.51100000000E-03 0.  1.
</event>
<event>
 8    1  0.2091070E+004  0.1043930E+01  0.7957747E-01            NaN
         13   -1    0    0    0    0  0.00000000000E+00  0.00000000000E+00  0.74505805969E-08  0.10566000000E+00  0.10566000000E+00 0. -1.
     999900   -1    0    0    0    0 -0.00000000000E+00 -0.00000000000E+00 -0.74505805969E-08  0.93827000000E+00  0.93827000000E+00 0. -1.
     999902    2    1    2    0    0  0.76397149042E-03  0.13539986526E-01 -0.52486397210E-02  0.10293882289E+01  0.10292855108E+01 0.  0.
     999903    2    3    3    0    0 -0.80754331912E-01 -0.14960252766E-01  0.10224655372E+00  0.13865105440E+00  0.44996509356E-01 0.  0.
         14    1    1    2    0    0 -0.76397149042E-03 -0.13539986526E-01  0.52486397210E-02  0.14541771092E-01  0.00000000000E+00 0. -1.
     999901    1    3    3    0    0  0.81518303402E-01  0.28500239292E-01 -0.10749519344E+00  0.89073717450E+00  0.88000000000E+00 0. -1.
        -11    1    4    4    0    0 -0.74195848075E-01 -0.26551613489E-01  0.77415095970E-01  0.11046886555E+00  0.51100000000E-03 0. -1.
         11    1    4    4    0    0 -0.65584838365E-02  0.11591360723E-01  0.24831457752E-01  0.28182188857E-01  0.51100000000E-03 0.  1.
</event>
<event>
 8    1  0.2091070E+004  0.1043930E+01  0.7957747E-01            NaN
         13   -1    0    0    0    0  0.00000000000E+00  0.00000000000E+00  0.74505805969E-08  0.10566000000E+00  0.10566000000E+00 0. -1.
     999900   -1    0    0    0    0 -0.00000000000E+00 -0.00000000000E+00 -0.74505805969E-08  0.93827000000E+00  0.93827000000E+00 0.  1.
     999902    2    1    2    0    0 -0.50957609045E-02 -0.11397733039E-01 -0.53544018896E-02  0.10303452763E+01  0.10302557176E+01 0.  0.
     999903    2    3    3    0    0 -0.10412328389E+00  0.80105092775E-01 -0.16903392164E-01  0.14000118744E+00  0.45344500009E-01 0.  0.
         14    1    1    2    0    0  0.50957609045E-02  0.11397733039E-01  0.53544018896E-02  0.13584723671E-01  0.00000000000E+00 0.  1.
     999901    1    3    3    0    0  0.99027522989E-01 -0.91502825813E-01  0.11548990274E-01  0.89034408889E+00  0.88000000000E+00 0.  1.
        -11    1    4    4    0    0 -0.73375967330E-01  0.46351168729E-01 -0.31081744579E-01  0.92188933128E-01  0.51100000000E-03 0. -1.
         11    1    4    4    0    0 -0.30747316564E-01  0.33753924046E-01  0.14178352415E-01  0.47812254314E-01  0.51100000000E-03 0.  1.
</event>
<event>
 8    1  0.2091070E+004  0.1043930E+01  0.7957747E-01            NaN
         13   -1    0    0    0    0  0.00000000000E+00  0.00000000000E+00  0.74505805969E-08  0.10566000000E+00  0.10566000000E+00 0.  1.
     999900   -1    0    0    0    0 -0.00000000000E+00 -0.00000000000E+00 -0.74505805969E-08  0.93827000000E+00  0.93827000000E+00 0. -1.
     999902    2    1    2    0    0 -0.55930428454E-02 -0.43797836174E-04 -0.11363570059E-01  0.10312645047E+01  0.10311867260E+01 0.  0.
     999903    2    3    3    0    0 -0.46303045042E-01 -0.12349276671E+00 -0.25620092874E-01  0.14160153445E+00  0.44723260069E-01 0.  0.
         14    1    1    2    0    0  0.55930428454E-02  0.43797836174E-04  0.11363570059E-01  0.12665495293E-01  0.00000000000E+00 0.  1.
     999901    1    3    3    0    0  0.40710002196E-01  0.12344896887E+00  0.14256522814E-01  0.88966297025E+00  0.88000000000E+00 0.  1.
        -11    1    4    4    0    0 -0.20557383355E-01 -0.12947780572E-01  0.31599706257E-02  0.24505051877E-01  0.51100000000E-03 0. -1.
         11    1    4    4    0    0 -0.25745661687E-01 -0.11054498614E+00 -0.28780063500E-01  0.11709648258E+00  0.51100000000E-03 0.  1.
</event>
<event>
 8    1  0.2091070E+004  0.1043930E+01  0.7957747E-01            NaN
         13   -1    0    0    0    0  0.00000000000E+00  0.00000000000E+00  0.74505805969E-08  0.10566000000E+00  0.10566000000E+00 0.  1.
     999900   -1    0    0    0    0 -0.00000000000E+00 -0.00000000000E+00 -0.74505805969E-08  0.93827000000E+00  0.93827000000E+00 0. -1.
     999902    2    1    2    0    0  0.73285385343E-02 -0.58657136355E-02  0.86653242298E-02  0.10311549494E+01  0.10310758109E+01 0.  0.
     999903    2    3    3    0    0  0.18237757490E-01  0.11804202765E+00 -0.57738194847E-01  0.13993019282E+00  0.44499703692E-01 0.  0.
         14    1    1    2    0    0 -0.73285385343E-02  0.58657136355E-02 -0.86653242298E-02  0.12775050587E-01  0.00000000000E+00 0. -1.
     999901    1    3    3    0    0 -0.10909218956E-01 -0.12390774129E+00  0.66403519077E-01  0.89122475659E+00  0.88000000000E+00 0. -1.
        -11    1    4    4    0    0 -0.58987957784E-02  0.76279922727E-01 -0.49142710596E-01  0.90932334890E-01  0.51100000000E-03 0. -1.
         11    1    4    4    0    0  0.24136553268E-01  0.41762104928E-01 -0.85954842517E-02  0.48997857935E-01  0.51100000000E-03 0.  1.
</event>
<event>
 8    1  0.2091070E+004  0.1043930E+01  0.7957747E-01            NaN
         13   -1    0    0    0    0  0.00000000000E+00  0.00000000000E+00  0.74505805969E-08  0.10566000000E+00  0.10566000000E+00 0.  1.
     999900   -1    0    0    0    0 -0.00000000000E+00 -0.00000000000E+00 -0.74505805969E-08  0.93827000000E+00  0.93827000000E+00 0.  1.
     999902    2    1    2    0    0  0.11335912509E-02  0.11770861357E-01 -0.63310811691E-02  0.10305165443E+01  0.10304292441E+01 0.  0.
     999903    2    3    3    0    0 -0.12444166796E+00  0.32947815364E-01  0.31080895695E-01  0.14056302574E+00  0.47123824829E-01 0.  0.
         14    1    1    2    0    0 -0.11335912509E-02 -0.11770861357E-01  0.63310811691E-02  0.13413455743E-01  0.00000000000E+00 0.  1.
     999901    1    3    3    0    0  0.12557525921E+00 -0.21176954007E-01 -0.37411976864E-01  0.88995351852E+00  0.88000000000E+00 0.  1.
        -11    1    4    4    0    0 -0.97042959522E-01  0.39116621032E-01  0.38534604142E-01  0.11150167206E+00  0.51100000000E-03 0.  1.
         11    1    4    4    0    0 -0.27398708437E-01 -0.61688056689E-02 -0.74537084475E-02  0.29061353685E-01  0.51100000000E-03 0. -1.
</event>
<event>
 8    1  0.2091070E+004  0.1043930E+01  0.7957747E-01            NaN
         13   -1    0    0    0    0  0.00000000000E+00  0.00000000000E+00  0.74505805969E-08  0.10566000000E+00  0.10566000000E+00 0. -1.
     999900   -1    0    0    0    0 -0.00000000000E+00 -0.00000000000E+00 -0.74505805969E-08  0.93827000000E+00  0.93827000000E+00 0. -1.
     999902    2    1    2    0    0  0.52598243565E-02  0.12484505538E-01  0.43122479868E-02  0.10297129640E+01  0.10296148134E+01 0.  0.
     999903    2    3    3    0    0  0.72165037137E-01 -0.16296834593E-01  0.11051740518E+00  0.14034003406E+00  0.44809027119E-01 0.  0.
         14    1    1    2    0    0 -0.52598243565E-02 -0.12484505538E-01 -0.43122479868E-02  0.14217036030E-01  0.00000000000E+00 0.  1.
     999901    1    3    3    0    0 -0.66905212781E-01  0.28781340131E-01 -0.10620515719E+00  0.88937292991E+00  0.88000000000E+00 0. -1.
        -11    1    4    4    0    0  0.40494013090E-01  0.93007538935E-02  0.34118270572E-01  0.53764176056E-01  0.51100000000E-03 0. -1.
         11    1    4    4    0    0  0.31671024047E-01 -0.25597588487E-01  0.76399134604E-01  0.86575858007E-01  0.51100000000E-03 0.  1.
</event>
<event>
 8    1  0.2091070E+004  0.1043930E+01  0.7957747E-01            NaN
         13   -1    0    0    0    0  0.00000000000E+00  0.00000000000E+00  0.74505805969E-08  0.10566000000E+00  0.10566000000E+00 0. -1.
     999900   -1    0    0    0    0 -0.00000000000E+00 -0.00000000000E+00 -0.74505805969E-08  0.93827000000E+00  0.93827000000E+00 0. -1.
     999902    2    1    2    0    0  0.64489949571E-02  0.39827491895E-03  0.12868106836E-01  0.10295308218E+01  0.10294301223E+01 0.  0.
     999903    2    3    3    0    0  0.22107684648E-02 -0.11962244641E+00 -0.55064286373E-01  0.13877959607E+00  0.43741095880E-01 0.  0.
         14    1    1    2    0    0 -0.64489949571E-02 -0.39827491895E-03 -0.12868106836E-01  0.14399178186E-01  0.00000000000E+00 0.  1.
     999901    1    3    3    0    0  0.42382264923E-02  0.12002072133E+00  0.67932393210E-01  0.89075122574E+00  0.88000000000E+00 0.  1.
        -11    1    4    4    0    0  0.58010254787E-02 -0.36129441207E-01  0.34518157122E-02  0.36758190533E-01  0.51100000000E-03 0.  1.
         11    1    4    4    0    0 -0.35902570139E-02 -0.83493005208E-01 -0.58516102085E-01  0.10202140554E+00  0.51100000000E-03 0. -1.
</event>
<event>
 8    1  0.2091070E+004  0.1043930E+01  0.7957747E-01            NaN
         13   -1    0    0    0    0  0.00000000000E+00  0.00000000000E+00  0.74505805969E-08  0.10566000000E+00  0.10566000000E+00 0. -1.
     999900   -1    0    0    0    0 -0.00000000000E+00 -0.00000000000E+00 -0.74505805969E-08  0.93827000000E+00  0.93827000000E+00 0.  1.
     999902    2    1    2    0    0 -0.70374853275E-02  0.10669545937E-01  0.63054745742E-02  0.10296778275E+01  0.10295791879E+01 0.  0.
     999903    2    3    3    0    0  0.58520072707E-01 -0.33635332775E-01 -0.11198177328E+00  0.13824494241E+00  0.44897795428E-01 0.  0.
         14    1    1    2    0    0  0.70374853275E-02 -0.10669545937E-01 -0.63054745742E-02  0.14252172460E-01  0.00000000000E+00 0. -1.
     999901    1    3    3    0    0 -0.65557558035E-01  0.44304878712E-01  0.11828724785E+00  0.89143288513E+00  0.88000000000E+00 0. -1.
        -11    1    4    4    0    0  0.37925120536E-02 -0.21353208807E-01 -0.15566061554E-01  0.26700300885E-01  0.51100000000E-03 0. -1.
         11    1    4    4    0    0  0.54727560654E-01 -0.12282123968E-01 -0.96415711722E-01  0.11154464152E+00  0.51100000000E-03 0.  1.
</event>
<event>
 7    1  0.2091070E+004  0.1043930E+01  0.7957747E-01            NaN
         13   -1    0    0    0    0  0.00000000000E+00  0.00000000000E+00  0.74505805969E-08  0.10566000000E+00  0.10566000000E+00 0.  1.
     999900   -1    0    0    0    0 -0.00000000000E+00 -0.00000000000E+00 -0.74505805969E-08  0.93827000000E+00  0.93827000000E+00 0. -1.
     999903    2    1    2    0    0 -0.83142662165E-01 -0.19381925602E-01  0.26376987695E-01  0.95760717152E-01  0.34438469155E-01 0.  0.
         14    1    1    2    0    0 -0.24311801443E-01  0.10347717923E-01  0.51797284896E-01  0.58147206968E-01  0.00000000000E+00 0.  1.
     999901    1    1    2    0    0  0.10745446361E+00  0.90342076790E-02 -0.78174272591E-01  0.89002207588E+00  0.88000000000E+00 0. -1.
        -11    1    3    3    0    0 -0.49589682117E-01 -0.22012184541E-01  0.21719015355E-02  0.54301483571E-01  0.51100000000E-03 0.  1.
         11    1    3    3    0    0 -0.33552980048E-01  0.26302589390E-02  0.24205086159E-01  0.41459233581E-01  0.51100000000E-03 0. -1.
</event>
<event>
 8    1  0.2091070E+004  0.1043930E+01  0.7957747E-01            NaN
         13   -1    0    0    0    0  0.00000000000E+00  0.00000000000E+00  0.74505805969E-08  0.10566000000E+00  0.10566000000E+00 0.  1.
     999900   -1    0    0    0    0 -0.00000000000E+00 -0.00000000000E+00 -0.74505805969E-08  0.93827000000E+00  0.93827000000E+00 0. -1.
     999902    2    1    2    0    0 -0.87001862970E-02  0.53351760462E-02  0.46769426901E-02  0.10327036409E+01  0.10326426191E+01 0.  0.
     999903    2    3    3    0    0  0.30409126613E-01 -0.90638982475E-01  0.94909468136E-01  0.14203957064E+00  0.45025463459E-01 0.  0.
         14    1    1    2    0    0  0.87001862970E-02 -0.53351760462E-02 -0.46769426901E-02  0.11226359070E-01  0.00000000000E+00 0.  1.
     999901    1    3    3    0    0 -0.39109312910E-01  0.95974158521E-01 -0.90232525446E-01  0.89066407029E+00  0.88000000000E+00 0. -1.
        -11    1    4    4    0    0  0.94278978080E-02  0.23387145383E-03  0.21046876546E-01  0.23068855330E-01  0.51100000000E-03 0. -1.
         11    1    4    4    0    0  0.20981228805E-01 -0.90872853929E-01  0.73862591591E-01  0.11897071531E+00  0.51100000000E-03 0.  1.
</event>
<event>
 8    1  0.2091070E+004  0.1043930E+01  0.7957747E-01            NaN
         13   -1    0    0    0    0  0.00000000000E+00  0.00000000000E+00  0.74505805969E-08  0.10566000000E+00  0.10566000000E+00 0. -1.
     999900   -1    0    0    0    0 -0.00000000000E+00 -0.00000000000E+00 -0.74505805969E-08  0.93827000000E+00  0.93827000000E+00 0. -1.
     999902    2    1    2    0    0 -0.12741101051E-01  0.58502966057E-02 -0.16208851308E-02  0.10298165704E+01  0.10297198550E+01 0.  0.
     999903    2    3    3    0    0 -0.49735917430E-01 -0.29150399931E-02  0.12301536621E+00  0.14022135756E+00  0.45244777079E-01 0.  0.
         14    1    1    2    0    0  0.12741101051E-01 -0.58502966057E-02  0.16208851308E-02  0.14113429597E-01  0.00000000000E+00 0.  1.
     999901    1    3    3    0    0  0.36994816378E-01  0.87653365989E-02 -0.12463625134E+00  0.88959521284E+00  0.88000000000E+00 0. -1.
        -11    1    4    4    0    0 -0.36428917908E-01 -0.14207416458E-01  0.42164661744E-01  0.57506839275E-01  0.51100000000E-03 0.  1.
         11    1    4    4    0    0 -0.13306999521E-01  0.11292376464E-01  0.80850704461E-01  0.82714518286E-01  0.51100000000E-03 0. -1.
</event>
<event>
 8    1  0.2091070E+004  0.1043930E+01  0.7957747E-01            NaN
         13   -1    0    0    0    0  0.00000000000E+00  0.00000000000E+00  0.74505805969E-08  0.10566000000E+00  0.10566000000E+00 0.  1.
     999900   -1    0    0    0    0 -0.00000000000E+00 -0.00000000000E+00 -0.74505805969E-08  0.93827000000E+00  0.93827000000E+00 0.  1.
     999902    2    1    2    0    0 -0.19924477762E-02  0.51321742526E-02 -0.13975707676E-01  0.10289090325E+01  0.10287993816E+01 0.  0.
     999903    2    3    3    0    0  0.61946993747E-02  0.39220397814E-01  0.12392345730E+00  0.13748028261E+00  0.44353026187E-01 0.  0.
         14    1    1    2    0    0  0.19924477762E-02 -0.51321742526E-02  0.13975707676E-01  0.15020967537E-01  0.00000000000E+00 0.  1.
     999901    1    3    3    0    0 -0.81871471509E-02 -0.34088223561E-01 -0.13789916498E+00  0.89142874985E+00  0.88000000000E+00 0.  1.
        -11    1    4    4    0    0  0.78062064018E-02  0.15015140309E-01  0.74346910227E-02  0.18491269521E-01  0.51100000000E-03 0.  1.
         11    1    4    4    0    0 -0.16115070270E-02  0.24205257504E-01  0.11648876628E+00  0.11898901309E+00  0.51100000000E-03 0. -1.
</event>
<event>
 8    1  0.2091070E+004  0.1043930E+01  0.7957747E-01            NaN
         13   -1    0    0    0    0  0.00000000000E+00  0.00000000000E+00  0.74505805969E-08  0.10566000000E+00  0.10566000000E+00 0.  1.
     999900   -1    0    0    0    0 -0.00000000000E+00 -0.00000000000E+00 -0.74505805969E-08  0.93827000000E+00  0.93827000000E+00 0. -1.
     999902    2    1    2    0    0 -0.33698603188E-02 -0.23278866686E-02  0.13018176352E-01  0.10302827318E+01  0.10301923410E+01 0.  0.
     999903    2    3    3    0    0  0.95340919001E-01 -0.67133799286E-01  0.65026989078E-01  0.14087363530E+00  0.44944788033E-01 0.  0.
         14    1    1    2    0    0  0.33698603188E-02  0.23278866686E-02 -0.13018176352E-01  0.13647268241E-01  0.00000000000E+00 0. -1.
     999901    1    3    3    0    0 -0.98710779320E-01  0.64805912617E-01 -0.52008812725E-01  0.88940909646E+00  0.88000000000E+00 0.  1.
        -11    1    4    4    0    0  0.64133293207E-01 -0.33769582430E-01  0.61486748753E-01  0.95049173527E-01  0.51100000000E-03 0. -1.
         11    1    4    4    0    0  0.31207625794E-01 -0.33364216856E-01  0.35402403250E-02  0.45824461772E-01  0.51100000000E-03 0.  1.
</event>
<event>
 8    1  0.2091070E+004  0.1043930E+01  0.7957747E-01            NaN
         13   -1    0    0    0    0  0.00000000000E+00  0.00000000000E+00  0.74505805969E-08  0.10566000000E+00  0.10566000000E+00 0.  1.
     999900   -1    0    0    0    0 -0.00000000000E+00 -0.00000000000E+00 -0.74505805969E-08  0.93827000000E+00  0.93827000000E+00 0.  1.
     999902    2    1    2    0    0 -0.73292527834E-02 -0.52493492639E-02  0.10625608382E-01  0.10299952532E+01  0.10299009877E+01 0.  0.
     999903    2    3    3    0    0  0.95234304091E-01 -0.53467847964E-01 -0.72870588747E-01  0.13880732594E+00  0.45044062741E-01 0.  0.
         14    1    1    2    0    0  0.73292527834E-02  0.52493492639E-02 -0.10625608382E-01  0.13934746770E-01  0.00000000000E+00 0. -1.
     999901    1    3    3    0    0 -0.10256355687E+00  0.48218498700E-01  0.83496197128E-01  0.89118792729E+00  0.88000000000E+00 0. -1.
        -11    1    4    4    0    0  0.71287182022E-01 -0.40065927681E-01 -0.28436423009E-01  0.86579628991E-01  0.51100000000E-03 0.  1.
         11    1    4    4    0    0  0.23947122069E-01 -0.13401920282E-01 -0.44434165738E-01  0.52227696948E-01  0.51100000000E-03 0. -1.
</event>
<event>
 8    1  0.2091070E+004  0.1043930E+01  0.7957747E-01            NaN
         13   -1    0    0    0    0  0.00000000000E+00  0.00000000000E+00  0.74505805969E-08  0.10566000000E+00  0.10566000000E+00 0.  1.
     999900   -1    0    0    0    0 -0.00000000000E+00 -0.00000000000E+00 -0.74505805969E-08  0.93827000000E+00  0.93827000000E+00 0. -1.
     999902    2    1    2    0    0  0.71944813285E-02  0.65139930484E-03 -0.16042370989E-01  0.10263361787E+01  0.10261853678E+01 0.  0.
     999903    2    3    3    0    0  0.10559108640E+00  0.70987911739E-01  0.27268923070E-01  0.13700778876E+00  0.42880985034E-01 0.  0.
         14    1    1    2    0    0 -0.71944813285E-02 -0.65139930484E-03  0.16042370989E-01  0.17593821347E-01  0.00000000000E+00 0.  1.
     999901    1    3    3    0    0 -0.98396605067E-01 -0.70336512434E-01 -0.43311294059E-01  0.88932838989E+00  0.88000000000E+00 0.  1.
        -11    1    4    4    0    0  0.30680205122E-01  0.44930970129E-01  0.50687619166E-02  0.54644492234E-01  0.51100000000E-03 0.  1.
         11    1    4    4    0    0  0.74910881273E-01  0.26056941609E-01  0.22200161154E-01  0.82363296530E-01  0.51100000000E-03 0. -1.
</event>
<event>
 8    1  0.2091070E+004  0.1043930E+01  0.7957747E-01            NaN
         13   -1    0    0    0    0  0.00000000000E+00  0.00000000000E+00  0.74505805969E-08  0.10566000000E+00  0.10566000000E+00 0. -1.
     999900   -1    0    0    0    0 -0.00000000000E+00 -0.00000000000E+00 -0.74505805969E-08  0.93827000000E+00  0.93827000000E+00 0. -1.
     999902    2    1    2    0    0 -0.19602033561E-01  0.14954351107E-02  0.41816830897E-02  0.10238311811E+01  0.10236338823E+01 0.  0.
     999903    2    3    3    0    0 -0.10443184558E+00 -0.70812631827E-01 -0.24204268427E-01  0.13634579209E+00  0.45649635407E-01 0.  0.
         14    1    1    2    0    0  0.19602033561E-01 -0.14954351107E-02 -0.41816830897E-02  0.20098818855E-01  0.00000000000E+00 0.  1.
     999901    1    3    3    0    0  0.84829812015E-01  0.72308066937E-01  0.28385951517E-01  0.88748538906E+00  0.88000000000E+00 0.  1.
        -11    1    4    4    0    0 -0.86755511996E-01 -0.36491277629E-01 -0.79486239072E-02  0.94454083806E-01  0.51100000000E-03 0.  1.
         11    1    4    4    0    0 -0.17676333580E-01 -0.34321354198E-01 -0.16255644520E-01  0.41891708279E-01  0.51100000000E-03 0. -1.
</event>
<event>
 8    1  0.2091070E+004  0.1043930E+01  0.7957747E-01            NaN
         13   -1    0    0    0    0  0.00000000000E+00  0.00000000000E+00  0.74505805969E-08  0.10566000000E+00  0.10566000000E+00 0. -1.
     999900   -1    0    0    0    0 -0.00000000000E+00 -0.00000000000E+00 -0.74505805969E-08  0.93827000000E+00  0.93827000000E+00 0. -1.
     999902    2    1    2    0    0  0.30542173833E-02  0.14441708855E-01  0.11342710138E-01  0.10253141930E+01  0.10251451829E+01 0.  0.
     999903    2    3    3    0    0 -0.27741196053E-01  0.47279191001E-01  0.11822573095E+00  0.13770468543E+00  0.44501247966E-01 0.  0.
         14    1    1    2    0    0 -0.30542173833E-02 -0.14441708855E-01 -0.11342710138E-01  0.18615807040E-01  0.00000000000E+00 0.  1.
     999901    1    3    3    0    0  0.30795413436E-01 -0.32837482145E-01 -0.10688302081E+00  0.88760950753E+00  0.88000000000E+00 0. -1.
        -11    1    4    4    0    0 -0.15124260208E-01  0.10725969349E-01  0.84121677631E-01  0.86142367241E-01  0.51100000000E-03 0.  1.
         11    1    4    4    0    0 -0.12616935844E-01  0.36553221652E-01  0.34104053317E-01  0.51562318188E-01  0.51100000000E-03 0. -1.
</event>
<event>
 8    1  0.2091070E+004  0.1043930E+01  0.7957747E-01            NaN
         13   -1    0    0    0    0  0.00000000000E+00  0.00000000000E+00  0.74505805969E-08  0.10566000000E+00  0.10566000000E+00 0. -1.
     999900   -1    0    0    0    0 -0.00000000000E+00 -0.00000000000E+00 -0.74505805969E-08  0.93827000000E+00  0.93827000000E+00 0. -1.
     999902    2    1    2    0    0 -0.32208537984E-02  0.10724401693E-01  0.81295478284E-02  0.10300925061E+01  0.10299995606E+01 0.  0.
     999903    2    3    3    0    0  0.48272456379E-01 -0.10689557387E+00 -0.57885209893E-01  0.13832798115E+00  0.45022650797E-01 0.  0.
         14    1    1    2    0    0  0.32208537984E-02 -0.10724401693E-01 -0.81295478284E-02  0.13837493948E-01  0.00000000000E+00 0. -1.
     999901    1    3    3    0    0 -0.51493310177E-01  0.11761997557E+00  0.66014757721E-01  0.89176452491E+00  0.88000000000E+00 0.  1.
        -11    1    4    4    0    0  0.21813535609E-01 -0.47236389780E-01 -0.50733165890E-01  0.72672017293E-01  0.51100000000E-03 0.  1.
         11    1    4    4    0    0  0.26458920770E-01 -0.59659184093E-01 -0.71520440034E-02  0.65655963852E-01  0.51100000000E-03 0. -1.
</event>
<event>
 8    1  0.2091070E+004  0.1043930E+01  0.7957747E-01            NaN
         13   -1    0    0    0    0  0.00000000000E+00  0.00000000000E+00  0.74505805969E-08  0.10566000000E+00  0.10566000000E+00 0.  1.
     999900   -1    0    0    0    0 -0.00000000000E+00 -0.00000000000E+00 -0.74505805969E-08  0.93827000000E+00  0.93827000000E+00 0. -1.
     999902    2    1    2    0    0  0.11829782910E-01  0.61618786725E-02 -0.49822901033E-02  0.10296914703E+01  0.10295930207E+01 0.  0.
     999903    2    3    3    0    0  0.11007675472E+00  0.18072535725E-01 -0.74498901025E-01  0.14141961419E+00  0.44787415030E-01 0.  0.
         14    1    1    2    0    0 -0.11829782910E-01 -0.61618786725E-02  0.49822901033E-02  0.14238529669E-01  0.00000000000E+00 0. -1.
     999901    1    3    3    0    0 -0.98246971814E-01 -0.11910657053E-01  0.69516610922E-01  0.88827185614E+00  0.88000000000E+00 0.  1.
        -11    1    4    4    0    0  0.47444696389E-01 -0.20774437490E-02 -0.55269204080E-01  0.72871537851E-01  0.51100000000E-03 0. -1.
         11    1    4    4    0    0  0.62632058334E-01  0.20149979474E-01 -0.19229696945E-01  0.68548076337E-01  0.51100000000E-03 0.  1.
</event>
<event>
 7    1  0.2091070E+004  0.1043930E+01  0.7957747E-01            NaN
         13   -1    0    0    0    0  0.00000000000E+00  0.00000000000E+00  0.74505805969E-08  0.10566000000E+00  0.10566000000E+00 0.  1.
     999900   -1    0    0    0    0 -0.00000000000E+00 -0.00000000000E+00 -0.74505805969E-08  0.93827000000E+00  0.93827000000E+00 0. -1.
     999902    2    1    2    0    0  0.18399124122E-03 -0.50960715024E-02  0.13302587893E-01  0.10296835042E+01  0.10295849437E+01 0.  0.
         14    1    1    2    0    0 -0.18399124122E-03  0.50960715024E-02 -0.13302587893E-01  0.14246495786E-01  0.00000000000E+00 0. -1.
     999901    1    3    3    0    0  0.55787245293E-01  0.62298501338E-01  0.11608419056E+00  0.89155418192E+00  0.88000000000E+00 0.  1.
        -11    1    3    3    0    0 -0.44576649119E-01 -0.52657651564E-01 -0.59547285938E-01  0.91137513124E-01  0.51100000000E-03 0. -1.
         11    1    3    3    0    0 -0.11026604934E-01 -0.14736921277E-01 -0.43234316725E-01  0.46991809167E-01  0.51100000000E-03 0.  1.
</event>
<event>
 8    1  0.2091070E+004  0.1043930E+01  0.7957747E-01            NaN
         13   -1    0    0    0    0  0.00000000000E+00  0.00000000000E+00  0.74505805969E-08  0.10566000000E+00  0.10566000000E+00 0. -1.
     999900   -1    0    0    0    0 -0.00000000000E+00 -0.00000000000E+00 -0.74505805969E-08  0.93827000000E+00  0.93827000000E+00 0. -1.
     999902    2    1    2    0    0 -0.11425783559E-01  0.69693341755E-02 -0.22070965986E-02  0.10303656561E+01  0.10302763677E+01 0.  0.
     999903    2    3    3    0    0  0.91607542166E-01  0.95594596992E-01  0.76861245124E-03  0.13992803438E+00  0.45265829092E-01 0.  0.
         14    1    1    2    0    0  0.11425783559E-01 -0.69693341755E-02  0.22070965986E-02  0.13564343854E-01  0.00000000000E+00 0. -1.
     999901    1    3    3    0    0 -0.10303332573E+00 -0.88625262816E-01 -0.29757090498E-02  0.89043762177E+00  0.88000000000E+00 0. -1.
        -11    1    4    4    0    0  0.56888667599E-01  0.41612280888E-01 -0.18574289762E-01  0.72891479495E-01  0.51100000000E-03 0. -1.
         11    1    4    4    0    0  0.34718874567E-01  0.53982316104E-01  0.19342902214E-01  0.67036554880E-01  0.51100000000E-03 0.  1.
</event>
<event>
 8    1  0.2091070E+004  0.1043930E+01  0.7957747E-01            NaN
         13   -1    0    0    0    0  0.00000000000E+00  0.00000000000E+00  0.74505805969E-08  0.10566000000E+00  0.10566000000E+00 0.  1.
     999900   -1    0    0    0    0 -0.00000000000E+00 -0.00000000000E+00 -0.74505805969E-08  0.93827000000E+00  0.93827000000E+00 0. -1.
     999902    2    1    2    0    0 -0.35068086040E-02  0.69723082140E-03  0.13509860620E-01  0.10299550162E+01  0.10298602018E+01 0.  0.
     999903    2    3    3    0    0  0.12382197753E+00  0.42491838902E-01 -0.31262893253E-02  0.13965384779E+00  0.48538490121E-01 0.  0.
         14    1    1    2    0    0  0.35068086040E-02 -0.69723082140E-03 -0.13509860620E-01  0.13974983770E-01  0.00000000000E+00 0. -1.
     999901    1    3    3    0    0 -0.12732878614E+00 -0.41794608081E-01  0.16636149945E-01  0.89030116844E+00  0.88000000000E+00 0. -1.
        -11    1    4    4    0    0  0.51598749633E-01  0.79842364568E-03  0.16119795519E-01  0.54066416310E-01  0.51100000000E-03 0.  1.
         11    1    4    4    0    0  0.72223227901E-01  0.41693415257E-01 -0.19246084844E-01  0.85587431478E-01  0.51100000000E-03 0. -1.
</event>
<event>
 8    1  0.2091070E+004  0.1043930E+01  0.7957747E-01            NaN
         13   -1    0    0    0    0  0.00000000000E+00  0.00000000000E+00  0.74505805969E-08  0.10566000000E+00  0.10566000000E+00 0.  1.
     999900   -1    0    0    0    0 -0.00000000000E+00 -0.00000000000E+00 -0.74505805969E-08  0.93827000000E+00  0.93827000000E+00 0. -1.
     999902    2    1    2    0    0 -0.31770806107E-02  0.13332322952E-01 -0.21143267455E-02  0.10300622297E+01  0.10299688743E+01 0.  0.
     999903    2    3    3    0    0  0.11241016770E+00 -0.52565840984E-02  0.70629729061E-01  0.13933350716E+00  0.41971301040E-01 0.  0.
         14    1    1    2    0    0  0.31770806107E-02 -0.13332322952E-01  0.21143267455E-02  0.13867770336E-01  0.00000000000E+00 0.  1.
     999901    1    3    3    0    0 -0.11558724831E+00  0.18588907050E-01 -0.72744055807E-01  0.89072872250E+00  0.88000000000E+00 0. -1.
        -11    1    4    4    0    0  0.34560069713E-01  0.56258036134E-02  0.44220695172E-01  0.56407260945E-01  0.51100000000E-03 0.  1.
         11    1    4    4    0    0  0.77850097990E-01 -0.10882387712E-01  0.26409033889E-01  0.82926246215E-01  0.51100000000E-03 0. -1.
</event>
<event>
 8    1  0.2091070E+004  0.1043930E+01  0.7957747E-01            NaN
         13   -1    0    0    0    0  0.00000000000E+00  0.00000000000E+00  0.74505805969E-08  0.10566000000E+00  0.10566000000E+00 0. -1.
     999900   -1    0    0    0    0 -0.00000000000E+00 -0.00000000000E+00 -0.74505805969E-08  0.93827000000E+00  0.93827000000E+00 0. -1.
     999902    2    1    2    0    0  0.25608089217E-02  0.75396211053E-02 -0.12770425326E-01  0.10288805019E+01  0.10287704311E+01 0.  0.
     999903    2    3    3    0    0 -0.12612498494E+00 -0.34601434082E-01 -0.21695818358E-02  0.13846021918E+00  0.45406542947E-01 0.  0.
         14    1    1    2    0    0 -0.25608089217E-02 -0.75396211053E-02  0.12770425326E-01  0.15049498057E-01  0.00000000000E+00 0. -1.
     999901    1    3    3    0    0  0.12868579387E+00  0.42141055187E-01 -0.10600843490E-01  0.89042028276E+00  0.88000000000E+00 0.  1.
        -11    1    4    4    0    0 -0.46580047975E-01 -0.41471908460E-02  0.19341671796E-01  0.50608906826E-01  0.51100000000E-03 0.  1.
         11    1    4    4    0    0 -0.79544936969E-01 -0.30454243236E-01 -0.21511253632E-01  0.87851312354E-01  0.51100000000E-03 0. -1.
</event>
<event>
 8    1  0.2091070E+004  0.1043930E+01  0.7957747E-01            NaN
         13   -1    0    0    0    0  0.00000000000E+00  0.00000000000E+00  0.74505805969E-08  0.10566000000E+00  0.10566000000E+00 0.  1.
     999900   -1    0    0    0    0 -0.00000000000E+00 -0.00000000000E+00 -0.74505805969E-08  0.93827000000E+00  0.93827000000E+00 0.  1.
     999902    2    1    2    0    0 -0.12347704478E-01 -0.36098630219E-02  0.63102280994E-02  0.10296011516E+01  0.10295014403E+01 0.  0.
     999903    2    3    3    0    0  0.42412477812E-01 -0.78560583603E-01  0.97871220017E-01  0.13999466373E+00  0.45267500421E-01 0.  0.
         14    1    1    2    0    0  0.12347704478E-01  0.36098630219E-02 -0.63102280994E-02  0.14328848369E-01  0.00000000000E+00 0.  1.
     999901    1    3    3    0    0 -0.54760182290E-01  0.74950720581E-01 -0.91560991918E-01  0.88960648790E+00  0.88000000000E+00 0.  1.
        -11    1    4    4    0    0 -0.24138579149E-02 -0.38838372603E-01  0.27875160660E-01  0.47869944634E-01  0.51100000000E-03 0.  1.
         11    1    4    4    0    0  0.44826335727E-01 -0.39722211000E-01  0.69996059357E-01  0.92124719093E-01  0.51100000000E-03 0. -1.
</event>
<event>
 8    1  0.2091070E+004  0.1043930E+01  0.7957747E-01            NaN
         13   -1    0    0    0    0  0.00000000000E+00  0.00000000000E+00  0.74505805969E-08  0.10566000000E+00  0.10566000000E+00 0. -1.
     999900   -1    0    0    0    0 -0.00000000000E+00 -0.00000000000E+00 -0.74505805969E-08  0.93827000000E+00  0.93827000000E+00 0.  1.
     999902    2    1    2    0    0  0.70865431195E-02 -0.11941991932E-01  0.54985072013E-02  0.10289946779E+01  0.10288862830E+01 0.  0.
     999903    2    3    3    0    0  0.10569290638E+00  0.29939125280E-01 -0.73147559127E-01  0.13901577557E+00  0.43674692550E-01 0.  0.
         14    1    1    2    0    0 -0.70865431195E-02  0.11941991932E-01 -0.54985072013E-02  0.14935322097E-01  0.00000000000E+00 0. -1.
     999901    1    3    3    0    0 -0.98606363258E-01 -0.41881117212E-01  0.78646066328E-01  0.88997890234E+00  0.88000000000E+00 0.  1.
        -11    1    4    4    0    0  0.43232977514E-01  0.31250187258E-01 -0.47677450727E-01  0.71547641311E-01  0.51100000000E-03 0. -1.
         11    1    4    4    0    0  0.62459928864E-01 -0.13110619778E-02 -0.25470108400E-01  0.67468134257E-01  0.51100000000E-03 0.  1.
</event>
<event>
 8    1  0.2091070E+004  0.1043930E+01  0.7957747E-01            NaN
         13   -1    0    0    0    0  0.00000000000E+00  0.00000000000E+00  0.74505805969E-08  0.10566000000E+00  0.10566000000E+00 0. -1.
     999900   -1    0    0    0    0 -0.00000000000E+00 -0.00000000000E+00 -0.74505805969E-08  0.93827000000E+00  0.93827000000E+00 0.  1.
     999902    2    1    2    0    0 -0.54080143417E-02  0.10392511702E-01  0.65089315995E-02  0.10305278692E+01  0.10304407174E+01 0.  0.
     999903    2    3    3    0    0 -0.10238569247E+00  0.82125148723E-01 -0.28817225910E-01  0.14159695028E+00  0.44630636808E-01 0.  0.
         14    1    1    2    0    0  0.54080143417E-02 -0.10392511702E-01 -0.65089315995E-02  0.13402130770E-01  0.00000000000E+00 0.  1.
     999901    1    3    3    0    0  0.96977678133E-01 -0.71732637021E-01  0.35326157510E-01  0.88893091896E+00  0.88000000000E+00 0. -1.
        -11    1    4    4    0    0 -0.47130730366E-01  0.25668774955E-01 -0.32088850646E-01  0.62531169902E-01  0.51100000000E-03 0.  1.
         11    1    4    4    0    0 -0.55254962109E-01  0.56456373768E-01  0.32716247359E-02  0.79065780374E-01  0.51100000000E-03 0. -1.
</event>
<event>
 8    1  0.2091070E+004  0.1043930E+01  0.7957747E-01            NaN
         13   -1    0    0    0    0  0.00000000000E+00  0.00000000000E+00  0.74505805969E-08  0.10566000000E+00  0.10566000000E+00 0. -1.
     999900   -1    0    0    0    0 -0.00000000000E+00 -0.00000000000E+00 -0.74505805969E-08  0.93827000000E+00  0.93827000000E+00 0.  1.
     999902    2    1    2    0    0 -0.57931179826E-02  0.10359069564E-01 -0.69171263878E-02  0.10301925630E+01  0.10301009658E+01 0.  0.
     999903    2    3    3    0    0  0.10107662825E+00  0.73564725769E-01  0.44579316607E-01  0.13998585594E+00  0.44502480115E-01 0.  0.
         14    1    1    2    0    0  0.57931179826E-02 -0.10359069564E-01  0.69171263878E-02  0.13737437012E-01  0.00000000000E+00 0. -1.
     999901    1    3    3    0    0 -0.10686974624E+00 -0.63205656206E-01 -0.51496442995E-01  0.89020670705E+00  0.88000000000E+00 0.  1.
        -11    1    4    4    0    0  0.12450130896E-01  0.32000481608E-01  0.65038493734E-02  0.34951362780E-01  0.51100000000E-03 0.  1.
         11    1    4    4    0    0  0.88626497359E-01  0.41564244161E-01  0.38075467234E-01  0.10503449316E+00  0.51100000000E-03 0. -1.
</event>
<event>
 8    1  0.2091070E+004  0.1043930E+01  0.7957747E-01            NaN
         13   -1    0    0    0    0  0.00000000000E+00  0.00000000000E+00  0.74505805969E-08  0.10566000000E+00  0.10566000000E+00 0. -1.
     999900   -1    0    0    0    0 -0.00000000000E+00 -0.00000000000E+00 -0.74505805969E-08  0.93827000000E+00  0.93827000000E+00 0.  1.
     999902    2    1    2    0    0  0.13261459234E-01  0.78046504745E-02  0.29376412063E-02  0.10282644772E+01  0.10281451388E+01 0.  0.
     999903    2    3    3    0    0 -0.98045311676E-01  0.85675165254E-01  0.21128471036E-02  0.13784115390E+00  0.45195160160E-01 0.  0.
         14    1    1    2    0    0 -0.13261459234E-01 -0.78046504745E-02 -0.29376412063E-02  0.15665522841E-01  0.00000000000E+00 0.  1.
     999901    1    3    3    0    0  0.11130677091E+00 -0.77870514780E-01  0.82479410272E-03  0.89042332326E+00  0.88000000000E+00 0.  1.
        -11    1    4    4    0    0 -0.35249101606E-01  0.50457150130E-02  0.13878882622E-02  0.35639104350E-01  0.51100000000E-03 0. -1.
         11    1    4    4    0    0 -0.62796210069E-01  0.80629450241E-01  0.72495884132E-03  0.10220204955E+00  0.51100000000E-03 0.  1.
</event>
<event>
 8    1  0.2091070E+004  0.1043930E+01  0.7957747E-01            NaN
         13   -1    0    0    0    0  0.00000000000E+00  0.00000000000E+00  0.74505805969E-08  0.10566000000E+00  0.10566000000E+00 0.  1.
     999900   -1    0    0    0    0 -0.00000000000E+00 -0.00000000000E+00 -0.74505805969E-08  0.93827000000E+00  0.93827000000E+00 0.  1.
     999902    2    1    2    0    0 -0.10151380174E-01  0.78416397809E-02 -0.65270244918E-02  0.10295375060E+01  0.10294369007E+01 0.  0.
     999903    2    3    3    0    0  0.10046935320E+00  0.67124902988E-01 -0.53435413599E-01  0.13939602912E+00  0.44452963615E-01 0.  0.
         14    1    1    2    0    0  0.10151380174E-01 -0.78416397809E-02  0.65270244918E-02  0.14392493967E-01  0.00000000000E+00 0. -1.
     999901    1    3    3    0    0 -0.11062073338E+00 -0.59283263207E-01  0.46908389108E-01  0.89014147691E+00  0.88000000000E+00 0. -1.
        -11    1    4    4    0    0  0.21295782498E-01  0.11012152443E-03 -0.22877513976E-01  0.31259626448E-01  0.51100000000E-03 0. -1.
         11    1    4    4    0    0  0.79173570705E-01  0.67014781463E-01 -0.30557899623E-01  0.10813640267E+00  0.51100000000E-03 0.  1.
</event>
<event>
 8    1  0.2091070E+004  0.1043930E+01  0.7957747E-01            NaN
         13   -1    0    0    0    0  0.00000000000E+00  0.00000000000E+00  0.74505805969E-08  0.10566000000E+00  0.10566000000E+00 0. -1.
     999900   -1    0    0    0    0 -0.00000000000E+00 -0.00000000000E+00 -0.74505805969E-08  0.93827000000E+00  0.93827000000E+00 0. -1.
     999902    2    1    2    0    0  0.60515796907E-02  0.28618689818E-02  0.12221419094E-01  0.10299953312E+01  0.10299010667E+01 0.  0.
     999903    2    3    3    0    0  0.13414345033E+00 -0.10205055773E-02  0.36426195168E-02  0.14067188272E+00  0.42187713993E-01 0.  0.
         14    1    1    2    0    0 -0.60515796907E-02 -0.28618689818E-02 -0.12221419094E-01  0.13934668833E-01  0.00000000000E+00 0.  1.
     999901    1    3    3    0    0 -0.12809187064E+00  0.38823745591E-02  0.85787995769E-02  0.88932344845E+00  0.88000000000E+00 0.  1.
        -11    1    4    4    0    0  0.84909614606E-01 -0.16430907442E-01  0.15173396795E-01  0.87807234686E-01  0.51100000000E-03 0.  1.
         11    1    4    4    0    0  0.49233835727E-01  0.15410401865E-01 -0.11530777278E-01  0.52864648033E-01  0.51100000000E-03 0. -1.
</event>
<event>
 7    1  0.5842242E+004  0.1043930E+01  0.7957747E-01            NaN
         13   -1    0    0    0    0  0.00000000000E+00  0.00000000000E+00  0.74505805969E-08  0.10566000000E+00  0.10566000000E+00 0.  1.
     999900   -1    0    0    0    0 -0.00000000000E+00 -0.00000000000E+00 -0.74505805969E-08  0.93827000000E+00  0.93827000000E+00 0. -1.
     999903    2    1    2    0    0  0.88452154603E-01  0.80680714561E-02  0.57733968122E-02  0.99911820280E-01  0.45389010676E-01 0.  0.
         14    1    1    2    0    0 -0.38538398752E-01 -0.46236910099E-01 -0.13746826298E-01  0.61741681764E-01  0.00000000000E+00 0. -1.
     999901    1    1    2    0    0 -0.49913755851E-01  0.38168838643E-01  0.79734294859E-02  0.88227649796E+00  0.88000000000E+00 0. -1.
        -11    1    3    3    0    0  0.47844029357E-01  0.62743278024E-03  0.25425112941E-01  0.54186181874E-01  0.51100000000E-03 0. -1.
         11    1    3    3    0    0  0.40608125246E-01  0.74406386758E-02 -0.19651716129E-01  0.45725638407E-01  0.51100000000E-03 0.  1.
</event>
<event>
 8    1  0.2091070E+004  0.1043930E+01  0.7957747E-01            NaN
         13   -1    0    0    0    0  0.00000000000E+00  0.00000000000E+00  0.74505805969E-08  0.10566000000E+00  0.10566000000E+00 0.  1.
     999900   -1    0    0    0    0 -0.00000000000E+00 -0.00000000000E+00 -0.74505805969E-08  0.93827000000E+00  0.93827000000E+00 0. -1.
     999902    2    1    2    0    0 -0.36592802961E-02 -0.52249838380E-02  0.20680015475E-01  0.10222885160E+01  0.10220594191E+01 0.  0.
     999903    2    3    3    0    0 -0.18529829317E-01  0.84481198136E-01  0.92892830333E-01  0.13466076582E+00  0.44989071016E-01 0.  0.
         14    1    1    2    0    0  0.36592802961E-02  0.52249838380E-02 -0.20680015475E-01  0.21641483970E-01  0.00000000000E+00 0. -1.
     999901    1    3    3    0    0  0.14870549021E-01 -0.89706181974E-01 -0.72212814858E-01  0.88762775021E+00  0.88000000000E+00 0. -1.
        -11    1    4    4    0    0 -0.94934769007E-02  0.45134806896E-01  0.17873555567E-01  0.49467181108E-01  0.51100000000E-03 0. -1.
         11    1    4    4    0    0 -0.90363524167E-02  0.39346391240E-01  0.75019274766E-01  0.85193584711E-01  0.51100000000E-03 0.  1.
</event>
<event>
 8    1  0.2091070E+004  0.1043930E+01  0.7957747E-01            NaN
         13   -1    0    0    0    0  0.00000000000E+00  0.00000000000E+00  0.74505805969E-08  0.10566000000E+00  0.10566000000E+00 0.  1.
     999900   -1    0    0    0    0 -0.00000000000E+00 -0.00000000000E+00 -0.74505805969E-08  0.93827000000E+00  0.93827000000E+00 0.  1.
     999902    2    1    2    0    0  0.66895796463E-02 -0.11389589497E-01 -0.41326463559E-02  0.10300897691E+01  0.10299967866E+01 0.  0.
     999903    2    3    3    0    0 -0.62801829277E-01 -0.86983223460E-01 -0.80278412916E-01  0.14085322513E+00  0.43414934359E-01 0.  0.
         14    1    1    2    0    0 -0.66895796463E-02  0.11389589497E-01  0.41326463559E-02  0.13840230875E-01  0.00000000000E+00 0.  1.
     999901    1    3    3    0    0  0.69491408923E-01  0.75593633963E-01  0.76145766560E-01  0.88923654399E+00  0.88000000000E+00 0. -1.
        -11    1    4    4    0    0 -0.15299594466E-01 -0.42960383817E-01 -0.12903069409E-01  0.47396439631E-01  0.51100000000E-03 0. -1.
         11    1    4    4    0    0 -0.47502234811E-01 -0.44022839643E-01 -0.67375343507E-01  0.93456785500E-01  0.51100000000E-03 0.  1.
</event>
<event>
 8    1  0.2091070E+004  0.1043930E+01  0.7957747E-01            NaN
         13   -1    0    0    0    0  0.00000000000E+00  0.00000000000E+00  0.74505805969E-08  0.10566000000E+00  0.10566000000E+00 0. -1.
     999900   -1    0    0    0    0 -0.00000000000E+00 -0.00000000000E+00 -0.74505805969E-08  0.93827000000E+00  0.93827000000E+00 0.  1.
     999902    2    1    2    0    0 -0.69250434021E-02  0.19909219527E-02 -0.11761095646E-01  0.10301371262E+01  0.10300447832E+01 0.  0.
     999903    2    3    3    0    0 -0.31252730639E-01 -0.59187368882E-01 -0.11659046937E+00  0.14147306301E+00  0.44061459375E-01 0.  0.
         14    1    1    2    0    0  0.69250434021E-02 -0.19909219527E-02  0.11761095646E-01  0.13792873781E-01  0.00000000000E+00 0. -1.
     999901    1    3    3    0    0  0.24327687237E-01  0.61178290834E-01  0.10482937373E+00  0.88866406320E+00  0.88000000000E+00 0. -1.
        -11    1    4    4    0    0 -0.35628408069E-01 -0.48085980859E-01 -0.64329184757E-01  0.87864384987E-01  0.51100000000E-03 0. -1.
         11    1    4    4    0    0  0.43756774294E-02 -0.11101388023E-01 -0.52261284617E-01  0.53608678027E-01  0.51100000000E-03 0.  1.
</event>
<event>
 7    1  0.2091070E+004  0.1043930E+01  0.7957747E-01            NaN
         13   -1    0    0    0    0  0.00000000000E+00  0.00000000000E+00  0.74505805969E-08  0.10566000000E+00  0.10566000000E+00 0.  1.
     999900   -1    0    0    0    0 -0.00000000000E+00 -0.00000000000E+00 -0.74505805969E-08  0.93827000000E+00  0.93827000000E+00 0.  1.
     999903    2    1    2    0    0  0.42621595639E-01  0.36634345316E-03  0.24389331206E-01  0.67035335195E-01  0.45630714061E-01 0.  0.
         14    1    1    2    0    0  0.69202410925E-01 -0.50552841880E-01 -0.21661114177E-01  0.88395516670E-01  0.00000000000E+00 0. -1.
     999901    1    1    2    0    0 -0.11182400656E+00  0.50186498427E-01 -0.27282170286E-02  0.88849914813E+00  0.88000000000E+00 0. -1.
        -11    1    3    3    0    0  0.20096272432E-01 -0.21996069036E-01  0.17481099022E-01  0.34547607192E-01  0.51100000000E-03 0. -1.
         11    1    3    3    0    0  0.22525323207E-01  0.22362412489E-01  0.69082321838E-02  0.32487728003E-01  0.51100000000E-03 0.  1.
</event>
<event>
 8    1  0.2091070E+004  0.1043930E+01  0.7957747E-01            NaN
         13   -1    0    0    0    0  0.00000000000E+00  0.00000000000E+00  0.74505805969E-08  0.10566000000E+00  0.10566000000E+00 0. -1.
     999900   -1    0    0    0    0 -0.00000000000E+00 -0.00000000000E+00 -0.74505805969E-08  0.93827000000E+00  0.93827000000E+00 0. -1.
     999902    2    1    2    0    0 -0.11722658861E-01  0.34918202941E-02  0.73623898461E-02  0.10296535045E+01  0.10295545255E+01 0.  0.
     999903    2    3    3    0    0  0.29684143524E-01  0.11764021584E+00  0.53874965634E-01  0.14009867246E+00  0.44774516668E-01 0.  0.
         14    1    1    2    0    0  0.11722658861E-01 -0.34918202941E-02 -0.73623898461E-02  0.14276495507E-01  0.00000000000E+00 0.  1.
     999901    1    3    3    0    0 -0.41406802384E-01 -0.11414839555E+00 -0.46512575788E-01  0.88955483203E+00  0.88000000000E+00 0. -1.
        -11    1    4    4    0    0  0.26173057299E-02  0.55710301389E-01  0.36523202027E-02  0.55893546443E-01  0.51100000000E-03 0. -1.
         11    1    4    4    0    0  0.27066837794E-01  0.61929914451E-01  0.50222645431E-01  0.84205126015E-01  0.51100000000E-03 0.  1.
</event>
<event>
 8    1  0.2091070E+004  0.1043930E+01  0.7957747E-01            NaN
         13   -1    0    0    0    0  0.00000000000E+00  0.00000000000E+00  0.74505805969E-08  0.10566000000E+00  0.10566000000E+00 0. -1.
     999900   -1    0    0    0    0 -0.00000000000E+00 -0.00000000000E+00 -0.74505805969E-08  0.93827000000E+00  0.93827000000E+00 0.  1.
     999902    2    1    2    0    0  0.66437122803E-02  0.98714383395E-02 -0.51191230683E-02  0.10309766364E+01  0.10308952591E+01 0.  0.
     999903    2    3    3    0    0 -0.15457825578E-01  0.68287717564E-01  0.11328654045E+00  0.14085257717E+00  0.45863400515E-01 0.  0.
         14    1    1    2    0    0 -0.66437122803E-02 -0.98714383395E-02  0.51191230683E-02  0.12953363607E-01  0.00000000000E+00 0.  1.
     999901    1    3    3    0    0  0.22101537859E-01 -0.58416279224E-01 -0.11840566352E+00  0.89012405922E+00  0.88000000000E+00 0.  1.
        -11    1    4    4    0    0 -0.19615617235E-01  0.24725606421E-01  0.79586127496E-01  0.85617409814E-01  0.51100000000E-03 0. -1.
         11    1    4    4    0    0  0.41577916563E-02  0.43562111143E-01  0.33700412953E-01  0.55235167356E-01  0.51100000000E-03 0.  1.
</event>
<event>
 8    1  0.2091070E+004  0.1043930E+01  0.7957747E-01            NaN
         13   -1    0    0    0    0  0.00000000000E+00  0.00000000000E+00  0.74505805969E-08  0.10566000000E+00  0.10566000000E+00 0. -1.
     999900   -1    0    0    0    0 -0.00000000000E+00 -0.00000000000E+00 -0.74505805969E-08  0.93827000000E+00  0.93827000000E+00 0. -1.
     999902    2    1    2    0    0 -0.49378465415E-03 -0.62656026948E-02 -0.12401687125E-01  0.10300266391E+01  0.10299328006E+01 0.  0.
     999903    2    3    3    0    0 -0.40773566791E-01 -0.64783329557E-01  0.10676535646E+00  0.13915764230E+00  0.45898197482E-01 0.  0.
         14    1    1    2    0    0  0.49378465415E-03  0.62656026948E-02  0.12401687125E-01  0.13903360888E-01  0.00000000000E+00 0. -1.
     999901    1    3    3    0    0  0.40279782137E-01  0.58517726863E-01 -0.11916704359E+00  0.89086899681E+00  0.88000000000E+00 0. -1.
        -11    1    4    4    0    0 -0.19234828257E-01 -0.15904387805E-01  0.69982253895E-01  0.74301447838E-01  0.51100000000E-03 0.  1.
         11    1    4    4    0    0 -0.21538738534E-01 -0.48878941752E-01  0.36783102567E-01  0.64856194461E-01  0.51100000000E-03 0. -1.
</event>
<event>
 8    1  0.2091070E+004  0.1043930E+01  0.7957747E-01            NaN
         13   -1    0    0    0    0  0.00000000000E+00  0.00000000000E+00  0.74505805969E-08  0.10566000000E+00  0.10566000000E+00 0. -1.
     999900   -1    0    0    0    0 -0.00000000000E+00 -0.00000000000E+00 -0.74505805969E-08  0.93827000000E+00  0.93827000000E+00 0. -1.
     999902    2    1    2    0    0 -0.16540022104E-02 -0.15933200879E-02 -0.13634895168E-01  0.10301030423E+01  0.10300102393E+01 0.  0.
     999903    2    3    3    0    0 -0.19022713341E-01  0.13140320380E+00 -0.18296739160E-03  0.13983864236E+00  0.43887889304E-01 0.  0.
         14    1    1    2    0    0  0.16540022104E-02  0.15933200879E-02  0.13634895168E-01  0.13826957671E-01  0.00000000000E+00 0. -1.
     999901    1    3    3    0    0  0.17368711131E-01 -0.13299652389E+00 -0.13451927776E-01  0.89026439997E+00  0.88000000000E+00 0. -1.
        -11    1    4    4    0    0 -0.15240353947E-01  0.11119069179E+00  0.16391644245E-01  0.11342215591E+00  0.51100000000E-03 0. -1.
         11    1    4    4    0    0 -0.37823593940E-02  0.20212512010E-01 -0.16574611637E-01  0.26416486448E-01  0.51100000000E-03 0.  1.
</event>
<event>
 8    1  0.2091070E+004  0.1043930E+01  0.7957747E-01            NaN
         13   -1    0    0    0    0  0.00000000000E+00  0.00000000000E+00  0.74505805969E-08  0.10566000000E+00  0.10566000000E+00 0.  1.
     999900   -1    0    0    0    0 -0.00000000000E+00 -0.00000000000E+00 -0.74505805969E-08  0.93827000000E+00  0.93827000000E+00 0. -1.
     999902    2    1    2    0    0 -0.59102921378E-02  0.12834636290E-01 -0.15109855534E-02  0.10297193519E+01  0.10296212902E+01 0.  0.
     999903    2    3    3    0    0 -0.69110746994E-01 -0.31592318681E-01 -0.10707983878E+00  0.14004928127E+00  0.48716930934E-01 0.  0.
         14    1    1    2    0    0  0.59102921378E-02 -0.12834636290E-01  0.15109855534E-02  0.14210648092E-01  0.00000000000E+00 0.  1.
     999901    1    3    3    0    0  0.63200454856E-01  0.44426954972E-01  0.10556885323E+00  0.88967007064E+00  0.88000000000E+00 0. -1.
        -11    1    4    4    0    0 -0.70211197492E-01 -0.23975047200E-01 -0.69414961844E-01  0.10160272236E+00  0.51100000000E-03 0. -1.
         11    1    4    4    0    0  0.11004504979E-02 -0.76172714815E-02 -0.37664876940E-01  0.38446558910E-01  0.51100000000E-03 0.  1.
</event>
<event>
 8    1  0.2091070E+004  0.1043930E+01  0.7957747E-01            NaN
         13   -1    0    0    0    0  0.00000000000E+00  0.00000000000E+00  0.74505805969E-08  0.10566000000E+00  0.10566000000E+00 0.  1.
     999900   -1    0    0    0    0 -0.00000000000E+00 -0.00000000000E+00 -0.74505805969E-08  0.93827000000E+00  0.93827000000E+00 0. -1.
     999902    2    1    2    0    0 -0.58592888745E-02 -0.11735343845E-01  0.43337066400E-02  0.10301158560E+01  0.10300232261E+01 0.  0.
     999903    2    3    3    0    0  0.76798257563E-01  0.10320246960E+00 -0.23370030658E-01  0.13837011421E+00  0.45292472615E-01 0.  0.
         14    1    1    2    0    0  0.58592888745E-02  0.11735343845E-01 -0.43337066400E-02  0.13814144002E-01  0.00000000000E+00 0. -1.
     999901    1    3    3    0    0 -0.82657546438E-01 -0.11493781345E+00  0.27703737298E-01  0.89174574179E+00  0.88000000000E+00 0.  1.
        -11    1    4    4    0    0  0.14999148112E-01  0.56097985956E-01 -0.35660369996E-02  0.58180204651E-01  0.51100000000E-03 0. -1.
         11    1    4    4    0    0  0.61799109451E-01  0.47104483647E-01 -0.19803993659E-01  0.80189909555E-01  0.51100000000E-03 0.  1.
</event>
<event>
 8    1  0.2091070E+004  0.1043930E+01  0.7957747E-01            NaN
         13   -1    0    0    0    0  0.00000000000E+00  0.00000000000E+00  0.74505805969E-08  0.10566000000E+00  0.10566000000E+00 0. -1.
     999900   -1    0    0    0    0 -0.00000000000E+00 -0.00000000000E+00 -0.74505805969E-08  0.93827000000E+00  0.93827000000E+00 0. -1.
     999902    2    1    2    0    0 -0.79674925899E-02 -0.65175209254E-02  0.31804355430E-02  0.10331562269E+01  0.10331000508E+01 0.  0.
     999903    2    3    3    0    0 -0.10084432435E+00  0.39054458879E-02  0.91823123959E-01  0.14377876464E+00  0.45343321523E-01 0.  0.
         14    1    1    2    0    0  0.79674925899E-02  0.65175209254E-02 -0.31804355430E-02  0.10773773129E-01  0.00000000000E+00 0.  1.
     999901    1    3    3    0    0  0.92876831760E-01 -0.10422966813E-01 -0.88642688416E-01  0.88937746223E+00  0.88000000000E+00 0. -1.
        -11    1    4    4    0    0 -0.84007568146E-01  0.15453882693E-01  0.54769446159E-01  0.10146944047E+00  0.51100000000E-03 0.  1.
         11    1    4    4    0    0 -0.16836756204E-01 -0.11548436805E-01  0.37053677800E-01  0.42309324169E-01  0.51100000000E-03 0. -1.
</event>
<event>
 8    1  0.2091070E+004  0.1043930E+01  0.7957747E-01            NaN
         13   -1    0    0    0    0  0.00000000000E+00  0.00000000000E+00  0.74505805969E-08  0.10566000000E+00  0.10566000000E+00 0.  1.
     999900   -1    0    0    0    0 -0.00000000000E+00 -0.00000000000E+00 -0.74505805969E-08  0.93827000000E+00  0.93827000000E+00 0. -1.
     999902    2    1    2    0    0  0.10186235678E-01 -0.64131020713E-02 -0.26901473473E-02  0.10315961373E+01  0.10315224023E+01 0.  0.
     999903    2    3    3    0    0 -0.81071248358E-01  0.10534068520E+00 -0.14373626459E-02  0.13984594427E+00  0.43423666932E-01 0.  0.
         14    1    1    2    0    0 -0.10186235678E-01  0.64131020713E-02  0.26901473473E-02  0.12333862664E-01  0.00000000000E+00 0. -1.
     999901    1    3    3    0    0  0.91257484036E-01 -0.11175378727E+00 -0.12527847013E-02  0.89175019306E+00  0.88000000000E+00 0.  1.
        -11    1    4    4    0    0 -0.48166069029E-01  0.49615741278E-01  0.19461908318E-01  0.71838144357E-01  0.51100000000E-03 0. -1.
         11    1    4    4    0    0 -0.32905179329E-01  0.55724943918E-01 -0.20899270964E-01  0.68007799914E-01  0.51100000000E-03 0.  1.
</event>
<event>
 8    1  0.2091070E+004  0.1043930E+01  0.7957747E-01            NaN
         13   -1    0    0    0    0  0.00000000000E+00  0.00000000000E+00  0.74505805969E-08  0.10566000000E+00  0.10566000000E+00 0. -1.
     999900   -1    0    0    0    0 -0.00000000000E+00 -0.00000000000E+00 -0.74505805969E-08  0.93827000000E+00  0.93827000000E+00 0. -1.
     999902    2    1    2    0    0 -0.32028220612E-02  0.20330663572E-02 -0.13080191493E-01  0.10303107916E+01  0.10302207746E+01 0.  0.
     999903    2    3    3    0    0  0.12903569396E+00 -0.32270510536E-01 -0.42950056648E-02  0.13972618585E+00  0.42583609207E-01 0.  0.
         14    1    1    2    0    0  0.32028220612E-02 -0.20330663572E-02  0.13080191493E-01  0.13619208401E-01  0.00000000000E+00 0. -1.
     999901    1    3    3    0    0 -0.13223851602E+00  0.34303576893E-01 -0.87851858281E-02  0.89058460575E+00  0.88000000000E+00 0.  1.
        -11    1    4    4    0    0  0.22140922886E-01 -0.16305551264E-01  0.12741640629E-01  0.30310097248E-01  0.51100000000E-03 0. -1.
         11    1    4    4    0    0  0.10689477107E+00 -0.15964959272E-01 -0.17036646294E-01  0.10941608860E+00  0.51100000000E-03 0.  1.
</event>
<event>
 8    1  0.2091070E+004  0.1043930E+01  0.7957747E-01            NaN
         13   -1    0    0    0    0  0.00000000000E+00  0.00000000000E+00  0.74505805969E-08  0.10566000000E+00  0.10566000000E+00 0. -1.
     999900   -1    0    0    0    0 -0.00000000000E+00 -0.00000000000E+00 -0.74505805969E-08  0.93827000000E+00  0.93827000000E+00 0.  1.
     999902    2    1    2    0    0  0.34338513934E-02 -0.12027232778E-01  0.65767829738E-02  0.10297984842E+01  0.10297015191E+01 0.  0.
     999903    2    3    3    0    0 -0.11489502452E+00 -0.30338151433E-01  0.58222221181E-01  0.14018943307E+00  0.46281529944E-01 0.  0.
         14    1    1    2    0    0 -0.34338513934E-02  0.12027232778E-01 -0.65767829738E-02  0.14131515771E-01  0.00000000000E+00 0.  1.
     999901    1    3    3    0    0  0.11832887591E+00  0.18310918655E-01 -0.51645438207E-01  0.88960905116E+00  0.88000000000E+00 0.  1.
        -11    1    4    4    0    0 -0.57650946697E-01 -0.32990051717E-01  0.48059599824E-01  0.81987568714E-01  0.51100000000E-03 0. -1.
         11    1    4    4    0    0 -0.57244077821E-01  0.26519002844E-02  0.10162621357E-01  0.58201864356E-01  0.51100000000E-03 0.  1.
</event>
<event>
 8    1  0.2091070E+004  0.1043930E+01  0.7957747E-01            NaN
         13   -1    0    0    0    0  0.00000000000E+00  0.00000000000E+00  0.74505805969E-08  0.10566000000E+00  0.10566000000E+00 0. -1.
     999900   -1    0    0    0    0 -0.00000000000E+00 -0.00000000000E+00 -0.74505805969E-08  0.93827000000E+00  0.93827000000E+00 0.  1.
     999902    2    1    2    0    0  0.32172063932E-02 -0.27035562282E-02  0.15384871851E-01  0.10279815231E+01  0.10278578004E+01 0.  0.
     999903    2    3    3    0    0  0.74856599058E-03 -0.75263470013E-01  0.10924233329E+00  0.14001741441E+00  0.44786590453E-01 0.  0.
         14    1    1    2    0    0 -0.32172063932E-02  0.27035562282E-02 -0.15384871851E-01  0.15948476890E-01  0.00000000000E+00 0.  1.
     999901    1    3    3    0    0  0.24686404026E-02  0.72559913785E-01 -0.93857461443E-01  0.88796410870E+00  0.88000000000E+00 0. -1.
        -11    1    4    4    0    0  0.23205503116E-02 -0.65161179371E-01  0.56460339844E-01  0.86251929526E-01  0.51100000000E-03 0.  1.
         11    1    4    4    0    0 -0.15719843210E-02 -0.10102290642E-01  0.52781993451E-01  0.53765484881E-01  0.51100000000E-03 0. -1.
</event>
<event>
 8    1  0.2091070E+004  0.1043930E+01  0.7957747E-01            NaN
         13   -1    0    0    0    0  0.00000000000E+00  0.00000000000E+00  0.74505805969E-08  0.10566000000E+00  0.10566000000E+00 0. -1.
     999900   -1    0    0    0    0 -0.00000000000E+00 -0.00000000000E+00 -0.74505805969E-08  0.93827000000E+00  0.93827000000E+00 0.  1.
     999902    2    1    2    0    0 -0.55351446263E-02 -0.49363885417E-02 -0.12342205677E-01  0.10295308403E+01  0.10294301411E+01 0.  0.
     999903    2    3    3    0    0  0.19723039159E-01 -0.20470855771E-01  0.12669491353E+00  0.13812149776E+00  0.47094509454E-01 0.  0.
         14    1    1    2    0    0  0.55351446263E-02  0.49363885417E-02  0.12342205677E-01  0.14399159658E-01  0.00000000000E+00 0. -1.
     999901    1    3    3    0    0 -0.25258183785E-01  0.15534467229E-01 -0.13903711921E+00  0.89140934258E+00  0.88000000000E+00 0.  1.
        -11    1    4    4    0    0  0.29982706682E-02 -0.32090314120E-01  0.56697282076E-01  0.65219788432E-01  0.51100000000E-03 0.  1.
         11    1    4    4    0    0  0.16724768491E-01  0.11619458349E-01  0.69997631453E-01  0.72901709331E-01  0.51100000000E-03 0. -1.
</event>
<event>
 8    1  0.2091070E+004  0.1043930E+01  0.7957747E-01            NaN
         13   -1    0    0    0    0  0.00000000000E+00  0.00000000000E+00  0.74505805969E-08  0.10566000000E+00  0.10566000000E+00 0. -1.
     999900   -1    0    0    0    0 -0.00000000000E+00 -0.00000000000E+00 -0.74505805969E-08  0.93827000000E+00  0.93827000000E+00 0.  1.
     999902    2    1    2    0    0 -0.19793985786E-03 -0.93247657332E-02  0.94436239384E-02  0.10306570023E+01  0.10305715326E+01 0.  0.
     999903    2    3    3    0    0  0.10855623841E+00  0.23089703121E-01  0.74017684647E-01  0.14102338193E+00  0.45731666538E-01 0.  0.
         14    1    1    2    0    0  0.19793985786E-03  0.93247657332E-02 -0.94436239384E-02  0.13272997749E-01  0.00000000000E+00 0.  1.
     999901    1    3    3    0    0 -0.10875417826E+00 -0.32414468854E-01 -0.64574060709E-01  0.88963362032E+00  0.88000000000E+00 0.  1.
        -11    1    4    4    0    0  0.57119485813E-01  0.50148065356E-02  0.12251865368E-01  0.58635767839E-01  0.51100000000E-03 0.  1.
         11    1    4    4    0    0  0.51436752594E-01  0.18074896585E-01  0.61765819279E-01  0.82387614095E-01  0.51100000000E-03 0. -1.
</event>
<event>
 8    1  0.2091070E+004  0.1043930E+01  0.7957747E-01            NaN
         13   -1    0    0    0    0  0.00000000000E+00  0.00000000000E+00  0.74505805969E-08  0.10566000000E+00  0.10566000000E+00 0.  1.
     999900   -1    0    0    0    0 -0.00000000000E+00 -0.00000000000E+00 -0.74505805969E-08  0.93827000000E+00  0.93827000000E+00 0. -1.
     999902    2    1    2    0    0 -0.34888472092E-02  0.72580596091E-02  0.49100052620E-02  0.10344981584E+01  0.10344551610E+01 0.  0.
     999903    2    3    3    0    0  0.15552735874E-01 -0.12259477613E+00  0.56497971744E-01  0.14327110590E+00  0.45422706311E-01 0.  0.
         14    1    1    2    0    0  0.34888472092E-02 -0.72580596091E-02 -0.49100052620E-02  0.94318415918E-02  0.00000000000E+00 0.  1.
     999901    1    3    3    0    0 -0.19041583083E-01  0.12985283573E+00 -0.51587966482E-01  0.89122705251E+00  0.88000000000E+00 0. -1.
        -11    1    4    4    0    0 -0.69285793880E-02 -0.44022403714E-01  0.40022137853E-01  0.59899999002E-01  0.51100000000E-03 0.  1.
         11    1    4    4    0    0  0.22481315262E-01 -0.78572372411E-01  0.16475833891E-01  0.83371106899E-01  0.51100000000E-03 0. -1.
</event>
<event>
 8    1  0.2091070E+004  0.1043930E+01  0.7957747E-01            NaN
         13   -1    0    0    0    0  0.00000000000E+00  0.00000000000E+00  0.74505805969E-08  0.10566000000E+00  0.10566000000E+00 0.  1.
     999900   -1    0    0    0    0 -0.00000000000E+00 -0.00000000000E+00 -0.74505805969E-08  0.93827000000E+00  0.93827000000E+00 0.  1.
     999902    2    1    2    0    0  0.10104315379E-01  0.21799100727E-02 -0.54517185562E-02  0.10322436647E+01  0.10321775104E+01 0.  0.
     999903    2    3    3    0    0 -0.32962341525E-02 -0.69046791708E-01  0.11432382414E+00  0.14117745034E+00  0.45637825478E-01 0.  0.
         14    1    1    2    0    0 -0.10104315379E-01 -0.21799100727E-02  0.54517185562E-02  0.11686335286E-01  0.00000000000E+00 0. -1.
     999901    1    3    3    0    0  0.13400549531E-01  0.71226701781E-01 -0.11977554269E+00  0.89106621438E+00  0.88000000000E+00 0.  1.
        -11    1    4    4    0    0 -0.13314724008E-01 -0.33910963006E-02  0.82764240613E-02  0.16048106610E-01  0.51100000000E-03 0.  1.
         11    1    4    4    0    0  0.10018489855E-01 -0.65655695407E-01  0.10604740007E+00  0.12512934373E+00  0.51100000000E-03 0. -1.
</event>
<event>
 8    1  0.2091070E+004  0.1043930E+01  0.7957747E-01            NaN
         13   -1    0    0    0    0  0.00000000000E+00  0.00000000000E+00  0.74505805969E-08  0.10566000000E+00  0.10566000000E+00 0. -1.
     999900   -1    0    0    0    0 -0.00000000000E+00 -0.00000000000E+00 -0.74505805969E-08  0.93827000000E+00  0.93827000000E+00 0. -1.
     999902    2    1    2    0    0  0.12898388691E-02  0.91408334655E-02  0.90750758761E-02  0.10309849035E+01  0.10309036307E+01 0.  0.
     999903    2    3    3    0    0  0.88840953134E-01 -0.21576427640E-01  0.98663664942E-01  0.14158349637E+00  0.44194009577E-01 0.  0.
         14    1    1    2    0    0 -0.12898388691E-02 -0.91408334655E-02 -0.90750758761E-02  0.12945096481E-01  0.00000000000E+00 0.  1.
     999901    1    3    3    0    0 -0.87551114265E-01  0.30717261105E-01 -0.89588589066E-01  0.88940140714E+00  0.88000000000E+00 0. -1.
        -11    1    4    4    0    0  0.26848368499E-01 -0.32906633712E-02  0.61109613337E-01  0.66830452039E-01  0.51100000000E-03 0. -1.
         11    1    4    4    0    0  0.61992584635E-01 -0.18285764269E-01  0.37554051605E-01  0.74753044336E-01  0.51100000000E-03 0.  1.
</event>
<event>
 8    1  0.2091070E+004  0.1043930E+01  0.7957747E-01            NaN
         13   -1    0    0    0    0  0.00000000000E+00  0.00000000000E+00  0.74505805969E-08  0.10566000000E+00  0.10566000000E+00 0.  1.
     999900   -1    0    0    0    0 -0.00000000000E+00 -0.00000000000E+00 -0.74505805969E-08  0.93827000000E+00  0.93827000000E+00 0.  1.
     999902    2    1    2    0    0  0.10977750836E-01 -0.65744367052E-02 -0.61333491959E-02  0.10297401373E+01  0.10296423642E+01 0.  0.
     999903    2    3    3    0    0 -0.58344715579E-01  0.11510406413E+00  0.21967074605E-01  0.13822407140E+00  0.44387950326E-01 0.  0.
         14    1    1    2    0    0 -0.10977750836E-01  0.65744367052E-02  0.61333491959E-02  0.14189862711E-01  0.00000000000E+00 0. -1.
     999901    1    3    3    0    0  0.69322466415E-01 -0.12167850083E+00 -0.28100423800E-01  0.89151606589E+00  0.88000000000E+00 0. -1.
        -11    1    4    4    0    0 -0.25982606231E-01  0.79104385652E-01 -0.38640135324E-02  0.83353412513E-01  0.51100000000E-03 0. -1.
         11    1    4    4    0    0 -0.32362109348E-01  0.35999678474E-01  0.25831088137E-01  0.54870658890E-01  0.51100000000E-03 0.  1.
</event>
<event>
 8    1  0.2091070E+004  0.1043930E+01  0.7957747E-01            NaN
         13   -1    0    0    0    0  0.00000000000E+00  0.00000000000E+00  0.74505805969E-08  0.10566000000E+00  0.10566000000E+00 0.  1.
     999900   -1    0    0    0    0 -0.00000000000E+00 -0.00000000000E+00 -0.74505805969E-08  0.93827000000E+00  0.93827000000E+00 0. -1.
     999902    2    1    2    0    0 -0.10967341501E-01 -0.87556039745E-02  0.29769879693E-02  0.10295840724E+01  0.10294841216E+01 0.  0.
     999903    2    3    3    0    0  0.56039314366E-01  0.41368022358E-01  0.11175064871E+00  0.13894723335E+00  0.44344200763E-01 0.  0.
         14    1    1    2    0    0  0.10967341501E-01  0.87556039745E-02 -0.29769879693E-02  0.14345927573E-01  0.00000000000E+00 0.  1.
     999901    1    3    3    0    0 -0.67006655867E-01 -0.50123626333E-01 -0.10877366074E+00  0.89063683908E+00  0.88000000000E+00 0. -1.
        -11    1    4    4    0    0  0.19279284521E-01 -0.61958790943E-02  0.15672363253E-01  0.25611790651E-01  0.51100000000E-03 0.  1.
         11    1    4    4    0    0  0.36760029845E-01  0.47563901453E-01  0.96078285454E-01  0.11333544270E+00  0.51100000000E-03 0. -1.
</event>
<event>
 8    1  0.2091070E+004  0.1043930E+01  0.7957747E-01            NaN
         13   -1    0    0    0    0  0.00000000000E+00  0.00000000000E+00  0.74505805969E-08  0.10566000000E+00  0.10566000000E+00 0.  1.
     999900   -1    0    0    0    0 -0.00000000000E+00 -0.00000000000E+00 -0.74505805969E-08  0.93827000000E+00  0.93827000000E+00 0. -1.
     999902    2    1    2    0    0  0.25980310858E-02  0.34556048824E-02 -0.12979666562E-01  0.10302492575E+01  0.10301584198E+01 0.  0.
     999903    2    3    3    0    0 -0.85077902167E-01 -0.10109086451E+00 -0.56034599493E-02  0.13970367084E+00  0.45034481894E-01 0.  0.
         14    1    1    2    0    0 -0.25980310858E-02 -0.34556048824E-02  0.12979666562E-01  0.13680742475E-01  0.00000000000E+00 0.  1.
     999901    1    3    3    0    0  0.87675933253E-01  0.10454646939E+00 -0.73762066122E-02  0.89054558668E+00  0.88000000000E+00 0.  1.
        -11    1    4    4    0    0 -0.19427147186E-01 -0.43214521364E-01  0.15167354046E-01  0.49751569365E-01  0.51100000000E-03 0. -1.
         11    1    4    4    0    0 -0.65650754981E-01 -0.57876343144E-01 -0.20770813996E-01  0.89952101478E-01  0.51100000000E-03 0.  1.
</event>
<event>
 7    1  0.2091070E+004  0.1043930E+01  0.7957747E-01            NaN
         13   -1    0    0    0    0  0.00000000000E+00  0.00000000000E+00  0.74505805969E-08  0.10566000000E+00  0.10566000000E+00 0.  1.
     999900   -1    0    0    0    0 -0.00000000000E+00 -0.00000000000E+00 -0.74505805969E-08  0.93827000000E+00  0.93827000000E+00 0.  1.
     999902    2    1    2    0    0 -0.35266649376E-02 -0.21319162472E-02 -0.12986019104E-01  0.10303057890E+01  0.10302157055E+01 0.  0.
         14    1    1    2    0    0  0.35266649376E-02  0.21319162472E-02  0.12986019104E-01  0.13624210973E-01  0.00000000000E+00 0.  1.
     999901    1    3    3    0    0  0.18874283515E-02  0.18373172053E-01  0.12420159545E+00  0.88891347844E+00  0.88000000000E+00 0. -1.
        -11    1    3    3    0    0 -0.10306645529E-01 -0.20352332234E-01 -0.62374587502E-01  0.66417577918E-01  0.51100000000E-03 0.  1.
         11    1    3    3    0    0  0.48925522400E-02 -0.15275606657E-03 -0.74813027050E-01  0.74974732672E-01  0.51100000000E-03 0. -1.
</event>
<event>
 8    1  0.2091070E+004  0.1043930E+01  0.7957747E-01            NaN
         13   -1    0    0    0    0  0.00000000000E+00  0.00000000000E+00  0.74505805969E-08  0.10566000000E+00  0.10566000000E+00 0.  1.
     999900   -1    0    0    0    0 -0.00000000000E+00 -0.00000000000E+00 -0.74505805969E-08  0.93827000000E+00  0.93827000000E+00 0.  1.
     999902    2    1    2    0    0  0.11533309799E-01 -0.57502741343E-02 -0.39554105056E-02  0.10304493413E+01  0.10303611584E+01 0.  0.
     999903    2    3    3    0    0 -0.92205075146E-01  0.53179914809E-01 -0.76220556896E-01  0.13946299398E+00  0.48067391997E-01 0.  0.
         14    1    1    2    0    0 -0.11533309799E-01  0.57502741343E-02  0.39554105056E-02  0.13480658731E-01  0.00000000000E+00 0. -1.
     999901    1    3    3    0    0  0.10373838495E+00 -0.58930188944E-01  0.72265146390E-01  0.89098634729E+00  0.88000000000E+00 0. -1.
        -11    1    4    4    0    0 -0.87861303465E-01  0.32725536225E-01 -0.51120984192E-01  0.10679038118E+00  0.51100000000E-03 0. -1.
         11    1    4    4    0    0 -0.43437716809E-02  0.20454378585E-01 -0.25099572704E-01  0.32672612791E-01  0.51100000000E-03 0.  1.
</event>
<event>
 8    1  0.2091070E+004  0.1043930E+01  0.7957747E-01            NaN
         13   -1    0    0    0    0  0.00000000000E+00  0.00000000000E+00  0.74505805969E-08  0.10566000000E+00  0.10566000000E+00 0.  1.
     999900   -1    0    0    0    0 -0.00000000000E+00 -0.00000000000E+00 -0.74505805969E-08  0.93827000000E+00  0.93827000000E+00 0.  1.
     999902    2    1    2    0    0 -0.85382758417E-02  0.88565829905E-02 -0.70833536958E-02  0.10297343980E+01  0.10296365452E+01 0.  0.
     999903    2    3    3    0    0 -0.27487188614E-01  0.21169707123E-01  0.12720922543E+00  0.13925970935E+00  0.44803767425E-01 0.  0.
         14    1    1    2    0    0  0.85382758417E-02 -0.88565829905E-02  0.70833536958E-02  0.14195602002E-01  0.00000000000E+00 0.  1.
     999901    1    3    3    0    0  0.18948912773E-01 -0.12313124132E-01 -0.13429257912E+00  0.89047468865E+00  0.88000000000E+00 0.  1.
        -11    1    4    4    0    0 -0.37182493258E-01  0.22474758312E-01  0.79931793741E-01  0.90978048659E-01  0.51100000000E-03 0.  1.
         11    1    4    4    0    0  0.96953046441E-02 -0.13050511895E-02  0.47277431688E-01  0.48281660688E-01  0.51100000000E-03 0. -1.
</event>
<event>
 8    1  0.2091070E+004  0.1043930E+01  0.7957747E-01            NaN
         13   -1    0    0    0    0  0.00000000000E+00  0.00000000000E+00  0.74505805969E-08  0.10566000000E+00  0.10566000000E+00 0. -1.
     999900   -1    0    0    0    0 -0.00000000000E+00 -0.00000000000E+00 -0.74505805969E-08  0.93827000000E+00  0.93827000000E+00 0.  1.
     999902    2    1    2    0    0 -0.13325179555E-01  0.18873596752E-02  0.78578458275E-03  0.10304489023E+01  0.10303607137E+01 0.  0.
     999903    2    3    3    0    0  0.43105289766E-01  0.17564728798E-01  0.12422183078E+00  0.13990601439E+00  0.44452715525E-01 0.  0.
         14    1    1    2    0    0  0.13325179555E-01 -0.18873596752E-02 -0.78578458275E-03  0.13481097661E-01  0.00000000000E+00 0. -1.
     999901    1    3    3    0    0 -0.56430469321E-01 -0.15677369122E-01 -0.12343604620E+00  0.89054288795E+00  0.88000000000E+00 0.  1.
        -11    1    4    4    0    0  0.45143497913E-01  0.12844419640E-01  0.63499788754E-01  0.78964541489E-01  0.51100000000E-03 0.  1.
         11    1    4    4    0    0 -0.20382081470E-02  0.47203091575E-02  0.60722042026E-01  0.60941472904E-01  0.51100000000E-03 0. -1.
</event>
<event>
 8    1  0.2091070E+004  0.1043930E+01  0.7957747E-01            NaN
         13   -1    0    0    0    0  0.00000000000E+00  0.00000000000E+00  0.74505805969E-08  0.10566000000E+00  0.10566000000E+00 0.  1.
     999900   -1    0    0    0    0 -0.00000000000E+00 -0.00000000000E+00 -0.74505805969E-08  0.93827000000E+00  0.93827000000E+00 0.  1.
     999902    2    1    2    0    0 -0.11457600865E-01  0.68743835178E-02  0.48127925856E-02  0.10297280023E+01  0.10296300607E+01 0.  0.
     999903    2    3    3    0    0 -0.35616673914E-02  0.13161515121E+00 -0.20048202166E-01  0.14054822635E+00  0.44907015241E-01 0.  0.
         14    1    1    2    0    0  0.11457600865E-01 -0.68743835178E-02 -0.48127925856E-02  0.14201997705E-01  0.00000000000E+00 0. -1.
     999901    1    3    3    0    0 -0.78959334737E-02 -0.12474076769E+00  0.24860994751E-01  0.88917977594E+00  0.88000000000E+00 0.  1.
        -11    1    4    4    0    0  0.16811181873E-01  0.99459552281E-01 -0.17641066935E-01  0.10240257194E+00  0.51100000000E-03 0.  1.
         11    1    4    4    0    0 -0.20372849264E-01  0.32155598928E-01 -0.24071352305E-02  0.38145654412E-01  0.51100000000E-03 0. -1.
</event>
<event>
 8    1  0.2091070E+004  0.1043930E+01  0.7957747E-01            NaN
         13   -1    0    0    0    0  0.00000000000E+00  0.00000000000E+00  0.74505805969E-08  0.10566000000E+00  0.10566000000E+00 0.  1.
     999900   -1    0    0    0    0 -0.00000000000E+00 -0.00000000000E+00 -0.74505805969E-08  0.93827000000E+00  0.93827000000E+00 0.  1.
     999902    2    1    2    0    0  0.12851659282E-01  0.50304345037E-02 -0.11920044087E-02  0.10300775168E+01  0.10299843684E+01 0.  0.
     999903    2    3    3    0    0 -0.28856740501E-01 -0.10116292562E+00 -0.79578150532E-01  0.13925710373E+00  0.44645379451E-01 0.  0.
         14    1    1    2    0    0 -0.12851659282E-01 -0.50304345037E-02  0.11920044087E-02  0.13852483247E-01  0.00000000000E+00 0.  1.
     999901    1    3    3    0    0  0.41708399783E-01  0.10619336012E+00  0.78386146123E-01  0.89082041302E+00  0.88000000000E+00 0. -1.
        -11    1    4    4    0    0 -0.30391996078E-01 -0.45514386386E-01 -0.21491627412E-01  0.58799523497E-01  0.51100000000E-03 0. -1.
         11    1    4    4    0    0  0.15352555776E-02 -0.55648539233E-01 -0.58086523120E-01  0.80457580237E-01  0.51100000000E-03 0.  1.
</event>
<event>
 8    1  0.2091070E+004  0.1043930E+01  0.7957747E-01            NaN
         13   -1    0    0    0    0  0.00000000000E+00  0.00000000000E+00  0.74505805969E-08  0.10566000000E+00  0.10566000000E+00 0. -1.
     999900   -1    0    0    0    0 -0.00000000000E+00 -0.00000000000E+00 -0.74505805969E-08  0.93827000000E+00  0.93827000000E+00 0.  1.
     999902    2    1    2    0    0 -0.11343375946E-01  0.24110855502E-02  0.73618134608E-02  0.10301938503E+01  0.10301022703E+01 0.  0.
     999903    2    3    3    0    0 -0.51220359270E-01  0.15320841881E-01  0.12319103047E+00  0.14161451049E+00  0.44948706255E-01 0.  0.
         14    1    1    2    0    0  0.11343375946E-01 -0.24110855502E-02 -0.73618134608E-02  0.13736149708E-01  0.00000000000E+00 0.  1.
     999901    1    3    3    0    0  0.39876983324E-01 -0.12909756331E-01 -0.11582921701E+00  0.88857933980E+00  0.88000000000E+00 0.  1.
        -11    1    4    4    0    0 -0.57736603429E-01  0.20701269466E-01  0.10655723758E+00  0.12295024984E+00  0.51100000000E-03 0.  1.
         11    1    4    4    0    0  0.65162441595E-02 -0.53804275848E-02  0.16633792884E-01  0.18664260651E-01  0.51100000000E-03 0. -1.
</event>
<event>
 8    1  0.2091070E+004  0.1043930E+01  0.7957747E-01            NaN
         13   -1    0    0    0    0  0.00000000000E+00  0.00000000000E+00  0.74505805969E-08  0.10566000000E+00  0.10566000000E+00 0.  1.
     999900   -1    0    0    0    0 -0.00000000000E+00 -0.00000000000E+00 -0.74505805969E-08  0.93827000000E+00  0.93827000000E+00 0.  1.
     999902    2    1    2    0    0 -0.30773601137E-03  0.15136320171E-01 -0.36191893491E-02  0.10283639658E+01  0.10282461499E+01 0.  0.
     999903    2    3    3    0    0  0.94172690526E-01  0.59079879257E-01  0.70254042194E-01  0.13914248509E+00  0.45454075048E-01 0.  0.
         14    1    1    2    0    0  0.30773601137E-03 -0.15136320171E-01  0.36191893491E-02  0.15566034219E-01  0.00000000000E+00 0. -1.
     999901    1    3    3    0    0 -0.94480426537E-01 -0.43943559086E-01 -0.73873231543E-01  0.88922148069E+00  0.88000000000E+00 0.  1.
        -11    1    4    4    0    0  0.64117163559E-01  0.16850511496E-01  0.26822111261E-01  0.71516691577E-01  0.51100000000E-03 0. -1.
         11    1    4    4    0    0  0.30055526967E-01  0.42229367761E-01  0.43431930933E-01  0.67625793513E-01  0.51100000000E-03 0.  1.
</event>
<event>
 8    1  0.2091070E+004  0.1043930E+01  0.7957747E-01            NaN
         13   -1    0    0    0    0  0.00000000000E+00  0.00000000000E+00  0.74505805969E-08  0.10566000000E+00  0.10566000000E+00 0.  1.
     999900   -1    0    0    0    0 -0.00000000000E+00 -0.00000000000E+00 -0.74505805969E-08  0.93827000000E+00  0.93827000000E+00 0.  1.
     999902    2    1    2    0    0  0.59867156496E-02  0.10701121858E-02 -0.18747931979E-01  0.10242203359E+01  0.10240306761E+01 0.  0.
     999903    2    3    3    0    0  0.18673973643E-01 -0.12577587572E+00 -0.47835551927E-02  0.13492517965E+00  0.44873527821E-01 0.  0.
         14    1    1    2    0    0 -0.59867156496E-02 -0.10701121858E-02  0.18747931979E-01  0.19709664072E-01  0.00000000000E+00 0.  1.
     999901    1    3    3    0    0 -0.12687257993E-01  0.12684598790E+00 -0.13964376786E-01  0.88929515628E+00  0.88000000000E+00 0.  1.
        -11    1    4    4    0    0  0.24470964717E-01 -0.31142187428E-01 -0.62597184457E-02  0.40101236240E-01  0.51100000000E-03 0. -1.
         11    1    4    4    0    0 -0.57969910741E-02 -0.94633688289E-01  0.14761632530E-02  0.94823943409E-01  0.51100000000E-03 0.  1.
</event>
<event>
 8    1  0.2091070E+004  0.1043930E+01  0.7957747E-01            NaN
         13   -1    0    0    0    0  0.00000000000E+00  0.00000000000E+00  0.74505805969E-08  0.10566000000E+00  0.10566000000E+00 0.  1.
     999900   -1    0    0    0    0 -0.00000000000E+00 -0.00000000000E+00 -0.74505805969E-08  0.93827000000E+00  0.93827000000E+00 0. -1.
     999902    2    1    2    0    0 -0.92869063261E-02  0.92378680402E-02  0.18419063834E-02  0.10307020956E+01  0.10306172095E+01 0.  0.
     999903    2    3    3    0    0  0.17110012708E-01  0.12887454487E+00  0.17027344184E-01  0.14208500750E+00  0.54743201008E-01 0.  0.
         14    1    1    2    0    0  0.92869063261E-02 -0.92378680402E-02 -0.18419063834E-02  0.13227904375E-01  0.00000000000E+00 0.  1.
     999901    1    3    3    0    0 -0.26396919034E-01 -0.11963667683E+00 -0.15185437801E-01  0.88861708812E+00  0.88000000000E+00 0.  1.
        -11    1    4    4    0    0  0.20432996785E-02  0.37871399420E-01  0.30747162402E-01  0.48826909429E-01  0.51100000000E-03 0.  1.
         11    1    4    4    0    0  0.15066713029E-01  0.91003145453E-01 -0.13719818218E-01  0.93258098076E-01  0.51100000000E-03 0. -1.
</event>
<event>
 8    1  0.2091070E+004  0.1043930E+01  0.7957747E-01            NaN
         13   -1    0    0    0    0  0.00000000000E+00  0.00000000000E+00  0.74505805969E-08  0.10566000000E+00  0.10566000000E+00 0. -1.
     999900   -1    0    0    0    0 -0.00000000000E+00 -0.00000000000E+00 -0.74505805969E-08  0.93827000000E+00  0.93827000000E+00 0.  1.
     999902    2    1    2    0    0  0.40498399065E-02  0.10282707126E-01  0.78177368572E-02  0.10303929295E+01  0.10303040021E+01 0.  0.
     999903    2    3    3    0    0 -0.78062862458E-01  0.10138166618E+00  0.41177288079E-01  0.14126168162E+00  0.43442386096E-01 0.  0.
         14    1    1    2    0    0 -0.40498399065E-02 -0.10282707126E-01 -0.78177368572E-02  0.13537070535E-01  0.00000000000E+00 0.  1.
     999901    1    3    3    0    0  0.82112702364E-01 -0.91098959051E-01 -0.33359551222E-01  0.88913124784E+00  0.88000000000E+00 0.  1.
        -11    1    4    4    0    0 -0.79923586413E-01  0.78183487816E-01  0.35405594864E-01  0.11727853470E+00  0.51100000000E-03 0. -1.
         11    1    4    4    0    0  0.18607239553E-02  0.23198178361E-01  0.57716932143E-02  0.23983146926E-01  0.51100000000E-03 0.  1.
</event>
<event>
 8    1  0.2091070E+004  0.1043930E+01  0.7957747E-01            NaN
         13   -1    0    0    0    0  0.00000000000E+00  0.00000000000E+00  0.74505805969E-08  0.10566000000E+00  0.10566000000E+00 0.  1.
     999900   -1    0    0    0    0 -0.00000000000E+00 -0.00000000000E+00 -0.74505805969E-08  0.93827000000E+00  0.93827000000E+00 0. -1.
     999902    2    1    2    0    0  0.10570928808E-01 -0.72658564627E-02 -0.51875710247E-02  0.10300935229E+01  0.10300005912E+01 0.  0.
     999903    2    3    3    0    0 -0.11745093616E-01 -0.69721853736E-01  0.11173882245E+00  0.13988537983E+00  0.45642862918E-01 0.  0.
         14    1    1    2    0    0 -0.10570928808E-01  0.72658564627E-02  0.51875710247E-02  0.13836477121E-01  0.00000000000E+00 0.  1.
     999901    1    3    3    0    0  0.22316022423E-01  0.62455997273E-01 -0.11692639348E+00  0.89020814305E+00  0.88000000000E+00 0. -1.
        -11    1    4    4    0    0 -0.15183233323E-01 -0.31705653693E-02  0.34762291534E-01  0.38069161963E-01  0.51100000000E-03 0.  1.
         11    1    4    4    0    0  0.34381397075E-02 -0.66551288366E-01  0.76976530920E-01  0.10181621787E+00  0.51100000000E-03 0. -1.
</event>
<event>
 8    1  0.2091070E+004  0.1043930E+01  0.7957747E-01            NaN
         13   -1    0    0    0    0  0.00000000000E+00  0.00000000000E+00  0.74505805969E-08  0.10566000000E+00  0.10566000000E+00 0. -1.
     999900   -1    0    0    0    0 -0.00000000000E+00 -0.00000000000E+00 -0.74505805969E-08  0.93827000000E+00  0.93827000000E+00 0.  1.
     999902    2    1    2    0    0 -0.20223560053E-02  0.92299349594E-02  0.95699654352E-02  0.10304813621E+01  0.10303936004E+01 0.  0.
     999903    2    3    3    0    0  0.13132910919E+00 -0.19056800823E-01 -0.18018149934E-02  0.13991296490E+00  0.44293279738E-01 0.  0.
         14    1    1    2    0    0  0.20223560053E-02 -0.92299349594E-02 -0.95699654352E-02  0.13448637909E-01  0.00000000000E+00 0.  1.
     999901    1    3    3    0    0 -0.13335146520E+00  0.28286735782E-01  0.11371780429E-01  0.89056839719E+00  0.88000000000E+00 0.  1.
        -11    1    4    4    0    0  0.28194222661E-01  0.13636501558E-01  0.39231530551E-02  0.31567714790E-01  0.51100000000E-03 0. -1.
         11    1    4    4    0    0  0.10313488653E+00 -0.32693302381E-01 -0.57249680485E-02  0.10834525011E+00  0.51100000000E-03 0.  1.
</event>
<event>
 8    1  0.2091070E+004  0.1043930E+01  0.7957747E-01            NaN
         13   -1    0    0    0    0  0.00000000000E+00  0.00000000000E+00  0.74505805969E-08  0.10566000000E+00  0.10566000000E+00 0.  1.
     999900   -1    0    0    0    0 -0.00000000000E+00 -0.00000000000E+00 -0.74505805969E-08  0.93827000000E+00  0.93827000000E+00 0. -1.
     999902    2    1    2    0    0 -0.63092803047E-02  0.10817360372E-01 -0.75021239738E-02  0.10293319122E+01  0.10292283912E+01 0.  0.
     999903    2    3    3    0    0  0.10621576072E+00  0.34383524109E-01  0.68392016901E-01  0.13861469021E+00  0.45525265626E-01 0.  0.
         14    1    1    2    0    0  0.63092803047E-02 -0.10817360372E-01  0.75021239738E-02  0.14598087803E-01  0.00000000000E+00 0.  1.
     999901    1    3    3    0    0 -0.11252504102E+00 -0.23566163738E-01 -0.75894140875E-01  0.89071722199E+00  0.88000000000E+00 0. -1.
        -11    1    4    4    0    0  0.76034675196E-01  0.44754333176E-01  0.44996999184E-01  0.99041472256E-01  0.51100000000E-03 0.  1.
         11    1    4    4    0    0  0.30181085523E-01 -0.10370809066E-01  0.23395017717E-01  0.39573217951E-01  0.51100000000E-03 0. -1.
</event>
<event>
 7    1  0.2091070E+004  0.1043930E+01  0.7957747E-01            NaN
         13   -1    0    0    0    0  0.00000000000E+00  0.00000000000E+00  0.74505805969E-08  0.10566000000E+00  0.10566000000E+00 0. -1.
     999900   -1    0    0    0    0 -0.00000000000E+00 -0.00000000000E+00 -0.74505805969E-08  0.93827000000E+00  0.93827000000E+00 0. -1.
     999903    2    1    2    0    0  0.37461998707E-01 -0.26512142265E-01 -0.11216392397E+00  0.12537817460E+00  0.32134806541E-01 0.  0.
         14    1    1    2    0    0  0.16109030694E-01  0.23857691145E-01  0.12214951894E-01  0.31271318272E-01  0.00000000000E+00 0. -1.
     999901    1    1    2    0    0 -0.53571029401E-01  0.26544511202E-02  0.99948972079E-01  0.88728050712E+00  0.88000000000E+00 0.  1.
        -11    1    3    3    0    0  0.20958783551E-01 -0.27831176912E-02 -0.21257291159E-01  0.29985828327E-01  0.51100000000E-03 0.  1.
         11    1    3    3    0    0  0.16503215156E-01 -0.23729024574E-01 -0.90906632814E-01  0.95392346278E-01  0.51100000000E-03 0. -1.
</event>
<event>
 8    1  0.2091070E+004  0.1043930E+01  0.7957747E-01            NaN
         13   -1    0    0    0    0  0.00000000000E+00  0.00000000000E+00  0.74505805969E-08  0.10566000000E+00  0.10566000000E+00 0. -1.
     999900   -1    0    0    0    0 -0.00000000000E+00 -0.00000000000E+00 -0.74505805969E-08  0.93827000000E+00  0.93827000000E+00 0.  1.
     999902    2    1    2    0    0  0.44306172004E-02  0.12734354356E-01 -0.28658431826E-02  0.10301456898E+01  0.10300534622E+01 0.  0.
     999903    2    3    3    0    0 -0.12655728357E+00  0.15570375574E-01  0.35233115722E-01  0.13963044357E+00  0.44677798828E-01 0.  0.
         14    1    1    2    0    0 -0.44306172004E-02 -0.12734354356E-01  0.28658431826E-02  0.13784310167E-01  0.00000000000E+00 0. -1.
     999901    1    3    3    0    0  0.13098790077E+00 -0.28360212187E-02 -0.38098958905E-01  0.89051524627E+00  0.88000000000E+00 0. -1.
        -11    1    4    4    0    0 -0.84894582399E-01  0.12230398886E-01  0.44774459758E-01  0.96755806778E-01  0.51100000000E-03 0.  1.
         11    1    4    4    0    0 -0.41662701167E-01  0.33399766880E-02 -0.95413440356E-02  0.42874636789E-01  0.51100000000E-03 0. -1.
</event>
<event>
 8    1  0.2091070E+004  0.1043930E+01  0.7957747E-01            NaN
         13   -1    0    0    0    0  0.00000000000E+00  0.00000000000E+00  0.74505805969E-08  0.10566000000E+00  0.10566000000E+00 0. -1.
     999900   -1    0    0    0    0 -0.00000000000E+00 -0.00000000000E+00 -0.74505805969E-08  0.93827000000E+00  0.93827000000E+00 0.  1.
     999902    2    1    2    0    0 -0.10231763167E-01 -0.86564346033E-04 -0.54946054729E-02  0.10323159068E+01  0.10322505725E+01 0.  0.
     999903    2    3    3    0    0  0.63561398774E-01 -0.16983592155E-01  0.11600843310E+00  0.14074766565E+00  0.44982830256E-01 0.  0.
         14    1    1    2    0    0  0.10231763167E-01  0.86564346033E-04  0.54946054729E-02  0.11614093172E-01  0.00000000000E+00 0. -1.
     999901    1    3    3    0    0 -0.73793161941E-01  0.16897027809E-01 -0.12150303858E+00  0.89156824118E+00  0.88000000000E+00 0.  1.
        -11    1    4    4    0    0  0.59568737906E-02 -0.68820587763E-02  0.56788417783E-01  0.57515498726E-01  0.51100000000E-03 0.  1.
         11    1    4    4    0    0  0.57604524983E-01 -0.10101533378E-01  0.59220015319E-01  0.83232166922E-01  0.51100000000E-03 0. -1.
</event>
<event>
 8    1  0.2091070E+004  0.1043930E+01  0.7957747E-01            NaN
         13   -1    0    0    0    0  0.00000000000E+00  0.00000000000E+00  0.74505805969E-08  0.10566000000E+00  0.10566000000E+00 0.  1.
     999900   -1    0    0    0    0 -0.00000000000E+00 -0.00000000000E+00 -0.74505805969E-08  0.93827000000E+00  0.93827000000E+00 0.  1.
     999902    2    1    2    0    0  0.65836123349E-02 -0.10680036243E-01 -0.58929570127E-02  0.10300687566E+01  0.10299754897E+01 0.  0.
     999903    2    3    3    0    0  0.77701284884E-01  0.73860452111E-01 -0.79063522102E-01  0.14014811459E+00  0.43561421445E-01 0.  0.
         14    1    1    2    0    0 -0.65836123349E-02  0.10680036243E-01  0.58929570127E-02  0.13861243374E-01  0.00000000000E+00 0.  1.
     999901    1    3    3    0    0 -0.71117672549E-01 -0.84540488354E-01  0.73170565089E-01  0.88992064203E+00  0.88000000000E+00 0.  1.
        -11    1    4    4    0    0  0.10301396248E-01  0.79346680203E-02 -0.32470417689E-01  0.34980950061E-01  0.51100000000E-03 0.  1.
         11    1    4    4    0    0  0.67399888635E-01  0.65925784091E-01 -0.46593104413E-01  0.10516716453E+00  0.51100000000E-03 0. -1.
</event>
<event>
 8    1  0.2091070E+004  0.1043930E+01  0.7957747E-01            NaN
         13   -1    0    0    0    0  0.00000000000E+00  0.00000000000E+00  0.74505805969E-08  0.10566000000E+00  0.10566000000E+00 0. -1.
     999900   -1    0    0    0    0 -0.00000000000E+00 -0.00000000000E+00 -0.74505805969E-08  0.93827000000E+00  0.93827000000E+00 0.  1.
     999902    2    1    2    0    0 -0.54069422102E-02  0.65441472952E-02  0.11081543429E-01  0.10299707202E+01  0.10298761202E+01 0.  0.
     999903    2    3    3    0    0  0.19777922698E-01  0.12939063924E+00  0.25994723608E-01  0.14095556794E+00  0.45383286875E-01 0.  0.
         14    1    1    2    0    0  0.54069422102E-02 -0.65441472952E-02 -0.11081543429E-01  0.13959279804E-01  0.00000000000E+00 0.  1.
     999901    1    3    3    0    0 -0.25184864908E-01 -0.12284649194E+00 -0.14913180179E-01  0.88901515226E+00  0.88000000000E+00 0.  1.
        -11    1    4    4    0    0  0.30432893567E-01  0.76943130041E-01  0.28119578223E-01  0.87392093875E-01  0.51100000000E-03 0.  1.
         11    1    4    4    0    0 -0.10654970869E-01  0.52447509199E-01 -0.21248546145E-02  0.53563474062E-01  0.51100000000E-03 0. -1.
</event>
<event>
 8    1  0.2091070E+004  0.1043930E+01  0.7957747E-01            NaN
         13   -1    0    0    0    0  0.00000000000E+00  0.00000000000E+00  0.74505805969E-08  0.10566000000E+00  0.10566000000E+00 0.  1.
     999900   -1    0    0    0    0 -0.00000000000E+00 -0.00000000000E+00 -0.74505805969E-08  0.93827000000E+00  0.93827000000E+00 0. -1.
     999902    2    1    2    0    0  0.21660491043E-02  0.59241716349E-02  0.12784068695E-01  0.10296744751E+01  0.10295757887E+01 0.  0.
     999903    2    3    3    0    0 -0.78610380809E-01 -0.59438831720E-02 -0.10357815528E+00  0.13826780609E+00  0.46632930779E-01 0.  0.
         14    1    1    2    0    0 -0.21660491043E-02 -0.59241716349E-02 -0.12784068695E-01  0.14255524917E-01  0.00000000000E+00 0. -1.
     999901    1    3    3    0    0  0.80776429913E-01  0.11868054807E-01  0.11636222397E+00  0.89140666899E+00  0.88000000000E+00 0.  1.
        -11    1    4    4    0    0 -0.21387663295E-01  0.24415138872E-03 -0.66361840032E-01  0.69725509568E-01  0.51100000000E-03 0. -1.
         11    1    4    4    0    0 -0.57222717514E-01 -0.61880345607E-02 -0.37216315243E-01  0.68542296524E-01  0.51100000000E-03 0.  1.
</event>
<event>
 8    1  0.2091070E+004  0.1043930E+01  0.7957747E-01            NaN
         13   -1    0    0    0    0  0.00000000000E+00  0.00000000000E+00  0.74505805969E-08  0.10566000000E+00  0.10566000000E+00 0.  1.
     999900   -1    0    0    0    0 -0.00000000000E+00 -0.00000000000E+00 -0.74505805969E-08  0.93827000000E+00  0.93827000000E+00 0. -1.
     999902    2    1    2    0    0 -0.46858174201E-02  0.14098401122E-01  0.40139628718E-02  0.10285405979E+01  0.10284254605E+01 0.  0.
     999903    2    3    3    0    0  0.58616881318E-01  0.54771623167E-01 -0.10386936158E+00  0.13876514625E+00  0.45067194938E-01 0.  0.
         14    1    1    2    0    0  0.46858174201E-02 -0.14098401122E-01 -0.40139628718E-02  0.15389402101E-01  0.00000000000E+00 0. -1.
     999901    1    3    3    0    0 -0.63302698738E-01 -0.40673222045E-01  0.10788332445E+00  0.88977545165E+00  0.88000000000E+00 0.  1.
        -11    1    4    4    0    0  0.60427441444E-02  0.20305806174E-02 -0.40440859185E-01  0.40943402729E-01  0.51100000000E-03 0.  1.
         11    1    4    4    0    0  0.52574137174E-01  0.52741042550E-01 -0.63428502394E-01  0.97821743522E-01  0.51100000000E-03 0. -1.
</event>
<event>
 8    1  0.2091070E+004  0.1043930E+01  0.7957747E-01            NaN
         13   -1    0    0    0    0  0.00000000000E+00  0.00000000000E+00  0.74505805969E-08  0.10566000000E+00  0.10566000000E+00 0. -1.
     999900   -1    0    0    0    0 -0.00000000000E+00 -0.00000000000E+00 -0.74505805969E-08  0.93827000000E+00  0.93827000000E+00 0.  1.
     999902    2    1    2    0    0 -0.22123182668E-02 -0.15588651210E-01  0.36170283270E-02  0.10277750227E+01  0.10276480496E+01 0.  0.
     999903    2    3    3    0    0 -0.68433344630E-02 -0.10594655413E+00  0.78376180299E-01  0.13998285795E+00  0.46699800037E-01 0.  0.
         14    1    1    2    0    0  0.22123182668E-02  0.15588651210E-01 -0.36170283270E-02  0.16154977331E-01  0.00000000000E+00 0.  1.
     999901    1    3    3    0    0  0.46310161962E-02  0.90357902920E-01 -0.74759151972E-01  0.88779216472E+00  0.88000000000E+00 0.  1.
        -11    1    4    4    0    0  0.17682786117E-01 -0.21577323662E-01  0.15286533529E-01  0.31815107254E-01  0.51100000000E-03 0.  1.
         11    1    4    4    0    0 -0.24526120580E-01 -0.84369230467E-01  0.63089646769E-01  0.10816775070E+00  0.51100000000E-03 0. -1.
</event>
<event>
 8    1  0.2091070E+004  0.1043930E+01  0.7957747E-01            NaN
         13   -1    0    0    0    0  0.00000000000E+00  0.00000000000E+00  0.74505805969E-08  0.10566000000E+00  0.10566000000E+00 0.  1.
     999900   -1    0    0    0    0 -0.00000000000E+00 -0.00000000000E+00 -0.74505805969E-08  0.93827000000E+00  0.93827000000E+00 0.  1.
     999902    2    1    2    0    0 -0.29136130894E-03  0.12917502449E-02  0.13687454019E-01  0.10301786398E+01  0.10300868555E+01 0.  0.
     999903    2    3    3    0    0 -0.92209186519E-01  0.58300608377E-01  0.77613837642E-01  0.14125486408E+00  0.45028144724E-01 0.  0.
         14    1    1    2    0    0  0.29136130894E-03 -0.12917502449E-02 -0.13687454019E-01  0.13751360210E-01  0.00000000000E+00 0. -1.
     999901    1    3    3    0    0  0.91917825211E-01 -0.57008858132E-01 -0.63926383623E-01  0.88892377571E+00  0.88000000000E+00 0.  1.
        -11    1    4    4    0    0 -0.87801756643E-01  0.44456297023E-01  0.50800804054E-01  0.11075420366E+00  0.51100000000E-03 0.  1.
         11    1    4    4    0    0 -0.44074298764E-02  0.13844311354E-01  0.26813033588E-01  0.30500660422E-01  0.51100000000E-03 0. -1.
</event>
<event>
 8    1  0.2091070E+004  0.1043930E+01  0.7957747E-01            NaN
         13   -1    0    0    0    0  0.00000000000E+00  0.00000000000E+00  0.74505805969E-08  0.10566000000E+00  0.10566000000E+00 0. -1.
     999900   -1    0    0    0    0 -0.00000000000E+00 -0.00000000000E+00 -0.74505805969E-08  0.93827000000E+00  0.93827000000E+00 0.  1.
     999902    2    1    2    0    0 -0.27627926915E-03 -0.27114375516E-02  0.12829985378E-01  0.10308137220E+01  0.10307302716E+01 0.  0.
     999903    2    3    3    0    0  0.41027105673E-01  0.23316961775E-01 -0.12298656649E+00  0.13905726257E+00  0.44545736384E-01 0.  0.
         14    1    1    2    0    0  0.27627926915E-03  0.27114375516E-02 -0.12829985378E-01  0.13116278002E-01  0.00000000000E+00 0.  1.
     999901    1    3    3    0    0 -0.41303384942E-01 -0.26028399326E-01  0.13581655186E+00  0.89175645943E+00  0.88000000000E+00 0. -1.
        -11    1    4    4    0    0  0.35811054320E-01  0.31976706139E-01 -0.68575140028E-01  0.83712318674E-01  0.51100000000E-03 0.  1.
         11    1    4    4    0    0  0.52160513528E-02 -0.86597443638E-02 -0.54411426457E-01  0.55344943891E-01  0.51100000000E-03 0. -1.
</event>
<event>
 8    1  0.2091070E+004  0.1043930E+01  0.7957747E-01            NaN
         13   -1    0    0    0    0  0.00000000000E+00  0.00000000000E+00  0.74505805969E-08  0.10566000000E+00  0.10566000000E+00 0.  1.
     999900   -1    0    0    0    0 -0.00000000000E+00 -0.00000000000E+00 -0.74505805969E-08  0.93827000000E+00  0.93827000000E+00 0. -1.
     999902    2    1    2    0    0  0.61452874692E-02  0.11527484148E-01 -0.74151528113E-02  0.10289089501E+01  0.10287992980E+01 0.  0.
     999903    2    3    3    0    0 -0.27858357187E-01  0.90528936627E-01  0.91281576734E-01  0.13922444323E+00  0.45602005543E-01 0.  0.
         14    1    1    2    0    0 -0.61452874692E-02 -0.11527484148E-01  0.74151528113E-02  0.15021049899E-01  0.00000000000E+00 0. -1.
     999901    1    3    3    0    0  0.34003644656E-01 -0.79001452478E-01 -0.98696729546E-01  0.88968450687E+00  0.88000000000E+00 0.  1.
        -11    1    4    4    0    0 -0.14598124632E-01  0.52414067191E-01  0.21285566155E-01  0.58426673103E-01  0.51100000000E-03 0.  1.
         11    1    4    4    0    0 -0.13260232555E-01  0.38114869436E-01  0.69996010579E-01  0.80797770127E-01  0.51100000000E-03 0. -1.
</event>
<event>
 8    1  0.2091070E+004  0.1043930E+01  0.7957747E-01            NaN
         13   -1    0    0    0    0  0.00000000000E+00  0.00000000000E+00  0.74505805969E-08  0.10566000000E+00  0.10566000000E+00 0.  1.
     999900   -1    0    0    0    0 -0.00000000000E+00 -0.00000000000E+00 -0.74505805969E-08  0.93827000000E+00  0.93827000000E+00 0. -1.
     999902    2    1    2    0    0 -0.38794983368E-02  0.88599829562E-02  0.91757676313E-02  0.10305979140E+01  0.10305116767E+01 0.  0.
     999903    2    3    3    0    0  0.15775313116E-02  0.28999321993E-01 -0.12835018840E+00  0.13967212544E+00  0.46809000006E-01 0.  0.
         14    1    1    2    0    0  0.38794983368E-02 -0.88599829562E-02 -0.91757676313E-02  0.13332085994E-01  0.00000000000E+00 0. -1.
     999901    1    3    3    0    0 -0.54570296484E-02 -0.20139339037E-01  0.13752595603E+00  0.89092578857E+00  0.88000000000E+00 0.  1.
        -11    1    4    4    0    0  0.19709152482E-01  0.20748682590E-01 -0.10568717323E+00  0.10949428399E+00  0.51100000000E-03 0.  1.
         11    1    4    4    0    0 -0.18131621170E-01  0.82506394036E-02 -0.22663015171E-01  0.30177841448E-01  0.51100000000E-03 0. -1.
</event>
<event>
 8    1  0.2091070E+004  0.1043930E+01  0.7957747E-01            NaN
         13   -1    0    0    0    0  0.00000000000E+00  0.00000000000E+00  0.74505805969E-08  0.10566000000E+00  0.10566000000E+00 0. -1.
     999900   -1    0    0    0    0 -0.00000000000E+00 -0.00000000000E+00 -0.74505805969E-08  0.93827000000E+00  0.93827000000E+00 0.  1.
     999902    2    1    2    0    0  0.19182027493E-01  0.18118325139E-01 -0.10566624101E-01  0.10155068153E+01  0.10151089668E+01 0.  0.
     999903    2    3    3    0    0 -0.66355005854E-01  0.63296785721E-01 -0.76119191439E-01  0.12778229920E+00  0.46094628738E-01 0.  0.
         14    1    1    2    0    0 -0.19182027493E-01 -0.18118325139E-01  0.10566624101E-01  0.28423184717E-01  0.00000000000E+00 0.  1.
     999901    1    3    3    0    0  0.85537033346E-01 -0.45178460582E-01  0.65552567338E-01  0.88772451609E+00  0.88000000000E+00 0.  1.
        -11    1    4    4    0    0 -0.58050145522E-02  0.34909748865E-01 -0.21285495021E-01  0.41300389575E-01  0.51100000000E-03 0.  1.
         11    1    4    4    0    0 -0.60549991301E-01  0.28387036856E-01 -0.54833696418E-01  0.86481909622E-01  0.51100000000E-03 0. -1.
</event>
<event>
 8    1  0.2091070E+004  0.1043930E+01  0.7957747E-01            NaN
         13   -1    0    0    0    0  0.00000000000E+00  0.00000000000E+00  0.74505805969E-08  0.10566000000E+00  0.10566000000E+00 0. -1.
     999900   -1    0    0    0    0 -0.00000000000E+00 -0.00000000000E+00 -0.74505805969E-08  0.93827000000E+00  0.93827000000E+00 0. -1.
     999902    2    1    2    0    0 -0.72728619708E-02 -0.11769762530E-01  0.22473809925E-02  0.10299131333E+01  0.10298177458E+01 0.  0.
     999903    2    3    3    0    0  0.29516167504E-01 -0.95940756407E-01 -0.87887394795E-01  0.14055242653E+00  0.44214901976E-01 0.  0.
         14    1    1    2    0    0  0.72728619708E-02  0.11769762530E-01 -0.22473809925E-02  0.14016866718E-01  0.00000000000E+00 0. -1.
     999901    1    3    3    0    0 -0.36789029474E-01  0.84170993877E-01  0.90134775788E-01  0.88936070675E+00  0.88000000000E+00 0. -1.
        -11    1    4    4    0    0  0.70487410885E-03 -0.33461466245E-01 -0.67092089045E-02  0.34138558492E-01  0.51100000000E-03 0.  1.
         11    1    4    4    0    0  0.28811293395E-01 -0.62479290162E-01 -0.81178185891E-01  0.10641386804E+00  0.51100000000E-03 0. -1.
</event>
<event>
 8    1  0.2091070E+004  0.1043930E+01  0.7957747E-01            NaN
         13   -1    0    0    0    0  0.00000000000E+00  0.00000000000E+00  0.74505805969E-08  0.10566000000E+00  0.10566000000E+00 0. -1.
     999900   -1    0    0    0    0 -0.00000000000E+00 -0.00000000000E+00 -0.74505805969E-08  0.93827000000E+00  0.93827000000E+00 0. -1.
     999902    2    1    2    0    0 -0.41909189242E-02  0.14018628880E-01 -0.67683771931E-02  0.10278086884E+01  0.10276822482E+01 0.  0.
     999903    2    3    3    0    0 -0.28949499525E-01 -0.10234436197E+00 -0.74061161769E-01  0.13725736940E+00  0.45189465842E-01 0.  0.
         14    1    1    2    0    0  0.41909189242E-02 -0.14018628880E-01  0.67683771931E-02  0.16121311576E-01  0.00000000000E+00 0. -1.
     999901    1    3    3    0    0  0.24758580600E-01  0.11636299085E+00  0.67292784576E-01  0.89055131902E+00  0.88000000000E+00 0.  1.
        -11    1    4    4    0    0 -0.28193158472E-01 -0.35551873868E-01 -0.46573391330E-01  0.65024086469E-01  0.51100000000E-03 0. -1.
         11    1    4    4    0    0 -0.75634105239E-03 -0.66792488103E-01 -0.27487770439E-01  0.72233282935E-01  0.51100000000E-03 0.  1.
</event>
<event>
 8    1  0.2091070E+004  0.1043930E+01  0.7957747E-01            NaN
         13   -1    0    0    0    0  0.00000000000E+00  0.00000000000E+00  0.74505805969E-08  0.10566000000E+00  0.10566000000E+00 0. -1.
     999900   -1    0    0    0    0 -0.00000000000E+00 -0.00000000000E+00 -0.74505805969E-08  0.93827000000E+00  0.93827000000E+00 0. -1.
     999902    2    1    2    0    0 -0.10225425053E-01 -0.39941152602E-02  0.83814749347E-02  0.10301183601E+01  0.10300257640E+01 0.  0.
     999903    2    3    3    0    0  0.70354755359E-01  0.73889184481E-01 -0.81816477452E-01  0.13843756271E+00  0.45405061397E-01 0.  0.
         14    1    1    2    0    0  0.10225425053E-01  0.39941152602E-02 -0.83814749347E-02  0.13811639885E-01  0.00000000000E+00 0.  1.
     999901    1    3    3    0    0 -0.80580180412E-01 -0.77883299741E-01  0.90197952386E-01  0.89168079741E+00  0.88000000000E+00 0.  1.
        -11    1    4    4    0    0  0.16679923079E-01  0.62843612719E-03 -0.28755000446E-01  0.33252457617E-01  0.51100000000E-03 0.  1.
         11    1    4    4    0    0  0.53674832280E-01  0.73260748354E-01 -0.53061477006E-01  0.10518510509E+00  0.51100000000E-03 0. -1.
</event>
<event>
 8    1  0.2091070E+004  0.1043930E+01  0.7957747E-01            NaN
         13   -1    0    0    0    0  0.00000000000E+00  0.00000000000E+00  0.74505805969E-08  0.10566000000E+00  0.10566000000E+00 0. -1.
     999900   -1    0    0    0    0 -0.00000000000E+00 -0.00000000000E+00 -0.74505805969E-08  0.93827000000E+00  0.93827000000E+00 0.  1.
     999902    2    1    2    0    0  0.13547283767E-01 -0.45370553046E-02 -0.39858398042E-02  0.10290975799E+01  0.10289906842E+01 0.  0.
     999903    2    3    3    0    0 -0.10960659439E+00  0.49817319389E-01  0.55863825683E-01  0.13685139286E+00  0.33349150841E-01 0.  0.
         14    1    1    2    0    0 -0.13547283767E-01  0.45370553046E-02  0.39858398042E-02  0.14832420142E-01  0.00000000000E+00 0. -1.
     999901    1    3    3    0    0  0.12315387816E+00 -0.54354374693E-01 -0.59849665488E-01  0.89224618700E+00  0.88000000000E+00 0. -1.
        -11    1    4    4    0    0 -0.10067944193E+00  0.51695211031E-01  0.42994165555E-01  0.12106818023E+00  0.51100000000E-03 0. -1.
         11    1    4    4    0    0 -0.89271524633E-02 -0.18778916427E-02  0.12869660129E-01  0.15783212631E-01  0.51100000000E-03 0.  1.
</event>
<event>
 8    1  0.2091070E+004  0.1043930E+01  0.7957747E-01            NaN
         13   -1    0    0    0    0  0.00000000000E+00  0.00000000000E+00  0.74505805969E-08  0.10566000000E+00  0.10566000000E+00 0. -1.
     999900   -1    0    0    0    0 -0.00000000000E+00 -0.00000000000E+00 -0.74505805969E-08  0.93827000000E+00  0.93827000000E+00 0. -1.
     999902    2    1    2    0    0 -0.90853869687E-02 -0.96981166065E-02 -0.20158361757E-02  0.10304889689E+01  0.10304013071E+01 0.  0.
     999903    2    3    3    0    0 -0.10664488928E-01 -0.13406578755E+00 -0.28483212715E-03  0.14174108139E+00  0.44755852225E-01 0.  0.
         14    1    1    2    0    0  0.90853869687E-02  0.96981166065E-02  0.20158361757E-02  0.13441031120E-01  0.00000000000E+00 0.  1.
     999901    1    3    3    0    0  0.15791019594E-02  0.12436767095E+00 -0.17310040486E-02  0.88874788749E+00  0.88000000000E+00 0. -1.
        -11    1    4    4    0    0  0.94566063790E-04 -0.27307233343E-01 -0.18386403688E-01  0.32924381500E-01  0.51100000000E-03 0. -1.
         11    1    4    4    0    0 -0.10759054992E-01 -0.10675855421E+00  0.18101571560E-01  0.10881669989E+00  0.51100000000E-03 0.  1.
</event>
<event>
 8    1  0.2091070E+004  0.1043930E+01  0.7957747E-01            NaN
         13   -1    0    0    0    0  0.00000000000E+00  0.00000000000E+00  0.74505805969E-08  0.10566000000E+00  0.10566000000E+00 0.  1.
     999900   -1    0    0    0    0 -0.00000000000E+00 -0.00000000000E+00 -0.74505805969E-08  0.93827000000E+00  0.93827000000E+00 0.  1.
     999902    2    1    2    0    0 -0.54410578625E-02 -0.81377449195E-02 -0.10994717266E-01  0.10292088652E+01  0.10291035790E+01 0.  0.
     999903    2    3    3    0    0 -0.51121478779E-01 -0.12308909159E+00  0.18868727047E-02  0.14046455530E+00  0.44298994870E-01 0.  0.
         14    1    1    2    0    0  0.54410578625E-02  0.81377449195E-02  0.10994717266E-01  0.14721134834E-01  0.00000000000E+00 0.  1.
     999901    1    3    3    0    0  0.45680420917E-01  0.11495134667E+00 -0.12881589971E-01  0.88874430986E+00  0.88000000000E+00 0. -1.
        -11    1    4    4    0    0 -0.18686661634E-01 -0.34355520376E-01 -0.19339635802E-01  0.43632278616E-01  0.51100000000E-03 0.  1.
         11    1    4    4    0    0 -0.32434817146E-01 -0.88733571214E-01  0.21226508506E-01  0.96832276685E-01  0.51100000000E-03 0. -1.
</event>
<event>
 8    1  0.2091070E+004  0.1043930E+01  0.7957747E-01            NaN
         13   -1    0    0    0    0  0.00000000000E+00  0.00000000000E+00  0.74505805969E-08  0.10566000000E+00  0.10566000000E+00 0. -1.
     999900   -1    0    0    0    0 -0.00000000000E+00 -0.00000000000E+00 -0.74505805969E-08  0.93827000000E+00  0.93827000000E+00 0.  1.
     999902    2    1    2    0    0  0.13111204812E-01  0.72409824746E-02 -0.19934626628E-02  0.10288200889E+01  0.10287091260E+01 0.  0.
     999903    2    3    3    0    0  0.54075532201E-01  0.11691961374E+00 -0.31222324235E-01  0.14058486974E+00  0.46849896598E-01 0.  0.
         14    1    1    2    0    0 -0.13111204812E-01 -0.72409824746E-02  0.19934626628E-02  0.15109911058E-01  0.00000000000E+00 0. -1.
     999901    1    3    3    0    0 -0.40964327390E-01 -0.10967863126E+00  0.29228861572E-01  0.88823521920E+00  0.88000000000E+00 0.  1.
        -11    1    4    4    0    0  0.45306574931E-01  0.80904044304E-01 -0.42262636636E-01  0.10190457150E+00  0.51100000000E-03 0. -1.
         11    1    4    4    0    0  0.87689572701E-02  0.36015569433E-01  0.11040312401E-01  0.38680298242E-01  0.51100000000E-03 0.  1.
</event>
<event>
 8    1  0.2091070E+004  0.1043930E+01  0.7957747E-01            NaN
         13   -1    0    0    0    0  0.00000000000E+00  0.00000000000E+00  0.74505805969E-08  0.10566000000E+00  0.10566000000E+00 0. -1.
     999900   -1    0    0    0    0 -0.00000000000E+00 -0.00000000000E+00 -0.74505805969E-08  0.93827000000E+00  0.93827000000E+00 0.  1.
     999902    2    1    2    0    0 -0.69556335148E-02  0.68815197029E-02 -0.60322318694E-02  0.10324354808E+01  0.10323714922E+01 0.  0.
     999903    2    3    3    0    0 -0.27694090125E-01  0.12055424373E+00  0.54970002123E-01  0.14278788519E+00  0.45457570469E-01 0.  0.
         14    1    1    2    0    0  0.69556335148E-02 -0.68815197029E-02  0.60322318694E-02  0.11494519230E-01  0.00000000000E+00 0. -1.
     999901    1    3    3    0    0  0.20738456610E-01 -0.11367272403E+00 -0.61002233993E-01  0.88964759558E+00  0.88000000000E+00 0. -1.
        -11    1    4    4    0    0 -0.32125548409E-01  0.65253903467E-01  0.47344224818E-01  0.86786286490E-01  0.51100000000E-03 0. -1.
         11    1    4    4    0    0  0.44314582841E-02  0.55300340267E-01  0.76257773057E-02  0.56001598698E-01  0.51100000000E-03 0.  1.
</event>
<event>
 8    1  0.2091070E+004  0.1043930E+01  0.7957747E-01            NaN
         13   -1    0    0    0    0  0.00000000000E+00  0.00000000000E+00  0.74505805969E-08  0.10566000000E+00  0.10566000000E+00 0. -1.
     999900   -1    0    0    0    0 -0.00000000000E+00 -0.00000000000E+00 -0.74505805969E-08  0.93827000000E+00  0.93827000000E+00 0.  1.
     999902    2    1    2    0    0 -0.90595958476E-02 -0.10335738715E-01  0.11279967962E-02  0.10301395632E+01  0.10300472530E+01 0.  0.
     999903    2    3    3    0    0  0.10449731647E+00 -0.10761960618E-01  0.79698971715E-01  0.13937093320E+00  0.45131164210E-01 0.  0.
         14    1    1    2    0    0  0.90595958476E-02  0.10335738715E-01 -0.11279967962E-02  0.13790436849E-01  0.00000000000E+00 0.  1.
     999901    1    3    3    0    0 -0.11355691232E+00  0.42622190236E-03 -0.78570974919E-01  0.89076862995E+00  0.88000000000E+00 0.  1.
        -11    1    4    4    0    0  0.78435348050E-01  0.11334310983E-02  0.78067694997E-01  0.11067165226E+00  0.51100000000E-03 0.  1.
         11    1    4    4    0    0  0.26061968423E-01 -0.11895391716E-01  0.16312767182E-02  0.28699280947E-01  0.51100000000E-03 0. -1.
</event>
<event>
 8    1  0.2091070E+004  0.1043930E+01  0.7957747E-01            NaN
         13   -1    0    0    0    0  0.00000000000E+00  0.00000000000E+00  0.74505805969E-08  0.10566000000E+00  0.10566000000E+00 0. -1.
     999900   -1    0    0    0    0 -0.00000000000E+00 -0.00000000000E+00 -0.74505805969E-08  0.93827000000E+00  0.93827000000E+00 0. -1.
     999902    2    1    2    0    0  0.48854941192E-02  0.28201819903E-03  0.12627973378E-01  0.10303869834E+01  0.10302979774E+01 0.  0.
     999903    2    3    3    0    0  0.49825301375E-01  0.85834534040E-01 -0.87017093699E-01  0.13950654325E+00  0.45166061628E-01 0.  0.
         14    1    1    2    0    0 -0.48854941192E-02 -0.28201819903E-03 -0.12627973378E-01  0.13543016603E-01  0.00000000000E+00 0.  1.
     999901    1    3    3    0    0 -0.44939807256E-01 -0.85552515841E-01  0.99645067078E-01  0.89088044015E+00  0.88000000000E+00 0.  1.
        -11    1    4    4    0    0  0.34021096438E-01  0.19267005524E-01 -0.43154297424E-01  0.58234070885E-01  0.51100000000E-03 0.  1.
         11    1    4    4    0    0  0.15804204937E-01  0.66567528515E-01 -0.43862796276E-01  0.81272472366E-01  0.51100000000E-03 0. -1.
</event>
<event>
 8    1  0.2091070E+004  0.1043930E+01  0.7957747E-01            NaN
         13   -1    0    0    0    0  0.00000000000E+00  0.00000000000E+00  0.74505805969E-08  0.10566000000E+00  0.10566000000E+00 0. -1.
     999900   -1    0    0    0    0 -0.00000000000E+00 -0.00000000000E+00 -0.74505805969E-08  0.93827000000E+00  0.93827000000E+00 0.  1.
     999902    2    1    2    0    0 -0.56742927465E-02  0.86239514329E-02  0.96343283716E-02  0.10298094327E+01  0.10297126188E+01 0.  0.
     999903    2    3    3    0    0  0.85785075237E-01  0.63804572057E-01 -0.76791046540E-01  0.13914728450E+00  0.45110967692E-01 0.  0.
         14    1    1    2    0    0  0.56742927465E-02 -0.86239514329E-02 -0.96343283716E-02  0.14120567257E-01  0.00000000000E+00 0.  1.
     999901    1    3    3    0    0 -0.91459367984E-01 -0.55180620624E-01  0.86425374912E-01  0.89066214824E+00  0.88000000000E+00 0. -1.
        -11    1    4    4    0    0  0.29757425903E-01  0.16118351139E-01 -0.50946739055E-01  0.61164834514E-01  0.51100000000E-03 0.  1.
         11    1    4    4    0    0  0.56027649334E-01  0.47686220918E-01 -0.25844307485E-01  0.77982449985E-01  0.51100000000E-03 0. -1.
</event>
<event>
 8    1  0.2091070E+004  0.1043930E+01  0.7957747E-01            NaN
         13   -1    0    0    0    0  0.00000000000E+00  0.00000000000E+00  0.74505805969E-08  0.10566000000E+00  0.10566000000E+00 0.  1.
     999900   -1    0    0    0    0 -0.00000000000E+00 -0.00000000000E+00 -0.74505805969E-08  0.93827000000E+00  0.93827000000E+00 0. -1.
     999902    2    1    2    0    0 -0.40848899936E-02 -0.12659563527E-01  0.45808724030E-02  0.10298610531E+01  0.10297649506E+01 0.  0.
     999903    2    3    3    0    0  0.41234555434E-01  0.10026210892E+00  0.73851702078E-01  0.13879225436E+00  0.45347953908E-01 0.  0.
         14    1    1    2    0    0  0.40848899936E-02  0.12659563527E-01 -0.45808724030E-02  0.14068946902E-01  0.00000000000E+00 0. -1.
     999901    1    3    3    0    0 -0.45319445428E-01 -0.11292167245E+00 -0.69270829675E-01  0.89106879874E+00  0.88000000000E+00 0.  1.
        -11    1    4    4    0    0  0.22018116026E-01  0.78700011818E-01  0.73484067765E-01  0.10990295096E+00  0.51100000000E-03 0.  1.
         11    1    4    4    0    0  0.19216439408E-01  0.21562097100E-01  0.36763431336E-03  0.28889303399E-01  0.51100000000E-03 0. -1.
</event>
<event>
 8    1  0.2091070E+004  0.1043930E+01  0.7957747E-01            NaN
         13   -1    0    0    0    0  0.00000000000E+00  0.00000000000E+00  0.74505805969E-08  0.10566000000E+00  0.10566000000E+00 0. -1.
     999900   -1    0    0    0    0 -0.00000000000E+00 -0.00000000000E+00 -0.74505805969E-08  0.93827000000E+00  0.93827000000E+00 0. -1.
     999902    2    1    2    0    0  0.11435545019E-01 -0.66524444162E-02  0.48591837892E-02  0.10298360874E+01  0.10297396411E+01 0.  0.
     999903    2    3    3    0    0  0.13844087508E-01  0.12467266263E+00  0.40793634887E-01  0.13936241026E+00  0.44975873310E-01 0.  0.
         14    1    1    2    0    0 -0.11435545019E-01  0.66524444162E-02 -0.48591837892E-02  0.14093912646E-01  0.00000000000E+00 0.  1.
     999901    1    3    3    0    0 -0.24085424896E-02 -0.13132510705E+00 -0.35934451097E-01  0.89047367709E+00  0.88000000000E+00 0. -1.
        -11    1    4    4    0    0 -0.15824716749E-01  0.54647845724E-01  0.12766368806E-01  0.58309947658E-01  0.51100000000E-03 0. -1.
         11    1    4    4    0    0  0.29668804257E-01  0.70024816908E-01  0.28027266081E-01  0.81052462603E-01  0.51100000000E-03 0.  1.
</event>
<event>
 8    1  0.2091070E+004  0.1043930E+01  0.7957747E-01            NaN
         13   -1    0    0    0    0  0.00000000000E+00  0.00000000000E+00  0.74505805969E-08  0.10566000000E+00  0.10566000000E+00 0.  1.
     999900   -1    0    0    0    0 -0.00000000000E+00 -0.00000000000E+00 -0.74505805969E-08  0.93827000000E+00  0.93827000000E+00 0. -1.
     999902    2    1    2    0    0  0.97169059185E-02 -0.47728969791E-02 -0.10123239013E-01  0.10291084355E+01  0.10290016974E+01 0.  0.
     999903    2    3    3    0    0  0.11637473755E+00 -0.28480633189E-01 -0.57430226280E-01  0.14109047349E+00  0.47476992450E-01 0.  0.
         14    1    1    2    0    0 -0.97169059185E-02  0.47728969791E-02  0.10123239013E-01  0.14821564503E-01  0.00000000000E+00 0.  1.
     999901    1    3    3    0    0 -0.10665783163E+00  0.23707736210E-01  0.47306987267E-01  0.88801796201E+00  0.88000000000E+00 0.  1.
        -11    1    4    4    0    0  0.53660111474E-01 -0.35116799985E-01 -0.17613584232E-01  0.66506365674E-01  0.51100000000E-03 0.  1.
         11    1    4    4    0    0  0.62714626076E-01  0.66361667965E-02 -0.39816642049E-01  0.74584107815E-01  0.51100000000E-03 0. -1.
</event>
<event>
 8    1  0.2091070E+004  0.1043930E+01  0.7957747E-01            NaN
         13   -1    0    0    0    0  0.00000000000E+00  0.00000000000E+00  0.74505805969E-08  0.10566000000E+00  0.10566000000E+00 0.  1.
     999900   -1    0    0    0    0 -0.00000000000E+00 -0.00000000000E+00 -0.74505805969E-08  0.93827000000E+00  0.93827000000E+00 0.  1.
     999902    2    1    2    0    0  0.10062359688E-01 -0.69659619141E-02 -0.44124013068E-02  0.10309205806E+01  0.10308384929E+01 0.  0.
     999903    2    3    3    0    0 -0.27730172265E-01 -0.80784682205E-01  0.10240309313E+00  0.14059085022E+00  0.44545104694E-01 0.  0.
         14    1    1    2    0    0 -0.10062359688E-01  0.69659619141E-02  0.44124013068E-02  0.13009419402E-01  0.00000000000E+00 0. -1.
     999901    1    3    3    0    0  0.37792531952E-01  0.73818720291E-01 -0.10681549443E+00  0.89032973037E+00  0.88000000000E+00 0.  1.
        -11    1    4    4    0    0 -0.30490712363E-01 -0.38367027521E-01  0.76367332293E-01  0.90741076166E-01  0.51100000000E-03 0. -1.
         11    1    4    4    0    0  0.27605400982E-02 -0.42417654684E-01  0.26035760833E-01  0.49849774058E-01  0.51100000000E-03 0.  1.
</event>
<event>
 8    1  0.2091070E+004  0.1043930E+01  0.7957747E-01            NaN
         13   -1    0    0    0    0  0.00000000000E+00  0.00000000000E+00  0.74505805969E-08  0.10566000000E+00  0.10566000000E+00 0.  1.
     999900   -1    0    0    0    0 -0.00000000000E+00 -0.00000000000E+00 -0.74505805969E-08  0.93827000000E+00  0.93827000000E+00 0. -1.
     999902    2    1    2    0    0  0.43773972783E-02  0.38469759529E-02 -0.12881313812E-01  0.10297917867E+01  0.10296947289E+01 0.  0.
     999903    2    3    3    0    0 -0.11347645313E+00 -0.61766567964E-01 -0.23815383067E-01  0.13944678551E+00  0.46757022839E-01 0.  0.
         14    1    1    2    0    0 -0.43773972783E-02 -0.38469759529E-02  0.12881313812E-01  0.14138213340E-01  0.00000000000E+00 0.  1.
     999901    1    3    3    0    0  0.11785385041E+00  0.65613543917E-01  0.10934069254E-01  0.89034500115E+00  0.88000000000E+00 0.  1.
        -11    1    4    4    0    0 -0.51259799345E-01 -0.31038587241E-01 -0.34634644290E-01  0.69215465272E-01  0.51100000000E-03 0. -1.
         11    1    4    4    0    0 -0.62216653788E-01 -0.30727980723E-01  0.10819261223E-01  0.70231320238E-01  0.51100000000E-03 0.  1.
</event>
<event>
 8    1  0.2091070E+004  0.1043930E+01  0.7957747E-01            NaN
         13   -1    0    0    0    0  0.00000000000E+00  0.00000000000E+00  0.74505805969E-08  0.10566000000E+00  0.10566000000E+00 0.  1.
     999900   -1    0    0    0    0 -0.00000000000E+00 -0.00000000000E+00 -0.74505805969E-08  0.93827000000E+00  0.93827000000E+00 0. -1.
     999902    2    1    2    0    0 -0.15675870131E-01 -0.10731315935E-01  0.39851610791E-02  0.10245192928E+01  0.10243353971E+01 0.  0.
     999903    2    3    3    0    0  0.71442496850E-01 -0.97581514677E-01  0.39891705746E-01  0.13523764626E+00  0.45515825986E-01 0.  0.
         14    1    1    2    0    0  0.15675870131E-01  0.10731315935E-01 -0.39851610791E-02  0.19410707223E-01  0.00000000000E+00 0. -1.
     999901    1    3    3    0    0 -0.87118366981E-01  0.86850198741E-01 -0.35906544667E-01  0.88928164652E+00  0.88000000000E+00 0. -1.
        -11    1    4    4    0    0  0.98485048880E-02 -0.74300069716E-02  0.21100020962E-01  0.24447291419E-01  0.51100000000E-03 0. -1.
         11    1    4    4    0    0  0.61593991962E-01 -0.90151507705E-01  0.18791684784E-01  0.11079035484E+00  0.51100000000E-03 0.  1.
</event>
<event>
 8    1  0.2091070E+004  0.1043930E+01  0.7957747E-01            NaN
         13   -1    0    0    0    0  0.00000000000E+00  0.00000000000E+00  0.74505805969E-08  0.10566000000E+00  0.10566000000E+00 0.  1.
     999900   -1    0    0    0    0 -0.00000000000E+00 -0.00000000000E+00 -0.74505805969E-08  0.93827000000E+00  0.93827000000E+00 0.  1.
     999902    2    1    2    0    0  0.94504642080E-02  0.10131398900E-01 -0.12398548894E-02  0.10300197966E+01  0.10299258652E+01 0.  0.
     999903    2    3    3    0    0  0.12690868901E+00  0.34821156846E-01 -0.25538093237E-01  0.14153995831E+00  0.45420670211E-01 0.  0.
         14    1    1    2    0    0 -0.94504642080E-02 -0.10131398900E-01  0.12398548894E-02  0.13910203362E-01  0.00000000000E+00 0. -1.
     999901    1    3    3    0    0 -0.11745822480E+00 -0.24689757946E-01  0.24298238348E-01  0.88847983832E+00  0.88000000000E+00 0. -1.
        -11    1    4    4    0    0  0.89031098357E-01  0.52298719261E-02 -0.51757103439E-02  0.89336090879E-01  0.51100000000E-03 0. -1.
         11    1    4    4    0    0  0.37877590655E-01  0.29591284920E-01 -0.20362382893E-01  0.52203867435E-01  0.51100000000E-03 0.  1.
</event>
<event>
 8    1  0.2091070E+004  0.1043930E+01  0.7957747E-01            NaN
         13   -1    0    0    0    0  0.00000000000E+00  0.00000000000E+00  0.74505805969E-08  0.10566000000E+00  0.10566000000E+00 0. -1.
     999900   -1    0    0    0    0 -0.00000000000E+00 -0.00000000000E+00 -0.74505805969E-08  0.93827000000E+00  0.93827000000E+00 0. -1.
     999902    2    1    2    0    0 -0.73599287172E-02  0.12049247337E-01  0.14753695678E-02  0.10297338869E+01  0.10296360270E+01 0.  0.
     999903    2    3    3    0    0 -0.39258285755E-01 -0.44828098952E-01  0.11791384264E+00  0.13967183528E+00  0.45318603542E-01 0.  0.
         14    1    1    2    0    0  0.73599287172E-02 -0.12049247337E-01 -0.14753695678E-02  0.14196113112E-01  0.00000000000E+00 0.  1.
     999901    1    3    3    0    0  0.31898357038E-01  0.56877346290E-01 -0.11643847308E+00  0.89006205161E+00  0.88000000000E+00 0. -1.
        -11    1    4    4    0    0  0.80327683167E-02 -0.16085120497E-01  0.42328244090E-01  0.45991280010E-01  0.51100000000E-03 0.  1.
         11    1    4    4    0    0 -0.47291054072E-01 -0.28742978455E-01  0.75585598554E-01  0.93680555269E-01  0.51100000000E-03 0. -1.
</event>
<event>
 8    1  0.2091070E+004  0.1043930E+01  0.7957747E-01            NaN
         13   -1    0    0    0    0  0.00000000000E+00  0.00000000000E+00  0.74505805969E-08  0.10566000000E+00  0.10566000000E+00 0. -1.
     999900   -1    0    0    0    0 -0.00000000000E+00 -0.00000000000E+00 -0.74505805969E-08  0.93827000000E+00  0.93827000000E+00 0.  1.
     999902    2    1    2    0    0 -0.44309870939E-02 -0.19321476634E-02  0.13063022528E-01  0.10300012743E+01  0.10299070908E+01 0.  0.
     999903    2    3    3    0    0  0.17218431999E-01 -0.68533337512E-01 -0.11062040057E+00  0.13859676178E+00  0.44484790699E-01 0.  0.
         14    1    1    2    0    0  0.44309870939E-02  0.19321476634E-02 -0.13063022528E-01  0.13928725670E-01  0.00000000000E+00 0.  1.
     999901    1    3    3    0    0 -0.21649419093E-01  0.66601189848E-01  0.12368342310E+00  0.89140451255E+00  0.88000000000E+00 0. -1.
        -11    1    4    4    0    0  0.20646885855E-01 -0.50078157803E-01 -0.10633244069E+00  0.11933551378E+00  0.51100000000E-03 0. -1.
         11    1    4    4    0    0 -0.34284538552E-02 -0.18455179709E-01 -0.42879598846E-02  0.19261248010E-01  0.51100000000E-03 0.  1.
</event>
<event>
 8    1  0.2091070E+004  0.1043930E+01  0.7957747E-01            NaN
         13   -1    0    0    0    0  0.00000000000E+00  0.00000000000E+00  0.74505805969E-08  0.10566000000E+00  0.10566000000E+00 0. -1.
     999900   -1    0    0    0    0 -0.00000000000E+00 -0.00000000000E+00 -0.74505805969E-08  0.93827000000E+00  0.93827000000E+00 0.  1.
     999902    2    1    2    0    0  0.72919071368E-02 -0.12299128862E-01 -0.91674452401E-03  0.10296023728E+01  0.10295026786E+01 0.  0.
     999903    2    3    3    0    0  0.73259515197E-01 -0.51478898281E-01  0.98939362415E-01  0.14063779436E+00  0.44417994457E-01 0.  0.
         14    1    1    2    0    0 -0.72919071368E-02  0.12299128862E-01  0.91674452401E-03  0.14327627193E-01  0.00000000000E+00 0.  1.
     999901    1    3    3    0    0 -0.65967608060E-01  0.39179769419E-01 -0.99856106939E-01  0.88896457845E+00  0.88000000000E+00 0.  1.
        -11    1    4    4    0    0  0.35720151414E-01 -0.51152831090E-01  0.60652774319E-01  0.87014720014E-01  0.51100000000E-03 0. -1.
         11    1    4    4    0    0  0.37539363783E-01 -0.32606719095E-03  0.38286588096E-01  0.53623074343E-01  0.51100000000E-03 0.  1.
</event>
<event>
 8    1  0.2091070E+004  0.1043930E+01  0.7957747E-01            NaN
         13   -1    0    0    0    0  0.00000000000E+00  0.00000000000E+00  0.74505805969E-08  0.10566000000E+00  0.10566000000E+00 0.  1.
     999900   -1    0    0    0    0 -0.00000000000E+00 -0.00000000000E+00 -0.74505805969E-08  0.93827000000E+00  0.93827000000E+00 0. -1.
     999902    2    1    2    0    0  0.10371820902E-01  0.76948399798E-02 -0.77353954218E-02  0.10288760446E+01  0.10287659080E+01 0.  0.
     999903    2    3    3    0    0  0.10229352352E+00 -0.82516197665E-01 -0.11479882321E-01  0.13949330813E+00  0.45317849505E-01 0.  0.
         14    1    1    2    0    0 -0.10371820902E-01 -0.76948399798E-02  0.77353954218E-02  0.15053955410E-01  0.00000000000E+00 0. -1.
     999901    1    3    3    0    0 -0.91921702622E-01  0.90211037645E-01  0.37444868990E-02  0.88938273646E+00  0.88000000000E+00 0. -1.
        -11    1    4    4    0    0  0.96992254594E-01 -0.74422345711E-01  0.27399759556E-02  0.12228635076E+00  0.51100000000E-03 0. -1.
         11    1    4    4    0    0  0.53012689301E-02 -0.80938519539E-02 -0.14219858276E-01  0.17206957375E-01  0.51100000000E-03 0.  1.
</event>
<event>
 8    1  0.2091070E+004  0.1043930E+01  0.7957747E-01            NaN
         13   -1    0    0    0    0  0.00000000000E+00  0.00000000000E+00  0.74505805969E-08  0.10566000000E+00  0.10566000000E+00 0. -1.
     999900   -1    0    0    0    0 -0.00000000000E+00 -0.00000000000E+00 -0.74505805969E-08  0.93827000000E+00  0.93827000000E+00 0.  1.
     999902    2    1    2    0    0  0.45508773637E-02 -0.23278252996E-02 -0.10145168512E-01  0.10325698196E+01  0.10325073262E+01 0.  0.
     999903    2    3    3    0    0 -0.13372394257E+00 -0.17931003761E-02 -0.12087925689E-01  0.14177018661E+00  0.45468228921E-01 0.  0.
         14    1    1    2    0    0 -0.45508773637E-02  0.23278252996E-02  0.10145168512E-01  0.11360180436E-01  0.00000000000E+00 0. -1.
     999901    1    3    3    0    0  0.13827481993E+00 -0.53472492349E-03  0.19427571770E-02  0.89079963295E+00  0.88000000000E+00 0. -1.
        -11    1    4    4    0    0 -0.27806530351E-01 -0.23178968994E-02  0.16027103044E-01  0.32182369850E-01  0.51100000000E-03 0.  1.
         11    1    4    4    0    0 -0.10591741221E+00  0.52479652331E-03 -0.28115028733E-01  0.10958781676E+00  0.51100000000E-03 0. -1.
</event>
<event>
 8    1  0.2091070E+004  0.1043930E+01  0.7957747E-01            NaN
         13   -1    0    0    0    0  0.00000000000E+00  0.00000000000E+00  0.74505805969E-08  0.10566000000E+00  0.10566000000E+00 0.  1.
     999900   -1    0    0    0    0 -0.00000000000E+00 -0.00000000000E+00 -0.74505805969E-08  0.93827000000E+00  0.93827000000E+00 0.  1.
     999902    2    1    2    0    0 -0.41546022721E-02 -0.80567240223E-02 -0.31486518299E-02  0.10343338794E+01  0.10342893640E+01 0.  0.
     999903    2    3    3    0    0  0.34181633562E-01 -0.13458759208E-02  0.13184246941E+00  0.14319006090E+00  0.44167424020E-01 0.  0.
         14    1    1    2    0    0  0.41546022721E-02  0.80567240223E-02  0.31486518299E-02  0.95961205889E-02  0.00000000000E+00 0.  1.
     999901    1    3    3    0    0 -0.38336235834E-01 -0.67108481015E-02 -0.13499112124E+00  0.89114381851E+00  0.88000000000E+00 0.  1.
        -11    1    4    4    0    0  0.44253945390E-01 -0.33845897947E-02  0.11694231616E+00  0.12508250701E+00  0.51100000000E-03 0. -1.
         11    1    4    4    0    0 -0.10072311828E-01  0.20387138740E-02  0.14900153256E-01  0.18107553890E-01  0.51100000000E-03 0.  1.
</event>
<event>
 8    1  0.2091070E+004  0.1043930E+01  0.7957747E-01            NaN
         13   -1    0    0    0    0  0.00000000000E+00  0.00000000000E+00  0.74505805969E-08  0.10566000000E+00  0.10566000000E+00 0.  1.
     999900   -1    0    0    0    0 -0.00000000000E+00 -0.00000000000E+00 -0.74505805969E-08  0.93827000000E+00  0.93827000000E+00 0. -1.
     999902    2    1    2    0    0  0.15591575968E-02 -0.26013318055E-01 -0.40959280474E-02  0.10175500774E+01  0.10172080710E+01 0.  0.
     999903    2    3    3    0    0  0.12569328828E-01 -0.83480657420E-01 -0.90013849603E-01  0.13143179626E+00  0.45219639067E-01 0.  0.
         14    1    1    2    0    0 -0.15591575968E-02  0.26013318055E-01  0.40959280474E-02  0.26379922578E-01  0.00000000000E+00 0.  1.
     999901    1    3    3    0    0 -0.11010171231E-01  0.57467339365E-01  0.85917921555E-01  0.88611828116E+00  0.88000000000E+00 0.  1.
        -11    1    4    4    0    0 -0.90513568987E-02 -0.10229773837E-01 -0.34213050806E-01  0.36842493142E-01  0.51100000000E-03 0.  1.
         11    1    4    4    0    0  0.21620685727E-01 -0.73250883583E-01 -0.55800798796E-01  0.94589303118E-01  0.51100000000E-03 0. -1.
</event>
<event>
 8    1  0.2091070E+004  0.1043930E+01  0.7957747E-01            NaN
         13   -1    0    0    0    0  0.00000000000E+00  0.00000000000E+00  0.74505805969E-08  0.10566000000E+00  0.10566000000E+00 0. -1.
     999900   -1    0    0    0    0 -0.00000000000E+00 -0.00000000000E+00 -0.74505805969E-08  0.93827000000E+00  0.93827000000E+00 0.  1.
     999902    2    1    2    0    0  0.75168938842E-03  0.12221085560E-01  0.62369373450E-02  0.10301888444E+01  0.10300971973E+01 0.  0.
     999903    2    3    3    0    0  0.10958255317E+00 -0.73450598323E-01  0.20388720803E-02  0.13934575045E+00  0.44830289024E-01 0.  0.
         14    1    1    2    0    0 -0.75168938842E-03 -0.12221085560E-01 -0.62369373450E-02  0.13741155579E-01  0.00000000000E+00 0. -1.
     999901    1    3    3    0    0 -0.10883086379E+00  0.85671683882E-01  0.41980652647E-02  0.89084309398E+00  0.88000000000E+00 0. -1.
        -11    1    4    4    0    0  0.87064983377E-01 -0.44943476948E-01 -0.15162241363E-01  0.99148283570E-01  0.51100000000E-03 0.  1.
         11    1    4    4    0    0  0.22517569796E-01 -0.28507121374E-01  0.17201113443E-01  0.40197466876E-01  0.51100000000E-03 0. -1.
</event>
<event>
 8    1  0.2091070E+004  0.1043930E+01  0.7957747E-01            NaN
         13   -1    0    0    0    0  0.00000000000E+00  0.00000000000E+00  0.74505805969E-08  0.10566000000E+00  0.10566000000E+00 0.  1.
     999900   -1    0    0    0    0 -0.00000000000E+00 -0.00000000000E+00 -0.74505805969E-08  0.93827000000E+00  0.93827000000E+00 0. -1.
     999902    2    1    2    0    0 -0.93402193086E-02 -0.26761088565E-03  0.10297351217E-01  0.10300250816E+01  0.10299312220E+01 0.  0.
     999903    2    3    3    0    0 -0.11950707601E+00  0.59959841007E-01  0.33882266925E-02  0.14108649081E+00  0.44908730328E-01 0.  0.
         14    1    1    2    0    0  0.93402193086E-02  0.26761088565E-03 -0.10297351217E-01  0.13904918353E-01  0.00000000000E+00 0. -1.
     999901    1    3    3    0    0  0.11016685670E+00 -0.60227451893E-01  0.69091245245E-02  0.88893859084E+00  0.88000000000E+00 0.  1.
        -11    1    4    4    0    0 -0.97127009608E-01  0.59260715660E-01  0.16751549023E-01  0.11500592998E+00  0.51100000000E-03 0.  1.
         11    1    4    4    0    0 -0.22380066400E-01  0.69912534687E-03 -0.13363322330E-01  0.26080560826E-01  0.51100000000E-03 0. -1.
</event>
<event>
 8    1  0.2091070E+004  0.1043930E+01  0.7957747E-01            NaN
         13   -1    0    0    0    0  0.00000000000E+00  0.00000000000E+00  0.74505805969E-08  0.10566000000E+00  0.10566000000E+00 0.  1.
     999900   -1    0    0    0    0 -0.00000000000E+00 -0.00000000000E+00 -0.74505805969E-08  0.93827000000E+00  0.93827000000E+00 0. -1.
     999902    2    1    2    0    0 -0.26616587160E-02 -0.18341545057E-02 -0.13392477498E-01  0.10301529537E+01  0.10300608240E+01 0.  0.
     999903    2    3    3    0    0  0.10416021229E+00  0.75070271138E-01  0.32280935908E-01  0.13919208845E+00  0.42982359523E-01 0.  0.
         14    1    1    2    0    0  0.26616587160E-02  0.18341545057E-02  0.13392477498E-01  0.13777046251E-01  0.00000000000E+00 0.  1.
     999901    1    3    3    0    0 -0.10682187100E+00 -0.76904425644E-01 -0.45673413406E-01  0.89096086530E+00  0.88000000000E+00 0. -1.
        -11    1    4    4    0    0  0.17734547784E-02  0.17834027027E-01  0.66621737742E-02  0.19127031716E-01  0.51100000000E-03 0.  1.
         11    1    4    4    0    0  0.10238675751E+00  0.57236244111E-01  0.25618762134E-01  0.12006505673E+00  0.51100000000E-03 0. -1.
</event>
<event>
 8    1  0.2091070E+004  0.1043930E+01  0.7957747E-01            NaN
         13   -1    0    0    0    0  0.00000000000E+00  0.00000000000E+00  0.74505805969E-08  0.10566000000E+00  0.10566000000E+00 0.  1.
     999900   -1    0    0    0    0 -0.00000000000E+00 -0.00000000000E+00 -0.74505805969E-08  0.93827000000E+00  0.93827000000E+00 0. -1.
     999902    2    1    2    0    0  0.93219969995E-02 -0.11033993289E-01 -0.30198239055E-02  0.10291730365E+01  0.10290672335E+01 0.  0.
     999903    2    3    3    0    0 -0.12475089661E+00 -0.21604784837E-01  0.32722923901E-01  0.13823823165E+00  0.44827067793E-01 0.  0.
         14    1    1    2    0    0 -0.93219969995E-02  0.11033993289E-01  0.30198239055E-02  0.14756963521E-01  0.00000000000E+00 0.  1.
     999901    1    3    3    0    0  0.13407289361E+00  0.10570791549E-01 -0.35742747807E-01  0.89093480483E+00  0.88000000000E+00 0. -1.
        -11    1    4    4    0    0 -0.97524566699E-01 -0.47999106742E-02  0.39837378708E-01  0.10545784995E+00  0.51100000000E-03 0.  1.
         11    1    4    4    0    0 -0.27226329915E-01 -0.16804874163E-01 -0.71144548067E-02  0.32780381701E-01  0.51100000000E-03 0. -1.
</event>
<event>
 8    1  0.2091070E+004  0.1043930E+01  0.7957747E-01            NaN
         13   -1    0    0    0    0  0.00000000000E+00  0.00000000000E+00  0.74505805969E-08  0.10566000000E+00  0.10566000000E+00 0.  1.
     999900   -1    0    0    0    0 -0.00000000000E+00 -0.00000000000E+00 -0.74505805969E-08  0.93827000000E+00  0.93827000000E+00 0.  1.
     999902    2    1    2    0    0  0.89205444246E-02  0.31179918496E-02  0.10042599629E-01  0.10301404462E+01  0.10300481480E+01 0.  0.
     999903    2    3    3    0    0 -0.43269180999E-01  0.10582104046E+00  0.68503531222E-01  0.14070840039E+00  0.45119901627E-01 0.  0.
         14    1    1    2    0    0 -0.89205444246E-02 -0.31179918496E-02 -0.10042599629E-01  0.13789553775E-01  0.00000000000E+00 0.  1.
     999901    1    3    3    0    0  0.52189725424E-01 -0.10270304861E+00 -0.58460931592E-01  0.88943204583E+00  0.88000000000E+00 0.  1.
        -11    1    4    4    0    0 -0.33488630945E-01  0.89678207280E-01  0.34390300202E-01  0.10171835199E+00  0.51100000000E-03 0.  1.
         11    1    4    4    0    0 -0.97805500540E-02  0.16142833178E-01  0.34113231020E-01  0.38990048397E-01  0.51100000000E-03 0. -1.
</event>
<event>
 8    1  0.2091070E+004  0.1043930E+01  0.7957747E-01            NaN
         13   -1    0    0    0    0  0.00000000000E+00  0.00000000000E+00  0.74505805969E-08  0.10566000000E+00  0.10566000000E+00 0. -1.
     999900   -1    0    0    0    0 -0.00000000000E+00 -0.00000000000E+00 -0.74505805969E-08  0.93827000000E+00  0.93827000000E+00 0.  1.
     999902    2    1    2    0    0 -0.10114296197E-01 -0.36759276779E-02 -0.87035285034E-02  0.10300893772E+01  0.10299963894E+01 0.  0.
     999903    2    3    3    0    0  0.10667055410E+00 -0.29971784833E-01 -0.72555463782E-01  0.13969213829E+00  0.44414898149E-01 0.  0.
         14    1    1    2    0    0  0.10114296197E-01  0.36759276779E-02  0.87035285034E-02  0.13840622828E-01  0.00000000000E+00 0. -1.
     999901    1    3    3    0    0 -0.11678485030E+00  0.26295857155E-01  0.63851935278E-01  0.89039723888E+00  0.88000000000E+00 0. -1.
        -11    1    4    4    0    0  0.77448614281E-01 -0.37173014969E-01 -0.38210354995E-01  0.94023471781E-01  0.51100000000E-03 0. -1.
         11    1    4    4    0    0  0.29221939823E-01  0.72012301359E-02 -0.34345108787E-01  0.45668666513E-01  0.51100000000E-03 0.  1.
</event>
<event>
 8    1  0.2091070E+004  0.1043930E+01  0.7957747E-01            NaN
         13   -1    0    0    0    0  0.00000000000E+00  0.00000000000E+00  0.74505805969E-08  0.10566000000E+00  0.10566000000E+00 0.  1.
     999900   -1    0    0    0    0 -0.00000000000E+00 -0.00000000000E+00 -0.74505805969E-08  0.93827000000E+00  0.93827000000E+00 0.  1.
     999902    2    1    2    0    0 -0.11367195165E-01  0.56747483978E-02  0.33666384987E-02  0.10307865549E+01  0.10307027562E+01 0.  0.
     999903    2    3    3    0    0 -0.89314357748E-01 -0.47600680973E-01  0.89018087729E-01  0.14160142100E+00  0.43403492449E-01 0.  0.
         14    1    1    2    0    0  0.11367195165E-01 -0.56747483978E-02 -0.33666384987E-02  0.13143445137E-01  0.00000000000E+00 0. -1.
     999901    1    3    3    0    0  0.77947162583E-01  0.53275429371E-01 -0.85651449230E-01  0.88918513386E+00  0.88000000000E+00 0. -1.
        -11    1    4    4    0    0 -0.34266115357E-01 -0.23598326449E-01  0.64450687390E-01  0.76715056533E-01  0.51100000000E-03 0. -1.
         11    1    4    4    0    0 -0.55048242392E-01 -0.24002354524E-01  0.24567400339E-01  0.64886364465E-01  0.51100000000E-03 0.  1.
</event>
<event>
 8    1  0.2091070E+004  0.1043930E+01  0.7957747E-01            NaN
         13   -1    0    0    0    0  0.00000000000E+00  0.00000000000E+00  0.74505805969E-08  0.10566000000E+00  0.10566000000E+00 0. -1.
     999900   -1    0    0    0    0 -0.00000000000E+00 -0.00000000000E+00 -0.74505805969E-08  0.93827000000E+00  0.93827000000E+00 0. -1.
     999902    2    1    2    0    0  0.67134891140E-02 -0.63554866307E-02 -0.95924084193E-02  0.10306079339E+01  0.10305218270E+01 0.  0.
     999903    2    3    3    0    0 -0.18333982069E-01  0.12370968100E+00 -0.44097082873E-01  0.14002672130E+00  0.44974547133E-01 0.  0.
         14    1    1    2    0    0 -0.67134891140E-02  0.63554866307E-02  0.95924084193E-02  0.13322066119E-01  0.00000000000E+00 0. -1.
     999901    1    3    3    0    0  0.25047471183E-01 -0.13006516763E+00  0.34504674454E-01  0.89058121258E+00  0.88000000000E+00 0. -1.
        -11    1    4    4    0    0 -0.16815001691E-01  0.98547992632E-01 -0.14295167308E-01  0.10099041570E+00  0.51100000000E-03 0.  1.
         11    1    4    4    0    0 -0.15189803783E-02  0.25161688363E-01 -0.29801915565E-01  0.39036305602E-01  0.51100000000E-03 0. -1.
</event>
<event>
 8    1  0.2091070E+004  0.1043930E+01  0.7957747E-01            NaN
         13   -1    0    0    0    0  0.00000000000E+00  0.00000000000E+00  0.74505805969E-08  0.10566000000E+00  0.10566000000E+00 0. -1.
     999900   -1    0    0    0    0 -0.00000000000E+00 -0.00000000000E+00 -0.74505805969E-08  0.93827000000E+00  0.93827000000E+00 0.  1.
     999902    2    1    2    0    0 -0.11409290999E-01  0.65233963203E-02  0.22582699012E-02  0.10305948433E+01  0.10305085660E+01 0.  0.
     999903    2    3    3    0    0 -0.11872901867E+00 -0.18468395797E-01  0.58685988310E-01  0.14192943890E+00  0.47563209347E-01 0.  0.
         14    1    1    2    0    0  0.11409290999E-01 -0.65233963203E-02 -0.22582699012E-02  0.13335156677E-01  0.00000000000E+00 0.  1.
     999901    1    3    3    0    0  0.10731972767E+00  0.24991792118E-01 -0.56427718409E-01  0.88866540443E+00  0.88000000000E+00 0. -1.
        -11    1    4    4    0    0 -0.52360624542E-01 -0.16530762465E-01  0.51257534928E-01  0.75116556884E-01  0.51100000000E-03 0. -1.
         11    1    4    4    0    0 -0.66368394129E-01 -0.19376333327E-02  0.74284533823E-02  0.66812882012E-01  0.51100000000E-03 0.  1.
</event>
<event>
 8    1  0.2091070E+004  0.1043930E+01  0.7957747E-01            NaN
         13   -1    0    0    0    0  0.00000000000E+00  0.00000000000E+00  0.74505805969E-08  0.10566000000E+00  0.10566000000E+00 0.  1.
     999900   -1    0    0    0    0 -0.00000000000E+00 -0.00000000000E+00 -0.74505805969E-08  0.93827000000E+00  0.93827000000E+00 0.  1.
     999902    2    1    2    0    0 -0.86168811889E-03 -0.30525678737E-02 -0.14164437598E-01  0.10294147677E+01  0.10293124268E+01 0.  0.
     999903    2    3    3    0    0  0.39138510327E-01  0.12558967947E+00  0.32791571720E-02  0.13899176557E+00  0.44758992887E-01 0.  0.
         14    1    1    2    0    0  0.86168811889E-03  0.30525678737E-02  0.14164437598E-01  0.14515232327E-01  0.00000000000E+00 0.  1.
     999901    1    3    3    0    0 -0.40000198445E-01 -0.12864224734E+00 -0.17443594770E-01  0.89042300210E+00  0.88000000000E+00 0. -1.
        -11    1    4    4    0    0  0.40545455345E-01  0.95652277896E-01  0.18255721177E-01  0.10548376507E+00  0.51100000000E-03 0. -1.
         11    1    4    4    0    0 -0.14069450187E-02  0.29937401574E-01 -0.14976564005E-01  0.33508000503E-01  0.51100000000E-03 0.  1.
</event>
<event>
 8    1  0.2091070E+004  0.1043930E+01  0.7957747E-01            NaN
         13   -1    0    0    0    0  0.00000000000E+00  0.00000000000E+00  0.74505805969E-08  0.10566000000E+00  0.10566000000E+00 0.  1.
     999900   -1    0    0    0    0 -0.00000000000E+00 -0.00000000000E+00 -0.74505805969E-08  0.93827000000E+00  0.93827000000E+00 0.  1.
     999902    2    1    2    0    0 -0.10463256262E-01  0.29411892058E-02  0.78245085369E-02  0.10305377164E+01  0.10304506935E+01 0.  0.
     999903    2    3    3    0    0 -0.25705808116E-01 -0.12205894558E+00 -0.44752149583E-01  0.14002007254E+00  0.45207201369E-01 0.  0.
         14    1    1    2    0    0  0.10463256262E-01 -0.29411892058E-02 -0.78245085369E-02  0.13392283577E-01  0.00000000000E+00 0. -1.
     999901    1    3    3    0    0  0.15242551854E-01  0.12500013479E+00  0.52576658120E-01  0.89051764388E+00  0.88000000000E+00 0. -1.
        -11    1    4    4    0    0  0.42619076814E-02 -0.41945452082E-01  0.26123684031E-02  0.42245359474E-01  0.51100000000E-03 0.  1.
         11    1    4    4    0    0 -0.29967715797E-01 -0.80113493498E-01 -0.47364517986E-01  0.97774713068E-01  0.51100000000E-03 0. -1.
</event>
<event>
 8    1  0.2091070E+004  0.1043930E+01  0.7957747E-01            NaN
         13   -1    0    0    0    0  0.00000000000E+00  0.00000000000E+00  0.74505805969E-08  0.10566000000E+00  0.10566000000E+00 0. -1.
     999900   -1    0    0    0    0 -0.00000000000E+00 -0.00000000000E+00 -0.74505805969E-08  0.93827000000E+00  0.93827000000E+00 0.  1.
     999902    2    1    2    0    0  0.99215203846E-02 -0.37977110336E-02  0.67372822979E-02  0.10313502485E+01  0.10312735257E+01 0.  0.
     999903    2    3    3    0    0  0.14823652124E-01  0.13062553105E+00 -0.21979524567E-01  0.14066607666E+00  0.44956374413E-01 0.  0.
         14    1    1    2    0    0 -0.99215203846E-02  0.37977110336E-02 -0.67372822979E-02  0.12579751532E-01  0.00000000000E+00 0.  1.
     999901    1    3    3    0    0 -0.49021317392E-02 -0.13442324208E+00  0.28716806865E-01  0.89068417180E+00  0.88000000000E+00 0. -1.
        -11    1    4    4    0    0 -0.26825050811E-02  0.51311772414E-01 -0.29234021450E-01  0.59118380838E-01  0.51100000000E-03 0. -1.
         11    1    4    4    0    0  0.17506157205E-01  0.79313758632E-01  0.72544968830E-02  0.81547695825E-01  0.51100000000E-03 0.  1.
</event>
<event>
 8    1  0.2091070E+004  0.1043930E+01  0.7957747E-01            NaN
         13   -1    0    0    0    0  0.00000000000E+00  0.00000000000E+00  0.74505805969E-08  0.10566000000E+00  0.10566000000E+00 0. -1.
     999900   -1    0    0    0    0 -0.00000000000E+00 -0.00000000000E+00 -0.74505805969E-08  0.93827000000E+00  0.93827000000E+00 0.  1.
     999902    2    1    2    0    0  0.89759852262E-02  0.69158109103E-02  0.82317022710E-02  0.10299243699E+01  0.10298291364E+01 0.  0.
     999903    2    3    3    0    0 -0.62080238280E-01  0.11511163446E+00 -0.22260235778E-01  0.13993275120E+00  0.44508565328E-01 0.  0.
         14    1    1    2    0    0 -0.89759852262E-02 -0.69158109103E-02 -0.82317022710E-02  0.14005630068E-01  0.00000000000E+00 0.  1.
     999901    1    3    3    0    0  0.71056223506E-01 -0.10819582355E+00  0.30491938049E-01  0.88999161874E+00  0.88000000000E+00 0.  1.
        -11    1    4    4    0    0 -0.55896433857E-01  0.68102936127E-01 -0.27326281028E-01  0.92246452414E-01  0.51100000000E-03 0. -1.
         11    1    4    4    0    0 -0.61838044223E-02  0.47008698333E-01  0.50660452500E-02  0.47686298783E-01  0.51100000000E-03 0.  1.
</event>
<event>
 7    1  0.2091070E+004  0.1043930E+01  0.7957747E-01            NaN
         13   -1    0    0    0    0  0.00000000000E+00  0.00000000000E+00  0.74505805969E-08  0.10566000000E+00  0.10566000000E+00 0. -1.
     999900   -1    0    0    0    0 -0.00000000000E+00 -0.00000000000E+00 -0.74505805969E-08  0.93827000000E+00  0.93827000000E+00 0.  1.
     999902    2    1    2    0    0 -0.21325576362E-02  0.43769247368E-02 -0.12973867273E-01  0.10300726372E+01  0.10299794228E+01 0.  0.
         14    1    1    2    0    0  0.21325576362E-02 -0.43769247368E-02  0.12973867273E-01  0.13857362817E-01  0.00000000000E+00 0. -1.
     999901    1    3    3    0    0  0.72310574384E-01 -0.75125542420E-01  0.46612288037E-01  0.88738118736E+00  0.88000000000E+00 0. -1.
        -11    1    3    3    0    0 -0.57277577972E-01  0.23495471625E-01 -0.56839923547E-01  0.84046392873E-01  0.51100000000E-03 0. -1.
         11    1    3    3    0    0 -0.17165554048E-01  0.56006995532E-01 -0.27462317636E-02  0.58645056946E-01  0.51100000000E-03 0.  1.
</event>
<event>
 8    1  0.2091070E+004  0.1043930E+01  0.7957747E-01            NaN
         13   -1    0    0    0    0  0.00000000000E+00  0.00000000000E+00  0.74505805969E-08  0.10566000000E+00  0.10566000000E+00 0. -1.
     999900   -1    0    0    0    0 -0.00000000000E+00 -0.00000000000E+00 -0.74505805969E-08  0.93827000000E+00  0.93827000000E+00 0. -1.
     999902    2    1    2    0    0 -0.10182341785E-01  0.16175917158E-02 -0.20844648657E-01  0.10206749776E+01  0.10204100225E+01 0.  0.
     999903    2    3    3    0    0  0.66667892613E-01  0.43634620279E-01 -0.96697334533E-01  0.13307990151E+00  0.44847493670E-01 0.  0.
         14    1    1    2    0    0  0.10182341785E-01 -0.16175917158E-02  0.20844648657E-01  0.23255022357E-01  0.00000000000E+00 0. -1.
     999901    1    3    3    0    0 -0.76850234397E-01 -0.42017028564E-01  0.75852685876E-01  0.88759507613E+00  0.88000000000E+00 0.  1.
        -11    1    4    4    0    0  0.35087642227E-01  0.10800897989E-02 -0.56683768534E-01  0.66675482505E-01  0.51100000000E-03 0.  1.
         11    1    4    4    0    0  0.31580250386E-01  0.42554530480E-01 -0.40013565999E-01  0.66404419008E-01  0.51100000000E-03 0. -1.
</event>
<event>
 8    1  0.2091070E+004  0.1043930E+01  0.7957747E-01            NaN
         13   -1    0    0    0    0  0.00000000000E+00  0.00000000000E+00  0.74505805969E-08  0.10566000000E+00  0.10566000000E+00 0.  1.
     999900   -1    0    0    0    0 -0.00000000000E+00 -0.00000000000E+00 -0.74505805969E-08  0.93827000000E+00  0.93827000000E+00 0. -1.
     999902    2    1    2    0    0  0.90394545043E-02  0.16319134396E-02  0.98161687197E-02  0.10304863380E+01  0.10303986417E+01 0.  0.
     999903    2    3    3    0    0  0.41376983463E-01  0.88805417728E-01  0.92193431741E-01  0.14176199994E+00  0.44703230217E-01 0.  0.
         14    1    1    2    0    0 -0.90394545043E-02 -0.16319134396E-02 -0.98161687197E-02  0.13443661984E-01  0.00000000000E+00 0. -1.
     999901    1    3    3    0    0 -0.32337528959E-01 -0.87173504289E-01 -0.82377263021E-01  0.88872433808E+00  0.88000000000E+00 0. -1.
        -11    1    4    4    0    0  0.65420077902E-02  0.31047991542E-01  0.58059031645E-01  0.66165609808E-01  0.51100000000E-03 0.  1.
         11    1    4    4    0    0  0.34834975673E-01  0.57757426186E-01  0.34134400096E-01  0.75596390130E-01  0.51100000000E-03 0. -1.
</event>
<event>
 8    1  0.2091070E+004  0.1043930E+01  0.7957747E-01            NaN
         13   -1    0    0    0    0  0.00000000000E+00  0.00000000000E+00  0.74505805969E-08  0.10566000000E+00  0.10566000000E+00 0. -1.
     999900   -1    0    0    0    0 -0.00000000000E+00 -0.00000000000E+00 -0.74505805969E-08  0.93827000000E+00  0.93827000000E+00 0.  1.
     999902    2    1    2    0    0 -0.61793713012E-02  0.65512673763E-02  0.10529033799E-01  0.10300748823E+01  0.10299816983E+01 0.  0.
     999903    2    3    3    0    0  0.17419454190E-01 -0.90587069984E-01 -0.92615239924E-01  0.13842949182E+00  0.45559707056E-01 0.  0.
         14    1    1    2    0    0  0.61793713012E-02 -0.65512673763E-02 -0.10529033799E-01  0.13855117707E-01  0.00000000000E+00 0.  1.
     999901    1    3    3    0    0 -0.23598825491E-01  0.97138337360E-01  0.10314427372E+00  0.89164539047E+00  0.88000000000E+00 0. -1.
        -11    1    4    4    0    0  0.68794764216E-02 -0.76764746527E-01 -0.48634995467E-01  0.91136037934E-01  0.51100000000E-03 0.  1.
         11    1    4    4    0    0  0.10539977769E-01 -0.13822323457E-01 -0.43980244456E-01  0.47293453887E-01  0.51100000000E-03 0. -1.
</event>
<event>
 8    1  0.2091070E+004  0.1043930E+01  0.7957747E-01            NaN
         13   -1    0    0    0    0  0.00000000000E+00  0.00000000000E+00  0.74505805969E-08  0.10566000000E+00  0.10566000000E+00 0. -1.
     999900   -1    0    0    0    0 -0.00000000000E+00 -0.00000000000E+00 -0.74505805969E-08  0.93827000000E+00  0.93827000000E+00 0.  1.
     999902    2    1    2    0    0  0.28542606130E-02 -0.86156311598E-02  0.10716572057E-01  0.10298864669E+01  0.10297907137E+01 0.  0.
     999903    2    3    3    0    0  0.75293854857E-01  0.74099578850E-01  0.80512668473E-01  0.14030184711E+00  0.45192990080E-01 0.  0.
         14    1    1    2    0    0 -0.28542606130E-02  0.86156311598E-02 -0.10716572057E-01  0.14043533052E-01  0.00000000000E+00 0.  1.
     999901    1    3    3    0    0 -0.72439594244E-01 -0.82715210010E-01 -0.69796096416E-01  0.88958461984E+00  0.88000000000E+00 0.  1.
        -11    1    4    4    0    0  0.48694883601E-01  0.16487951504E-01  0.34425919275E-01  0.61874463817E-01  0.51100000000E-03 0.  1.
         11    1    4    4    0    0  0.26598971256E-01  0.57611627346E-01  0.46086749198E-01  0.78427383291E-01  0.51100000000E-03 0. -1.
</event>
<event>
 8    1  0.2091070E+004  0.1043930E+01  0.7957747E-01            NaN
         13   -1    0    0    0    0  0.00000000000E+00  0.00000000000E+00  0.74505805969E-08  0.10566000000E+00  0.10566000000E+00 0. -1.
     999900   -1    0    0    0    0 -0.00000000000E+00 -0.00000000000E+00 -0.74505805969E-08  0.93827000000E+00  0.93827000000E+00 0. -1.
     999902    2    1    2    0    0 -0.12921275169E-01  0.65730128729E-02  0.85601746235E-03  0.10294077200E+01  0.10293052790E+01 0.  0.
     999903    2    3    3    0    0  0.11997760039E+00 -0.49958729749E-01  0.11621370008E-02  0.13763530355E+00  0.45294888769E-01 0.  0.
         14    1    1    2    0    0  0.12921275169E-01 -0.65730128729E-02 -0.85601746235E-03  0.14522279991E-01  0.00000000000E+00 0. -1.
     999901    1    3    3    0    0 -0.13289887556E+00  0.56531742622E-01 -0.30611953849E-03  0.89177241646E+00  0.88000000000E+00 0. -1.
        -11    1    4    4    0    0  0.66813333450E-01 -0.38815908372E-01 -0.19201624564E-01  0.79621980485E-01  0.51100000000E-03 0. -1.
         11    1    4    4    0    0  0.53164266936E-01 -0.11142821377E-01  0.20363761565E-01  0.58013323066E-01  0.51100000000E-03 0.  1.
</event>
<event>
 8    1  0.2091070E+004  0.1043930E+01  0.7957747E-01            NaN
         13   -1    0    0    0    0  0.00000000000E+00  0.00000000000E+00  0.74505805969E-08  0.10566000000E+00  0.10566000000E+00 0. -1.
     999900   -1    0    0    0    0 -0.00000000000E+00 -0.00000000000E+00 -0.74505805969E-08  0.93827000000E+00  0.93827000000E+00 0.  1.
     999902    2    1    2    0    0  0.24441522902E-02 -0.98224746259E-02 -0.93059154242E-02  0.10301802745E+01  0.10300885123E+01 0.  0.
     999903    2    3    3    0    0  0.86254760630E-01 -0.72212605761E-01  0.71398307391E-01  0.14033201888E+00  0.44054659937E-01 0.  0.
         14    1    1    2    0    0 -0.24441522902E-02  0.98224746259E-02  0.93059154242E-02  0.13749725455E-01  0.00000000000E+00 0. -1.
     999901    1    3    3    0    0 -0.83810608340E-01  0.62390131135E-01 -0.80704222815E-01  0.88984825567E+00  0.88000000000E+00 0.  1.
        -11    1    4    4    0    0 -0.50508580500E-02 -0.63157730091E-02  0.63172249539E-02  0.10274658528E-01  0.51100000000E-03 0. -1.
         11    1    4    4    0    0  0.91305618680E-01 -0.65896832751E-01  0.65081082437E-01  0.13005736035E+00  0.51100000000E-03 0.  1.
</event>
<event>
 8    1  0.2091070E+004  0.1043930E+01  0.7957747E-01            NaN
         13   -1    0    0    0    0  0.00000000000E+00  0.00000000000E+00  0.74505805969E-08  0.10566000000E+00  0.10566000000E+00 0.  1.
     999900   -1    0    0    0    0 -0.00000000000E+00 -0.00000000000E+00 -0.74505805969E-08  0.93827000000E+00  0.93827000000E+00 0. -1.
     999902    2    1    2    0    0  0.77813518124E-02 -0.51624474118E-02 -0.76503945113E-02  0.10318581801E+01  0.10317875629E+01 0.  0.
     999903    2    3    3    0    0  0.12096502290E+00  0.59003759316E-01  0.36899187172E-02  0.14221979953E+00  0.45813486015E-01 0.  0.
         14    1    1    2    0    0 -0.77813518124E-02  0.51624474118E-02  0.76503945113E-02  0.12071819891E-01  0.00000000000E+00 0. -1.
     999901    1    3    3    0    0 -0.11318367109E+00 -0.64166206728E-01 -0.11340313229E-01  0.88963838057E+00  0.88000000000E+00 0. -1.
        -11    1    4    4    0    0  0.85745756937E-01  0.58745925257E-01  0.15453989031E-01  0.10508332629E+00  0.51100000000E-03 0.  1.
         11    1    4    4    0    0  0.35219265964E-01  0.25783405871E-03 -0.11764070314E-01  0.37136473241E-01  0.51100000000E-03 0. -1.
</event>
<event>
 8    1  0.2091070E+004  0.1043930E+01  0.7957747E-01            NaN
         13   -1    0    0    0    0  0.00000000000E+00  0.00000000000E+00  0.74505805969E-08  0.10566000000E+00  0.10566000000E+00 0.  1.
     999900   -1    0    0    0    0 -0.00000000000E+00 -0.00000000000E+00 -0.74505805969E-08  0.93827000000E+00  0.93827000000E+00 0. -1.
     999902    2    1    2    0    0 -0.74937843645E-02  0.10616885549E-01  0.35137947419E-02  0.10304681347E+01  0.10303801992E+01 0.  0.
     999903    2    3    3    0    0 -0.12472478764E+00  0.13787699417E-01 -0.45975334062E-01  0.14130991706E+00  0.45917186433E-01 0.  0.
         14    1    1    2    0    0  0.74937843645E-02 -0.10616885549E-01 -0.35137947419E-02  0.13461865263E-01  0.00000000000E+00 0.  1.
     999901    1    3    3    0    0  0.11723100328E+00 -0.31708138674E-02  0.49489128804E-01  0.88915821768E+00  0.88000000000E+00 0.  1.
        -11    1    4    4    0    0 -0.72200206609E-01  0.25848597900E-01 -0.12058510417E-01  0.77631750221E-01  0.51100000000E-03 0.  1.
         11    1    4    4    0    0 -0.52524581034E-01 -0.12060898484E-01 -0.33916823646E-01  0.63678166841E-01  0.51100000000E-03 0. -1.
</event>
<event>
 8    1  0.2091070E+004  0.1043930E+01  0.7957747E-01            NaN
         13   -1    0    0    0    0  0.00000000000E+00  0.00000000000E+00  0.74505805969E-08  0.10566000000E+00  0.10566000000E+00 0.  1.
     999900   -1    0    0    0    0 -0.00000000000E+00 -0.00000000000E+00 -0.74505805969E-08  0.93827000000E+00  0.93827000000E+00 0. -1.
     999902    2    1    2    0    0 -0.81256072941E-03  0.60860350863E-02 -0.11795242522E-01  0.10306323376E+01  0.10305465480E+01 0.  0.
     999903    2    3    3    0    0 -0.12594135546E+00 -0.40490776198E-01  0.94489550257E-02  0.14030771676E+00  0.45784764490E-01 0.  0.
         14    1    1    2    0    0  0.81256072941E-03 -0.60860350863E-02  0.11795242522E-01  0.13297662357E-01  0.00000000000E+00 0.  1.
     999901    1    3    3    0    0  0.12512879473E+00  0.46576811284E-01 -0.21244197547E-01  0.89032462088E+00  0.88000000000E+00 0.  1.
        -11    1    4    4    0    0 -0.55223400725E-01 -0.32920337160E-01 -0.13260009816E-01  0.65646489378E-01  0.51100000000E-03 0.  1.
         11    1    4    4    0    0 -0.70717954735E-01 -0.75704390384E-02  0.22708964842E-01  0.74661227383E-01  0.51100000000E-03 0. -1.
</event>
<event>
 8    1  0.2091070E+004  0.1043930E+01  0.7957747E-01            NaN
         13   -1    0    0    0    0  0.00000000000E+00  0.00000000000E+00  0.74505805969E-08  0.10566000000E+00  0.10566000000E+00 0.  1.
     999900   -1    0    0    0    0 -0.00000000000E+00 -0.00000000000E+00 -0.74505805969E-08  0.93827000000E+00  0.93827000000E+00 0. -1.
     999902    2    1    2    0    0  0.66069278856E-02 -0.73853812932E-02  0.89834578808E-02  0.10305547292E+01  0.10304679287E+01 0.  0.
     999903    2    3    3    0    0 -0.11608866853E+00 -0.56386255074E-01 -0.29746689121E-01  0.13984977285E+00  0.44912189103E-01 0.  0.
         14    1    1    2    0    0 -0.66069278856E-02  0.73853812932E-02 -0.89834578808E-02  0.13375270780E-01  0.00000000000E+00 0. -1.
     999901    1    3    3    0    0  0.12269559642E+00  0.49000873781E-01  0.38730147002E-01  0.89070495637E+00  0.88000000000E+00 0. -1.
        -11    1    4    4    0    0 -0.48207253929E-01 -0.48351335840E-01 -0.15833095445E-01  0.70090934087E-01  0.51100000000E-03 0.  1.
         11    1    4    4    0    0 -0.67881414605E-01 -0.80349192341E-02 -0.13913593676E-01  0.69758838765E-01  0.51100000000E-03 0. -1.
</event>
<event>
 8    1  0.2091070E+004  0.1043930E+01  0.7957747E-01            NaN
         13   -1    0    0    0    0  0.00000000000E+00  0.00000000000E+00  0.74505805969E-08  0.10566000000E+00  0.10566000000E+00 0. -1.
     999900   -1    0    0    0    0 -0.00000000000E+00 -0.00000000000E+00 -0.74505805969E-08  0.93827000000E+00  0.93827000000E+00 0.  1.
     999902    2    1    2    0    0  0.25252564387E-02  0.12293779805E-01  0.30917800818E-02  0.10310043261E+01  0.10309232985E+01 0.  0.
     999903    2    3    3    0    0  0.93826386948E-01 -0.55704935555E-01  0.75866361993E-01  0.14069209912E+00  0.46175005566E-01 0.  0.
         14    1    1    2    0    0 -0.25252564387E-02 -0.12293779805E-01 -0.30917800818E-02  0.12925673911E-01  0.00000000000E+00 0.  1.
     999901    1    3    3    0    0 -0.91301130509E-01  0.67998715361E-01 -0.72774581911E-01  0.89031222697E+00  0.88000000000E+00 0.  1.
        -11    1    4    4    0    0  0.31095381718E-01 -0.76946143598E-02  0.46385786669E-01  0.56374038176E-01  0.51100000000E-03 0. -1.
         11    1    4    4    0    0  0.62731005230E-01 -0.48010321195E-01  0.29480575324E-01  0.84318060941E-01  0.51100000000E-03 0.  1.
</event>
<event>
 8    1  0.2091070E+004  0.1043930E+01  0.7957747E-01            NaN
         13   -1    0    0    0    0  0.00000000000E+00  0.00000000000E+00  0.74505805969E-08  0.10566000000E+00  0.10566000000E+00 0. -1.
     999900   -1    0    0    0    0 -0.00000000000E+00 -0.00000000000E+00 -0.74505805969E-08  0.93827000000E+00  0.93827000000E+00 0. -1.
     999902    2    1    2    0    0 -0.69155995498E-02  0.21223505816E-02 -0.11483126134E-01  0.10303582619E+01  0.10302688755E+01 0.  0.
     999903    2    3    3    0    0  0.35649478632E-01 -0.16850385241E-01 -0.12816634494E+00  0.14143378585E+00  0.44967577139E-01 0.  0.
         14    1    1    2    0    0  0.69155995498E-02 -0.21223505816E-02  0.11483126134E-01  0.13571738096E-01  0.00000000000E+00 0. -1.
     999901    1    3    3    0    0 -0.42565078181E-01  0.18972735823E-01  0.11668321881E+00  0.88892447606E+00  0.88000000000E+00 0.  1.
        -11    1    4    4    0    0  0.22491718974E-01  0.27104514082E-02 -0.18476537532E-01  0.29238117747E-01  0.51100000000E-03 0.  1.
         11    1    4    4    0    0  0.13157759657E-01 -0.19560836649E-01 -0.10968980741E+00  0.11219566810E+00  0.51100000000E-03 0. -1.
</event>
<event>
 8    1  0.2091070E+004  0.1043930E+01  0.7957747E-01            NaN
         13   -1    0    0    0    0  0.00000000000E+00  0.00000000000E+00  0.74505805969E-08  0.10566000000E+00  0.10566000000E+00 0. -1.
     999900   -1    0    0    0    0 -0.00000000000E+00 -0.00000000000E+00 -0.74505805969E-08  0.93827000000E+00  0.93827000000E+00 0. -1.
     999902    2    1    2    0    0  0.16298243997E-02 -0.47525283187E-02  0.13419297067E-01  0.10296009949E+01  0.10295012814E+01 0.  0.
     999903    2    3    3    0    0  0.42239831591E-01 -0.21211729198E-01 -0.12140805303E+00  0.13825454582E+00  0.46262979474E-01 0.  0.
         14    1    1    2    0    0 -0.16298243997E-02  0.47525283187E-02 -0.13419297067E-01  0.14329005086E-01  0.00000000000E+00 0.  1.
     999901    1    3    3    0    0 -0.40610007191E-01  0.16459200880E-01  0.13482735010E+00  0.89134644909E+00  0.88000000000E+00 0.  1.
        -11    1    4    4    0    0  0.77996458378E-02 -0.29374185067E-01 -0.63168634497E-01  0.70101460247E-01  0.51100000000E-03 0. -1.
         11    1    4    4    0    0  0.34440185753E-01  0.81624558688E-02 -0.58239418537E-01  0.68153085573E-01  0.51100000000E-03 0.  1.
</event>
<event>
 8    1  0.2091070E+004  0.1043930E+01  0.7957747E-01            NaN
         13   -1    0    0    0    0  0.00000000000E+00  0.00000000000E+00  0.74505805969E-08  0.10566000000E+00  0.10566000000E+00 0.  1.
     999900   -1    0    0    0    0 -0.00000000000E+00 -0.00000000000E+00 -0.74505805969E-08  0.93827000000E+00  0.93827000000E+00 0. -1.
     999902    2    1    2    0    0  0.15992665554E-02 -0.11272318438E-01 -0.14329684163E-01  0.10256280147E+01  0.10254647054E+01 0.  0.
     999903    2    3    3    0    0 -0.11753462216E+00  0.46997357456E-01  0.14355137414E-01  0.13522863380E+00  0.45360494000E-01 0.  0.
         14    1    1    2    0    0 -0.15992665554E-02  0.11272318438E-01  0.14329684163E-01  0.18301985266E-01  0.00000000000E+00 0.  1.
     999901    1    3    3    0    0  0.11913388872E+00 -0.58269675894E-01 -0.28684821576E-01  0.89039938093E+00  0.88000000000E+00 0. -1.
        -11    1    4    4    0    0 -0.64723312891E-01  0.11351699766E-01 -0.11045176903E-01  0.66635016118E-01  0.51100000000E-03 0. -1.
         11    1    4    4    0    0 -0.52811309271E-01  0.35645657690E-01  0.25400314316E-01  0.68593617687E-01  0.51100000000E-03 0.  1.
</event>
<event>
 8    1  0.2091070E+004  0.1043930E+01  0.7957747E-01            NaN
         13   -1    0    0    0    0  0.00000000000E+00  0.00000000000E+00  0.74505805969E-08  0.10566000000E+00  0.10566000000E+00 0. -1.
     999900   -1    0    0    0    0 -0.00000000000E+00 -0.00000000000E+00 -0.74505805969E-08  0.93827000000E+00  0.93827000000E+00 0.  1.
     999902    2    1    2    0    0 -0.33227520169E-02 -0.79960475278E-02 -0.11438643528E-01  0.10295835711E+01  0.10294836132E+01 0.  0.
     999903    2    3    3    0    0  0.10728777700E-01  0.12794185540E+00  0.26131015658E-01  0.13824298621E+00  0.44091589039E-01 0.  0.
         14    1    1    2    0    0  0.33227520169E-02  0.79960475278E-02  0.11438643528E-01  0.14346428921E-01  0.00000000000E+00 0. -1.
     999901    1    3    3    0    0 -0.14051529717E-01 -0.13593790293E+00 -0.37569659186E-01  0.89134058487E+00  0.88000000000E+00 0.  1.
        -11    1    4    4    0    0 -0.81000680911E-03  0.89488708723E-01  0.36697288608E-01  0.96725576825E-01  0.51100000000E-03 0. -1.
         11    1    4    4    0    0  0.11538784509E-01  0.38453146675E-01 -0.10566272950E-01  0.41517409387E-01  0.51100000000E-03 0.  1.
</event>
<event>
 8    1  0.2091070E+004  0.1043930E+01  0.7957747E-01            NaN
         13   -1    0    0    0    0  0.00000000000E+00  0.00000000000E+00  0.74505805969E-08  0.10566000000E+00  0.10566000000E+00 0.  1.
     999900   -1    0    0    0    0 -0.00000000000E+00 -0.00000000000E+00 -0.74505805969E-08  0.93827000000E+00  0.93827000000E+00 0.  1.
     999902    2    1    2    0    0  0.13936842662E-01 -0.14490972804E-02 -0.39546971894E-03  0.10299124445E+01  0.10298170476E+01 0.  0.
     999903    2    3    3    0    0 -0.11341023003E+00  0.51045298502E-01  0.40033614256E-01  0.13828054210E+00  0.45291448190E-01 0.  0.
         14    1    1    2    0    0 -0.13936842662E-01  0.14490972804E-02  0.39546971894E-03  0.14017555515E-01  0.00000000000E+00 0.  1.
     999901    1    3    3    0    0  0.12734707269E+00 -0.52494395783E-01 -0.40429083975E-01  0.89163190238E+00  0.88000000000E+00 0.  1.
        -11    1    4    4    0    0 -0.72576460546E-02  0.15772086086E-01  0.16528813658E-01  0.23976966607E-01  0.51100000000E-03 0.  1.
         11    1    4    4    0    0 -0.10615258398E+00  0.35273212417E-01  0.23504800599E-01  0.11430357550E+00  0.51100000000E-03 0. -1.
</event>
<event>
 8    1  0.2091070E+004  0.1043930E+01  0.7957747E-01            NaN
         13   -1    0    0    0    0  0.00000000000E+00  0.00000000000E+00  0.74505805969E-08  0.10566000000E+00  0.10566000000E+00 0. -1.
     999900   -1    0    0    0    0 -0.00000000000E+00 -0.00000000000E+00 -0.74505805969E-08  0.93827000000E+00  0.93827000000E+00 0.  1.
     999902    2    1    2    0    0  0.48912195711E-02  0.11999562986E-01  0.35727268104E-02  0.10304883514E+01  0.10304006815E+01 0.  0.
     999903    2    3    3    0    0  0.71340812059E-01 -0.73658722205E-01 -0.83248883891E-01  0.13959504562E+00  0.45180540837E-01 0.  0.
         14    1    1    2    0    0 -0.48912195711E-02 -0.11999562986E-01 -0.35727268104E-02  0.13441648620E-01  0.00000000000E+00 0.  1.
     999901    1    3    3    0    0 -0.66449592488E-01  0.85658285191E-01  0.86821610702E-01  0.89089330576E+00  0.88000000000E+00 0. -1.
        -11    1    4    4    0    0  0.24203369403E-01  0.16543014996E-03 -0.22014095394E-01  0.32721735507E-01  0.51100000000E-03 0. -1.
         11    1    4    4    0    0  0.47137442656E-01 -0.73824152355E-01 -0.61234788497E-01  0.10687331011E+00  0.51100000000E-03 0.  1.
</event>
<event>
 8    1  0.2091070E+004  0.1043930E+01  0.7957747E-01            NaN
         13   -1    0    0    0    0  0.00000000000E+00  0.00000000000E+00  0.74505805969E-08  0.10566000000E+00  0.10566000000E+00 0.  1.
     999900   -1    0    0    0    0 -0.00000000000E+00 -0.00000000000E+00 -0.74505805969E-08  0.93827000000E+00  0.93827000000E+00 0.  1.
     999902    2    1    2    0    0 -0.78263744220E-02  0.60859508988E-02  0.86305154234E-02  0.10307855437E+01  0.10307017320E+01 0.  0.
     999903    2    3    3    0    0  0.94145164827E-01  0.68268770374E-01  0.65421553302E-01  0.14090346172E+00  0.45275477008E-01 0.  0.
         14    1    1    2    0    0  0.78263744220E-02 -0.60859508988E-02 -0.86305154234E-02  0.13144456300E-01  0.00000000000E+00 0. -1.
     999901    1    3    3    0    0 -0.10197153925E+00 -0.62182819475E-01 -0.56791037879E-01  0.88988208199E+00  0.88000000000E+00 0.  1.
        -11    1    4    4    0    0  0.48528308746E-01  0.81300937010E-02  0.28638494915E-01  0.56934345393E-01  0.51100000000E-03 0. -1.
         11    1    4    4    0    0  0.45616856081E-01  0.60138676673E-01  0.36783058387E-01  0.83969116323E-01  0.51100000000E-03 0.  1.
</event>
<event>
 8    1  0.2091070E+004  0.1043930E+01  0.7957747E-01            NaN
         13   -1    0    0    0    0  0.00000000000E+00  0.00000000000E+00  0.74505805969E-08  0.10566000000E+00  0.10566000000E+00 0. -1.
     999900   -1    0    0    0    0 -0.00000000000E+00 -0.00000000000E+00 -0.74505805969E-08  0.93827000000E+00  0.93827000000E+00 0.  1.
     999902    2    1    2    0    0 -0.23523806246E-02 -0.13909048973E-01  0.73673742673E-03  0.10298042037E+01  0.10297073176E+01 0.  0.
     999903    2    3    3    0    0  0.10072595636E+00  0.49549819932E-01  0.67684769785E-01  0.13899883182E+00  0.46244396935E-01 0.  0.
         14    1    1    2    0    0  0.23523806246E-02  0.13909048973E-01 -0.73673742673E-03  0.14125796260E-01  0.00000000000E+00 0. -1.
     999901    1    3    3    0    0 -0.10307833698E+00 -0.63458868905E-01 -0.66948032358E-01  0.89080537192E+00  0.88000000000E+00 0. -1.
        -11    1    4    4    0    0  0.23838655215E-02  0.26148569765E-02  0.19545674076E-01  0.19869946853E-01  0.51100000000E-03 0. -1.
         11    1    4    4    0    0  0.98342090837E-01  0.46934962956E-01  0.48139095709E-01  0.11912888497E+00  0.51100000000E-03 0.  1.
</event>
<event>
 8    1  0.2091070E+004  0.1043930E+01  0.7957747E-01            NaN
         13   -1    0    0    0    0  0.00000000000E+00  0.00000000000E+00  0.74505805969E-08  0.10566000000E+00  0.10566000000E+00 0.  1.
     999900   -1    0    0    0    0 -0.00000000000E+00 -0.00000000000E+00 -0.74505805969E-08  0.93827000000E+00  0.93827000000E+00 0.  1.
     999902    2    1    2    0    0 -0.12873850005E-03  0.12304719031E-01 -0.50710767069E-02  0.10306206611E+01  0.10305347197E+01 0.  0.
     999903    2    3    3    0    0  0.10028522315E+00 -0.23957036352E-01  0.81778758974E-01  0.13992387059E+00  0.47537969759E-01 0.  0.
         14    1    1    2    0    0  0.12873850005E-03 -0.12304719031E-01  0.50710767069E-02  0.13309338940E-01  0.00000000000E+00 0.  1.
     999901    1    3    3    0    0 -0.10041396165E+00  0.36261755383E-01 -0.86849835681E-01  0.89069679047E+00  0.88000000000E+00 0. -1.
        -11    1    4    4    0    0  0.71783781023E-01 -0.13435123839E-01  0.28119387794E-01  0.78258385247E-01  0.51100000000E-03 0.  1.
         11    1    4    4    0    0  0.28501442125E-01 -0.10521912513E-01  0.53659371179E-01  0.61665485342E-01  0.51100000000E-03 0. -1.
</event>
<event>
 8    1  0.2091070E+004  0.1043930E+01  0.7957747E-01            NaN
         13   -1    0    0    0    0  0.00000000000E+00  0.00000000000E+00  0.74505805969E-08  0.10566000000E+00  0.10566000000E+00 0. -1.
     999900   -1    0    0    0    0 -0.00000000000E+00 -0.00000000000E+00 -0.74505805969E-08  0.93827000000E+00  0.93827000000E+00 0.  1.
     999902    2    1    2    0    0 -0.12152548622E-01  0.40306411768E-02 -0.21134246187E-02  0.10309532103E+01  0.10308715365E+01 0.  0.
     999903    2    3    3    0    0 -0.13236205632E+00 -0.27316758519E-01  0.70400063511E-02  0.14218059009E+00  0.43587145576E-01 0.  0.
         14    1    1    2    0    0  0.12152548622E-01 -0.40306411768E-02  0.21134246187E-02  0.12976789662E-01  0.00000000000E+00 0.  1.
     999901    1    3    3    0    0  0.12020950770E+00  0.31347399696E-01 -0.91534309698E-02  0.88877262025E+00  0.88000000000E+00 0.  1.
        -11    1    4    4    0    0 -0.21805504085E-01 -0.43246590554E-02  0.18162464924E-01  0.28710955008E-01  0.51100000000E-03 0. -1.
         11    1    4    4    0    0 -0.11055655223E+00 -0.22992099464E-01 -0.11122458573E-01  0.11346963508E+00  0.51100000000E-03 0.  1.
</event>
<event>
 8    1  0.2091070E+004  0.1043930E+01  0.7957747E-01            NaN
         13   -1    0    0    0    0  0.00000000000E+00  0.00000000000E+00  0.74505805969E-08  0.10566000000E+00  0.10566000000E+00 0. -1.
     999900   -1    0    0    0    0 -0.00000000000E+00 -0.00000000000E+00 -0.74505805969E-08  0.93827000000E+00  0.93827000000E+00 0. -1.
     999902    2    1    2    0    0 -0.37651200651E-02  0.72264117048E-02  0.11481483473E-01  0.10298508801E+01  0.10297546376E+01 0.  0.
     999903    2    3    3    0    0  0.37022110948E-01  0.87645280356E-01 -0.91119919116E-01  0.13931293003E+00  0.45309170663E-01 0.  0.
         14    1    1    2    0    0  0.37651200651E-02 -0.72264117048E-02 -0.11481483473E-01  0.14079119929E-01  0.00000000000E+00 0. -1.
     999901    1    3    3    0    0 -0.40787231013E-01 -0.80418868651E-01  0.10260140259E+00  0.89053795004E+00  0.88000000000E+00 0.  1.
        -11    1    4    4    0    0  0.32654316157E-01  0.40185941994E-01 -0.70271313642E-01  0.87289936072E-01  0.51100000000E-03 0.  1.
         11    1    4    4    0    0  0.43677947908E-02  0.47459338362E-01 -0.20848605475E-01  0.52022993958E-01  0.51100000000E-03 0. -1.
</event>
<event>
 8    1  0.2091070E+004  0.1043930E+01  0.7957747E-01            NaN
         13   -1    0    0    0    0  0.00000000000E+00  0.00000000000E+00  0.74505805969E-08  0.10566000000E+00  0.10566000000E+00 0. -1.
     999900   -1    0    0    0    0 -0.00000000000E+00 -0.00000000000E+00 -0.74505805969E-08  0.93827000000E+00  0.93827000000E+00 0.  1.
     999902    2    1    2    0    0  0.68092775663E-03  0.61792867445E-02  0.14707791792E-01  0.10279623331E+01  0.10278383102E+01 0.  0.
     999903    2    3    3    0    0 -0.51177071007E-01  0.10045139690E+00  0.69191071503E-01  0.13973662384E+00  0.45048240044E-01 0.  0.
         14    1    1    2    0    0 -0.68092775663E-03 -0.61792867445E-02 -0.14707791792E-01  0.15967666914E-01  0.00000000000E+00 0.  1.
     999901    1    3    3    0    0  0.51857998764E-01 -0.94272110158E-01 -0.54483279711E-01  0.88822570924E+00  0.88000000000E+00 0. -1.
        -11    1    4    4    0    0  0.30664968485E-02  0.27393258627E-01  0.41343770684E-02  0.27877378210E-01  0.51100000000E-03 0.  1.
         11    1    4    4    0    0 -0.54243567855E-01  0.73058138276E-01  0.65056694435E-01  0.11185924563E+00  0.51100000000E-03 0. -1.
</event>
<event>
 8    1  0.2091070E+004  0.1043930E+01  0.7957747E-01            NaN
         13   -1    0    0    0    0  0.00000000000E+00  0.00000000000E+00  0.74505805969E-08  0.10566000000E+00  0.10566000000E+00 0.  1.
     999900   -1    0    0    0    0 -0.00000000000E+00 -0.00000000000E+00 -0.74505805969E-08  0.93827000000E+00  0.93827000000E+00 0.  1.
     999902    2    1    2    0    0 -0.11875608033E-01 -0.62113548725E-03  0.63070727096E-02  0.10304691292E+01  0.10303812068E+01 0.  0.
     999903    2    3    3    0    0 -0.73461849278E-01 -0.16548861675E-01  0.11153221307E+00  0.14192037552E+00  0.45071613161E-01 0.  0.
         14    1    1    2    0    0  0.11875608033E-01  0.62113548725E-03 -0.63070727096E-02  0.13460870759E-01  0.00000000000E+00 0. -1.
     999901    1    3    3    0    0  0.61586241246E-01  0.15927726188E-01 -0.10522514036E+00  0.88854875372E+00  0.88000000000E+00 0.  1.
        -11    1    4    4    0    0 -0.36126824197E-01 -0.14560840691E-01  0.21639444136E-01  0.44561106042E-01  0.51100000000E-03 0.  1.
         11    1    4    4    0    0 -0.37335025081E-01 -0.19880209837E-02  0.89892768937E-01  0.97359269479E-01  0.51100000000E-03 0. -1.
</event>
<event>
 7    1  0.2091070E+004  0.1043930E+01  0.7957747E-01            NaN
         13   -1    0    0    0    0  0.00000000000E+00  0.00000000000E+00  0.74505805969E-08  0.10566000000E+00  0.10566000000E+00 0.  1.
     999900   -1    0    0    0    0 -0.00000000000E+00 -0.00000000000E+00 -0.74505805969E-08  0.93827000000E+00  0.93827000000E+00 0.  1.
     999902    2    1    2    0    0 -0.95104900813E-02  0.16237941501E-02  0.95177471349E-02  0.10303773752E+01  0.10302882420E+01 0.  0.
         14    1    1    2    0    0  0.95104900813E-02 -0.16237941501E-02 -0.95177471349E-02  0.13552624822E-01  0.00000000000E+00 0. -1.
     999901    1    3    3    0    0  0.16564609564E-01 -0.12859149902E+00 -0.25264791262E-01  0.88985867956E+00  0.88000000000E+00 0.  1.
        -11    1    3    3    0    0 -0.31450078212E-01  0.11520262618E+00  0.35390068200E-01  0.12455308325E+00  0.51100000000E-03 0.  1.
         11    1    3    3    0    0  0.53749785666E-02  0.15012666998E-01 -0.60752980334E-03  0.15965612373E-01  0.51100000000E-03 0. -1.
</event>
<event>
 8    1  0.2091070E+004  0.1043930E+01  0.7957747E-01            NaN
         13   -1    0    0    0    0  0.00000000000E+00  0.00000000000E+00  0.74505805969E-08  0.10566000000E+00  0.10566000000E+00 0. -1.
     999900   -1    0    0    0    0 -0.00000000000E+00 -0.00000000000E+00 -0.74505805969E-08  0.93827000000E+00  0.93827000000E+00 0.  1.
     999902    2    1    2    0    0 -0.66435472086E-02 -0.87769902108E-02  0.88536508286E-02  0.10298034502E+01  0.10297065536E+01 0.  0.
     999903    2    3    3    0    0  0.11663632773E+00  0.17587163088E-01  0.58407035016E-01  0.13943917977E+00  0.46027837920E-01 0.  0.
         14    1    1    2    0    0  0.66435472086E-02  0.87769902108E-02 -0.88536508286E-02  0.14126549815E-01  0.00000000000E+00 0.  1.
     999901    1    3    3    0    0 -0.12327987494E+00 -0.26364153299E-01 -0.49553384188E-01  0.89036427041E+00  0.88000000000E+00 0.  1.
        -11    1    4    4    0    0  0.58972179856E-01 -0.96970148091E-02  0.13080295570E-01  0.61180923060E-01  0.51100000000E-03 0.  1.
         11    1    4    4    0    0  0.57664147876E-01  0.27284177897E-01  0.45326739446E-01  0.78258256712E-01  0.51100000000E-03 0. -1.
</event>
<event>
 8    1  0.2091070E+004  0.1043930E+01  0.7957747E-01            NaN
         13   -1    0    0    0    0  0.00000000000E+00  0.00000000000E+00  0.74505805969E-08  0.10566000000E+00  0.10566000000E+00 0.  1.
     999900   -1    0    0    0    0 -0.00000000000E+00 -0.00000000000E+00 -0.74505805969E-08  0.93827000000E+00  0.93827000000E+00 0.  1.
     999902    2    1    2    0    0  0.12004965523E-01  0.60870378302E-02  0.88390005182E-02  0.10278272314E+01  0.10277010842E+01 0.  0.
     999903    2    3    3    0    0 -0.57297509698E-01 -0.10495413357E+00  0.49522246936E-01  0.13721614828E+00  0.45578982408E-01 0.  0.
         14    1    1    2    0    0 -0.12004965523E-01 -0.60870378302E-02 -0.88390005182E-02  0.16102768610E-01  0.00000000000E+00 0.  1.
     999901    1    3    3    0    0  0.69302475221E-01  0.11104117140E+00 -0.40683246418E-01  0.89061108311E+00  0.88000000000E+00 0. -1.
        -11    1    4    4    0    0 -0.30836372006E-01 -0.26319165509E-01 -0.91384436637E-04  0.40544417417E-01  0.51100000000E-03 0.  1.
         11    1    4    4    0    0 -0.26461137692E-01 -0.78634968056E-01  0.49613631373E-01  0.96671730864E-01  0.51100000000E-03 0. -1.
</event>
<event>
 8    1  0.2091070E+004  0.1043930E+01  0.7957747E-01            NaN
         13   -1    0    0    0    0  0.00000000000E+00  0.00000000000E+00  0.74505805969E-08  0.10566000000E+00  0.10566000000E+00 0.  1.
     999900   -1    0    0    0    0 -0.00000000000E+00 -0.00000000000E+00 -0.74505805969E-08  0.93827000000E+00  0.93827000000E+00 0.  1.
     999902    2    1    2    0    0 -0.94768518467E-02 -0.95388753655E-02 -0.25027522014E-02  0.10302528427E+01  0.10301620529E+01 0.  0.
     999903    2    3    3    0    0 -0.98122813651E-01 -0.71381363923E-01 -0.57919050824E-01  0.14190968482E+00  0.45391150278E-01 0.  0.
         14    1    1    2    0    0  0.94768518467E-02  0.95388753655E-02  0.25027522014E-02  0.13677157334E-01  0.00000000000E+00 0. -1.
     999901    1    3    3    0    0  0.88645961804E-01  0.61842488558E-01  0.55416298622E-01  0.88834315784E+00  0.88000000000E+00 0.  1.
        -11    1    4    4    0    0 -0.66721764955E-02 -0.26224111242E-01 -0.17325364498E-01  0.32134892650E-01  0.51100000000E-03 0. -1.
         11    1    4    4    0    0 -0.91450637156E-01 -0.45157252682E-01 -0.40593686325E-01  0.10977479217E+00  0.51100000000E-03 0.  1.
</event>
<event>
 8    1  0.2091070E+004  0.1043930E+01  0.7957747E-01            NaN
         13   -1    0    0    0    0  0.00000000000E+00  0.00000000000E+00  0.74505805969E-08  0.10566000000E+00  0.10566000000E+00 0. -1.
     999900   -1    0    0    0    0 -0.00000000000E+00 -0.00000000000E+00 -0.74505805969E-08  0.93827000000E+00  0.93827000000E+00 0. -1.
     999902    2    1    2    0    0 -0.53252244466E-02 -0.18217685059E-01 -0.20946259916E-02  0.10248347251E+01  0.10246568129E+01 0.  0.
     999903    2    3    3    0    0  0.17051208419E-01  0.75729800789E-01  0.98861244215E-01  0.13381344448E+00  0.45899301513E-01 0.  0.
         14    1    1    2    0    0  0.53252244466E-02  0.18217685059E-01  0.20946259916E-02  0.19095274870E-01  0.00000000000E+00 0. -1.
     999901    1    3    3    0    0 -0.22376432865E-01 -0.93947485848E-01 -0.10095587021E+00  0.89102128065E+00  0.88000000000E+00 0.  1.
        -11    1    4    4    0    0  0.20418530158E-01  0.39389555654E-01  0.82794402494E-01  0.93934166701E-01  0.51100000000E-03 0. -1.
         11    1    4    4    0    0 -0.33673217394E-02  0.36340245135E-01  0.16066841721E-01  0.39879277777E-01  0.51100000000E-03 0.  1.
</event>
<event>
 8    1  0.2091070E+004  0.1043930E+01  0.7957747E-01            NaN
         13   -1    0    0    0    0  0.00000000000E+00  0.00000000000E+00  0.74505805969E-08  0.10566000000E+00  0.10566000000E+00 0. -1.
     999900   -1    0    0    0    0 -0.00000000000E+00 -0.00000000000E+00 -0.74505805969E-08  0.93827000000E+00  0.93827000000E+00 0.  1.
     999902    2    1    2    0    0  0.27562483441E-02 -0.18228896726E-02 -0.13309317762E-01  0.10302165843E+01  0.10301253092E+01 0.  0.
     999903    2    3    3    0    0  0.48969309835E-01  0.81150509155E-01 -0.94712435882E-01  0.14137087235E+00  0.45076375137E-01 0.  0.
         14    1    1    2    0    0 -0.27562483441E-02  0.18228896726E-02  0.13309317762E-01  0.13713415730E-01  0.00000000000E+00 0. -1.
     999901    1    3    3    0    0 -0.46213061491E-01 -0.82973398827E-01  0.81403118120E-01  0.88884571192E+00  0.88000000000E+00 0. -1.
        -11    1    4    4    0    0  0.15600942024E-02  0.20732259346E-01 -0.18711077248E-02  0.20881155059E-01  0.51100000000E-03 0. -1.
         11    1    4    4    0    0  0.47409215632E-01  0.60418249809E-01 -0.92841328157E-01  0.12048971729E+00  0.51100000000E-03 0.  1.
</event>
<event>
 8    1  0.2091070E+004  0.1043930E+01  0.7957747E-01            NaN
         13   -1    0    0    0    0  0.00000000000E+00  0.00000000000E+00  0.74505805969E-08  0.10566000000E+00  0.10566000000E+00 0.  1.
     999900   -1    0    0    0    0 -0.00000000000E+00 -0.00000000000E+00 -0.74505805969E-08  0.93827000000E+00  0.93827000000E+00 0.  1.
     999902    2    1    2    0    0  0.31665111805E-02 -0.26484537314E-02 -0.12571814033E-01  0.10306977814E+01  0.10306128395E+01 0.  0.
     999903    2    3    3    0    0 -0.15695727892E-01 -0.29005066672E-01 -0.13062945694E+00  0.14222264832E+00  0.45558499846E-01 0.  0.
         14    1    1    2    0    0 -0.31665111805E-02  0.26484537314E-02  0.12571814033E-01  0.13232218571E-01  0.00000000000E+00 0.  1.
     999901    1    3    3    0    0  0.18862239073E-01  0.26356612940E-01  0.11805764290E+00  0.88847513311E+00  0.88000000000E+00 0. -1.
        -11    1    4    4    0    0  0.15637888472E-01 -0.85248325288E-02 -0.55369279459E-01  0.58165578776E-01  0.51100000000E-03 0. -1.
         11    1    4    4    0    0 -0.31333616364E-01 -0.20480234143E-01 -0.75260177478E-01  0.84057069543E-01  0.51100000000E-03 0.  1.
</event>
<event>
 8    1  0.2091070E+004  0.1043930E+01  0.7957747E-01            NaN
         13   -1    0    0    0    0  0.00000000000E+00  0.00000000000E+00  0.74505805969E-08  0.10566000000E+00  0.10566000000E+00 0.  1.
     999900   -1    0    0    0    0 -0.00000000000E+00 -0.00000000000E+00 -0.74505805969E-08  0.93827000000E+00  0.93827000000E+00 0.  1.
     999902    2    1    2    0    0 -0.16468617954E-01  0.90103115768E-02  0.12994943027E-02  0.10251127266E+01  0.10249400043E+01 0.  0.
     999903    2    3    3    0    0  0.23498208739E-01  0.12294949328E+00 -0.29668880425E-01  0.13632786818E+00  0.45125397125E-01 0.  0.
         14    1    1    2    0    0  0.16468617954E-01 -0.90103115768E-02 -0.12994943027E-02  0.18817273380E-01  0.00000000000E+00 0.  1.
     999901    1    3    3    0    0 -0.39966826693E-01 -0.11393918170E+00  0.30968374727E-01  0.88878485844E+00  0.88000000000E+00 0.  1.
        -11    1    4    4    0    0  0.36722158240E-01  0.78435299082E-01 -0.20220570962E-01  0.88936750890E-01  0.51100000000E-03 0.  1.
         11    1    4    4    0    0 -0.13223949501E-01  0.44514194194E-01 -0.94483094631E-02  0.47391117288E-01  0.51100000000E-03 0. -1.
</event>
<event>
 8    1  0.2091070E+004  0.1043930E+01  0.7957747E-01            NaN
         13   -1    0    0    0    0  0.00000000000E+00  0.00000000000E+00  0.74505805969E-08  0.10566000000E+00  0.10566000000E+00 0. -1.
     999900   -1    0    0    0    0 -0.00000000000E+00 -0.00000000000E+00 -0.74505805969E-08  0.93827000000E+00  0.93827000000E+00 0. -1.
     999902    2    1    2    0    0  0.39884733489E-02  0.12951527332E-01 -0.11404315087E-02  0.10303303469E+01  0.10302405900E+01 0.  0.
     999903    2    3    3    0    0  0.73554160768E-01 -0.56610505912E-01  0.93863074420E-01  0.13976652132E+00  0.45928638071E-01 0.  0.
         14    1    1    2    0    0 -0.39884733489E-02 -0.12951527332E-01  0.11404315087E-02  0.13599653081E-01  0.00000000000E+00 0.  1.
     999901    1    3    3    0    0 -0.69565687419E-01  0.69562033245E-01 -0.95003505929E-01  0.89056382560E+00  0.88000000000E+00 0.  1.
        -11    1    4    4    0    0  0.35485450131E-01 -0.35365794483E-01  0.79297553912E-01  0.93799359102E-01  0.51100000000E-03 0. -1.
         11    1    4    4    0    0  0.38068710638E-01 -0.21244711429E-01  0.14565520507E-01  0.45967162214E-01  0.51100000000E-03 0.  1.
</event>
<event>
 8    1  0.2091070E+004  0.1043930E+01  0.7957747E-01            NaN
         13   -1    0    0    0    0  0.00000000000E+00  0.00000000000E+00  0.74505805969E-08  0.10566000000E+00  0.10566000000E+00 0. -1.
     999900   -1    0    0    0    0 -0.00000000000E+00 -0.00000000000E+00 -0.74505805969E-08  0.93827000000E+00  0.93827000000E+00 0.  1.
     999902    2    1    2    0    0 -0.14004279796E-01 -0.24677132312E-02  0.56033127515E-02  0.10286458064E+01  0.10285322496E+01 0.  0.
     999903    2    3    3    0    0 -0.12572653476E+00  0.26000459012E-01  0.35979867682E-01  0.14060581055E+00  0.44634713744E-01 0.  0.
         14    1    1    2    0    0  0.14004279796E-01  0.24677132312E-02 -0.56033127515E-02  0.15284193633E-01  0.00000000000E+00 0. -1.
     999901    1    3    3    0    0  0.11172225496E+00 -0.28468172243E-01 -0.30376554930E-01  0.88803999582E+00  0.88000000000E+00 0. -1.
        -11    1    4    4    0    0 -0.19404540625E-01  0.69030882325E-02 -0.10361088425E-01  0.23060834728E-01  0.51100000000E-03 0.  1.
         11    1    4    4    0    0 -0.10632199413E+00  0.19097370780E-01  0.46340956107E-01  0.11754497582E+00  0.51100000000E-03 0. -1.
</event>
<event>
 8    1  0.2091070E+004  0.1043930E+01  0.7957747E-01            NaN
         13   -1    0    0    0    0  0.00000000000E+00  0.00000000000E+00  0.74505805969E-08  0.10566000000E+00  0.10566000000E+00 0.  1.
     999900   -1    0    0    0    0 -0.00000000000E+00 -0.00000000000E+00 -0.74505805969E-08  0.93827000000E+00  0.93827000000E+00 0.  1.
     999902    2    1    2    0    0 -0.12556338749E-01  0.71232879177E-02 -0.19246259680E-02  0.10293661043E+01  0.10292630711E+01 0.  0.
     999903    2    3    3    0    0 -0.57987102792E-02 -0.12628761168E+00  0.34652639483E-01  0.13853389223E+00  0.44817942468E-01 0.  0.
         14    1    1    2    0    0  0.12556338749E-01 -0.71232879177E-02  0.19246259680E-02  0.14563895724E-01  0.00000000000E+00 0.  1.
     999901    1    3    3    0    0 -0.67576284703E-02  0.13341089960E+00 -0.36577265451E-01  0.89083221205E+00  0.88000000000E+00 0. -1.
        -11    1    4    4    0    0  0.44590718939E-02 -0.81951539544E-02  0.16012139943E-01  0.18538975620E-01  0.51100000000E-03 0. -1.
         11    1    4    4    0    0 -0.10257782173E-01 -0.11809245773E+00  0.18640499540E-01  0.11999491661E+00  0.51100000000E-03 0.  1.
</event>
<event>
 8    1  0.2091070E+004  0.1043930E+01  0.7957747E-01            NaN
         13   -1    0    0    0    0  0.00000000000E+00  0.00000000000E+00  0.74505805969E-08  0.10566000000E+00  0.10566000000E+00 0. -1.
     999900   -1    0    0    0    0 -0.00000000000E+00 -0.00000000000E+00 -0.74505805969E-08  0.93827000000E+00  0.93827000000E+00 0.  1.
     999902    2    1    2    0    0 -0.36632028190E-02 -0.11810617813E-01  0.62849042385E-02  0.10300588151E+01  0.10299654134E+01 0.  0.
     999903    2    3    3    0    0 -0.17651058722E-01  0.11718814798E+00  0.55383048969E-01  0.13919015507E+00  0.47560437914E-01 0.  0.
         14    1    1    2    0    0  0.36632028190E-02  0.11810617813E-01 -0.62849042385E-02  0.13871184856E-01  0.00000000000E+00 0.  1.
     999901    1    3    3    0    0  0.13987855903E-01 -0.12899876579E+00 -0.49098144731E-01  0.89086866008E+00  0.88000000000E+00 0. -1.
        -11    1    4    4    0    0 -0.19036976952E-01  0.12033837485E-01  0.10257586227E-01  0.24752756054E-01  0.51100000000E-03 0.  1.
         11    1    4    4    0    0  0.13859182298E-02  0.10515431049E+00  0.45125462742E-01  0.11443739901E+00  0.51100000000E-03 0. -1.
</event>
<event>
 8    1  0.2091070E+004  0.1043930E+01  0.7957747E-01            NaN
         13   -1    0    0    0    0  0.00000000000E+00  0.00000000000E+00  0.74505805969E-08  0.10566000000E+00  0.10566000000E+00 0. -1.
     999900   -1    0    0    0    0 -0.00000000000E+00 -0.00000000000E+00 -0.74505805969E-08  0.93827000000E+00  0.93827000000E+00 0.  1.
     999902    2    1    2    0    0  0.83877213384E-02  0.92739519846E-02 -0.53944277237E-02  0.10303116335E+01  0.10302216278E+01 0.  0.
     999903    2    3    3    0    0  0.87771496635E-01  0.69015833306E-01  0.73766750070E-01  0.14118994994E+00  0.45011639395E-01 0.  0.
         14    1    1    2    0    0 -0.83877213384E-02 -0.92739519846E-02  0.53944277237E-02  0.13618366463E-01  0.00000000000E+00 0.  1.
     999901    1    3    3    0    0 -0.79383775297E-01 -0.59741881321E-01 -0.79161177794E-01  0.88912168359E+00  0.88000000000E+00 0. -1.
        -11    1    4    4    0    0  0.17781378079E-01  0.38500529857E-01  0.15547062072E-01  0.45171234937E-01  0.51100000000E-03 0. -1.
         11    1    4    4    0    0  0.69990118556E-01  0.30515303448E-01  0.58219687998E-01  0.96018715007E-01  0.51100000000E-03 0.  1.
</event>
<event>
 8    1  0.2091070E+004  0.1043930E+01  0.7957747E-01            NaN
         13   -1    0    0    0    0  0.00000000000E+00  0.00000000000E+00  0.74505805969E-08  0.10566000000E+00  0.10566000000E+00 0.  1.
     999900   -1    0    0    0    0 -0.00000000000E+00 -0.00000000000E+00 -0.74505805969E-08  0.93827000000E+00  0.93827000000E+00 0.  1.
     999902    2    1    2    0    0  0.13383505171E-01 -0.28638443570E-02 -0.24656922680E-02  0.10300231868E+01  0.10299293014E+01 0.  0.
     999903    2    3    3    0    0  0.94433206138E-01  0.91587343299E-01 -0.22472410720E-01  0.14104042562E+00  0.45623684007E-01 0.  0.
         14    1    1    2    0    0 -0.13383505171E-01  0.28638443570E-02  0.24656922680E-02  0.13906813206E-01  0.00000000000E+00 0. -1.
     999901    1    3    3    0    0 -0.81049700967E-01 -0.94451187656E-01  0.20006718452E-01  0.88898276117E+00  0.88000000000E+00 0. -1.
        -11    1    4    4    0    0  0.56757049791E-01  0.47608037684E-01 -0.34770280817E-01  0.81835942606E-01  0.51100000000E-03 0. -1.
         11    1    4    4    0    0  0.37676156347E-01  0.43979305615E-01  0.12297870097E-01  0.59204483017E-01  0.51100000000E-03 0.  1.
</event>
<event>
 8    1  0.2091070E+004  0.1043930E+01  0.7957747E-01            NaN
         13   -1    0    0    0    0  0.00000000000E+00  0.00000000000E+00  0.74505805969E-08  0.10566000000E+00  0.10566000000E+00 0. -1.
     999900   -1    0    0    0    0 -0.00000000000E+00 -0.00000000000E+00 -0.74505805969E-08  0.93827000000E+00  0.93827000000E+00 0. -1.
     999902    2    1    2    0    0  0.47366599445E-02  0.73305614550E-02  0.12015483415E-01  0.10290792451E+01  0.10289720831E+01 0.  0.
     999903    2    3    3    0    0 -0.97476927332E-01 -0.83266951545E-02  0.89472627567E-01  0.13964550600E+00  0.43868337658E-01 0.  0.
         14    1    1    2    0    0 -0.47366599445E-02 -0.73305614550E-02 -0.12015483415E-01  0.14850754875E-01  0.00000000000E+00 0.  1.
     999901    1    3    3    0    0  0.10221358728E+00  0.15657256609E-01 -0.77457144152E-01  0.88943373912E+00  0.88000000000E+00 0. -1.
        -11    1    4    4    0    0 -0.97992534875E-02 -0.94798958824E-02  0.32040759477E-01  0.34824778301E-01  0.51100000000E-03 0. -1.
         11    1    4    4    0    0 -0.87677673844E-01  0.11532007279E-02  0.57431868090E-01  0.10482072770E+00  0.51100000000E-03 0.  1.
</event>
<event>
 8    1  0.2091070E+004  0.1043930E+01  0.7957747E-01            NaN
         13   -1    0    0    0    0  0.00000000000E+00  0.00000000000E+00  0.74505805969E-08  0.10566000000E+00  0.10566000000E+00 0.  1.
     999900   -1    0    0    0    0 -0.00000000000E+00 -0.00000000000E+00 -0.74505805969E-08  0.93827000000E+00  0.93827000000E+00 0.  1.
     999902    2    1    2    0    0 -0.12334128358E-01  0.84617772038E-04  0.55454365657E-02  0.10304063263E+01  0.10303175761E+01 0.  0.
     999903    2    3    3    0    0 -0.49591580138E-01  0.99181964145E-01  0.75230308565E-01  0.14132568705E+00  0.44910618591E-01 0.  0.
         14    1    1    2    0    0  0.12334128358E-01 -0.84617772038E-04 -0.55454365657E-02  0.13523673658E-01  0.00000000000E+00 0.  1.
     999901    1    3    3    0    0  0.37257451780E-01 -0.99097346373E-01 -0.69684871999E-01  0.88908063929E+00  0.88000000000E+00 0.  1.
        -11    1    4    4    0    0 -0.20063048666E-01  0.48576529946E-01  0.97466566990E-02  0.53455248771E-01  0.51100000000E-03 0. -1.
         11    1    4    4    0    0 -0.29528531472E-01  0.50605434199E-01  0.65483651866E-01  0.87870438283E-01  0.51100000000E-03 0.  1.
</event>
<event>
 8    1  0.2091070E+004  0.1043930E+01  0.7957747E-01            NaN
         13   -1    0    0    0    0  0.00000000000E+00  0.00000000000E+00  0.74505805969E-08  0.10566000000E+00  0.10566000000E+00 0.  1.
     999900   -1    0    0    0    0 -0.00000000000E+00 -0.00000000000E+00 -0.74505805969E-08  0.93827000000E+00  0.93827000000E+00 0.  1.
     999902    2    1    2    0    0 -0.71413294291E-02  0.10915770432E-01 -0.32978044892E-02  0.10304753300E+01  0.10303874891E+01 0.  0.
     999903    2    3    3    0    0  0.11843901234E+00  0.36516714029E-01 -0.47014181317E-01  0.14011756363E+00  0.45401853983E-01 0.  0.
         14    1    1    2    0    0  0.71413294291E-02 -0.10915770432E-01  0.32978044892E-02  0.13454669991E-01  0.00000000000E+00 0.  1.
     999901    1    3    3    0    0 -0.12558034177E+00 -0.25600943598E-01  0.43716376828E-01  0.89035776638E+00  0.88000000000E+00 0. -1.
        -11    1    4    4    0    0  0.11661866454E+00  0.26678147743E-01 -0.35359232566E-01  0.12474843860E+00  0.51100000000E-03 0. -1.
         11    1    4    4    0    0  0.18203478027E-02  0.98385662859E-02 -0.11654948750E-01  0.15369125026E-01  0.51100000000E-03 0.  1.
</event>
<event>
 8    1  0.2091070E+004  0.1043930E+01  0.7957747E-01            NaN
         13   -1    0    0    0    0  0.00000000000E+00  0.00000000000E+00  0.74505805969E-08  0.10566000000E+00  0.10566000000E+00 0. -1.
     999900   -1    0    0    0    0 -0.00000000000E+00 -0.00000000000E+00 -0.74505805969E-08  0.93827000000E+00  0.93827000000E+00 0. -1.
     999902    2    1    2    0    0  0.94102294540E-02  0.53720031234E-02  0.79314668716E-02  0.10305017089E+01  0.10304142143E+01 0.  0.
     999903    2    3    3    0    0  0.12013888935E+00  0.54352494719E-01 -0.24981948601E-01  0.14160170460E+00  0.45159700768E-01 0.  0.
         14    1    1    2    0    0 -0.94102294540E-02 -0.53720031234E-02 -0.79314668716E-02  0.13428291130E-01  0.00000000000E+00 0.  1.
     999901    1    3    3    0    0 -0.11072865989E+00 -0.48980491595E-01  0.32913415473E-01  0.88890000427E+00  0.88000000000E+00 0.  1.
        -11    1    4    4    0    0  0.34678674670E-01  0.96131357894E-02 -0.27199639520E-01  0.45112131047E-01  0.51100000000E-03 0. -1.
         11    1    4    4    0    0  0.85460214676E-01  0.44739358929E-01  0.22176909189E-02  0.96489573550E-01  0.51100000000E-03 0.  1.
</event>
<event>
 8    1  0.2091070E+004  0.1043930E+01  0.7957747E-01            NaN
         13   -1    0    0    0    0  0.00000000000E+00  0.00000000000E+00  0.74505805969E-08  0.10566000000E+00  0.10566000000E+00 0. -1.
     999900   -1    0    0    0    0 -0.00000000000E+00 -0.00000000000E+00 -0.74505805969E-08  0.93827000000E+00  0.93827000000E+00 0.  1.
     999902    2    1    2    0    0 -0.81398001424E-02 -0.98343365145E-02 -0.20539494993E-03  0.10311623570E+01  0.10310833108E+01 0.  0.
     999903    2    3    3    0    0  0.53040251392E-01  0.75402204685E-01 -0.94923415106E-01  0.13988250755E+00  0.45364087616E-01 0.  0.
         14    1    1    2    0    0  0.81398001424E-02  0.98343365145E-02  0.20539494993E-03  0.12767643014E-01  0.00000000000E+00 0. -1.
     999901    1    3    3    0    0 -0.61180051535E-01 -0.85236541199E-01  0.94718020156E-01  0.89127984943E+00  0.88000000000E+00 0. -1.
        -11    1    4    4    0    0  0.33490562043E-01  0.68348013296E-01 -0.91154624944E-01  0.11875392809E+00  0.51100000000E-03 0. -1.
         11    1    4    4    0    0  0.19549689350E-01  0.70541913887E-02 -0.37687901611E-02  0.21128579462E-01  0.51100000000E-03 0.  1.
</event>
<event>
 7    1  0.2091070E+004  0.1043930E+01  0.7957747E-01            NaN
         13   -1    0    0    0    0  0.00000000000E+00  0.00000000000E+00  0.74505805969E-08  0.10566000000E+00  0.10566000000E+00 0. -1.
     999900   -1    0    0    0    0 -0.00000000000E+00 -0.00000000000E+00 -0.74505805969E-08  0.93827000000E+00  0.93827000000E+00 0. -1.
     999903    2    1    2    0    0  0.44517616698E-01  0.70646599583E-01 -0.81389658452E-01  0.12370910979E+00  0.41314732398E-01 0.  0.
         14    1    1    2    0    0 -0.29654940110E-01  0.11856956185E-01 -0.36999360877E-02  0.32151087228E-01  0.00000000000E+00 0.  1.
     999901    1    1    2    0    0 -0.14862676588E-01 -0.82503555767E-01  0.85089594539E-01  0.88806980298E+00  0.88000000000E+00 0.  1.
        -11    1    3    3    0    0 -0.15985018765E-02  0.23072532926E-01 -0.38064092484E-01  0.44542488048E-01  0.51100000000E-03 0. -1.
         11    1    3    3    0    0  0.46116118574E-01  0.47574066657E-01 -0.43325565967E-01  0.79166621742E-01  0.51100000000E-03 0.  1.
</event>
<event>
 8    1  0.2465139E+004  0.1043930E+01  0.7957747E-01            NaN
         13   -1    0    0    0    0  0.00000000000E+00  0.00000000000E+00  0.74505805969E-08  0.10566000000E+00  0.10566000000E+00 0.  1.
     999900   -1    0    0    0    0 -0.00000000000E+00 -0.00000000000E+00 -0.74505805969E-08  0.93827000000E+00  0.93827000000E+00 0.  1.
     999902    2    1    2    0    0 -0.53292095537E-02  0.12426055985E-01  0.45525480100E-02  0.10296634995E+01  0.10295646601E+01 0.  0.
     999903    2    3    3    0    0 -0.81114450847E-01  0.82118402494E-01 -0.66896968013E-01  0.14078473430E+00  0.44968332405E-01 0.  0.
         14    1    1    2    0    0  0.53292095537E-02 -0.12426055985E-01 -0.45525480100E-02  0.14266500453E-01  0.00000000000E+00 0. -1.
     999901    1    3    3    0    0  0.75785241293E-01 -0.69692346509E-01  0.71449516023E-01  0.88887876524E+00  0.88000000000E+00 0. -1.
        -11    1    4    4    0    0 -0.46117907849E-01  0.33082118725E-01 -0.94505099859E-02  0.57540083974E-01  0.51100000000E-03 0. -1.
         11    1    4    4    0    0 -0.34996542997E-01  0.49036283769E-01 -0.57446458028E-01  0.83244650330E-01  0.51100000000E-03 0.  1.
</event>
<event>
 8    1  0.2091070E+004  0.1043930E+01  0.7957747E-01            NaN
         13   -1    0    0    0    0  0.00000000000E+00  0.00000000000E+00  0.74505805969E-08  0.10566000000E+00  0.10566000000E+00 0.  1.
     999900   -1    0    0    0    0 -0.00000000000E+00 -0.00000000000E+00 -0.74505805969E-08  0.93827000000E+00  0.93827000000E+00 0. -1.
     999902    2    1    2    0    0  0.52410715248E-02  0.11353931139E-01  0.66504706894E-02  0.10297663372E+01  0.10296689273E+01 0.  0.
     999903    2    3    3    0    0 -0.57112898550E-01 -0.10827555616E+00 -0.45892592023E-01  0.13793675414E+00  0.43987940366E-01 0.  0.
         14    1    1    2    0    0 -0.52410715248E-02 -0.11353931139E-01 -0.66504706894E-02  0.14163662783E-01  0.00000000000E+00 0.  1.
     999901    1    3    3    0    0  0.62353970075E-01  0.11962948730E+00  0.52543062713E-01  0.89182958308E+00  0.88000000000E+00 0. -1.
        -11    1    4    4    0    0 -0.44119463947E-01 -0.55407669218E-01 -0.44155229046E-01  0.83465455610E-01  0.51100000000E-03 0. -1.
         11    1    4    4    0    0 -0.12993434602E-01 -0.52867886940E-01 -0.17373629777E-02  0.54471298528E-01  0.51100000000E-03 0.  1.
</event>
<event>
 8    1  0.2091070E+004  0.1043930E+01  0.7957747E-01            NaN
         13   -1    0    0    0    0  0.00000000000E+00  0.00000000000E+00  0.74505805969E-08  0.10566000000E+00  0.10566000000E+00 0. -1.
     999900   -1    0    0    0    0 -0.00000000000E+00 -0.00000000000E+00 -0.74505805969E-08  0.93827000000E+00  0.93827000000E+00 0. -1.
     999902    2    1    2    0    0  0.11301781421E-01 -0.12987794249E-03  0.72740310577E-03  0.10326040896E+01  0.10325419747E+01 0.  0.
     999903    2    3    3    0    0 -0.51519604403E-01 -0.12438486716E+00 -0.23159069487E-02  0.14165230042E+00  0.43978926488E-01 0.  0.
         14    1    1    2    0    0 -0.11301781421E-01  0.12987794249E-03 -0.72740310577E-03  0.11325910421E-01  0.00000000000E+00 0. -1.
     999901    1    3    3    0    0  0.62821385824E-01  0.12425498922E+00  0.30433100545E-02  0.89095178915E+00  0.88000000000E+00 0.  1.
        -11    1    4    4    0    0 -0.10309052580E-01 -0.47570529333E-02 -0.96533187657E-02  0.14911532513E-01  0.51100000000E-03 0. -1.
         11    1    4    4    0    0 -0.41210551823E-01 -0.11962781422E+00  0.73374118170E-02  0.12674076791E+00  0.51100000000E-03 0.  1.
</event>
<event>
 8    1  0.2091070E+004  0.1043930E+01  0.7957747E-01            NaN
         13   -1    0    0    0    0  0.00000000000E+00  0.00000000000E+00  0.74505805969E-08  0.10566000000E+00  0.10566000000E+00 0. -1.
     999900   -1    0    0    0    0 -0.00000000000E+00 -0.00000000000E+00 -0.74505805969E-08  0.93827000000E+00  0.93827000000E+00 0.  1.
     999902    2    1    2    0    0  0.10209091844E-01  0.82540341927E-02  0.63078367455E-02  0.10293648553E+01  0.10292618043E+01 0.  0.
     999903    2    3    3    0    0  0.33933820415E-01 -0.12520812688E+00 -0.20475295412E-01  0.13858298109E+00  0.44242804180E-01 0.  0.
         14    1    1    2    0    0 -0.10209091844E-01 -0.82540341927E-02 -0.63078367455E-02  0.14565144735E-01  0.00000000000E+00 0.  1.
     999901    1    3    3    0    0 -0.23724728571E-01  0.13346216107E+00  0.26783132157E-01  0.89078187417E+00  0.88000000000E+00 0. -1.
        -11    1    4    4    0    0 -0.56871454936E-03 -0.72703512627E-01 -0.21251573825E-01  0.75749684459E-01  0.51100000000E-03 0. -1.
         11    1    4    4    0    0  0.34502534964E-01 -0.52504614253E-01  0.77627841295E-03  0.62833296635E-01  0.51100000000E-03 0.  1.
</event>
<event>
 8    1  0.2091070E+004  0.1043930E+01  0.7957747E-01            NaN
         13   -1    0    0    0    0  0.00000000000E+00  0.00000000000E+00  0.74505805969E-08  0.10566000000E+00  0.10566000000E+00 0. -1.
     999900   -1    0    0    0    0 -0.00000000000E+00 -0.00000000000E+00 -0.74505805969E-08  0.93827000000E+00  0.93827000000E+00 0.  1.
     999902    2    1    2    0    0 -0.67834582161E-02 -0.49002525550E-02 -0.98903719368E-02  0.10309744129E+01  0.10308930074E+01 0.  0.
     999903    2    3    3    0    0 -0.37224171904E-01 -0.12811676719E+00  0.13958608492E-01  0.14154891269E+00  0.45185251168E-01 0.  0.
         14    1    1    2    0    0  0.67834582161E-02  0.49002525550E-02  0.98903719368E-02  0.12955587116E-01  0.00000000000E+00 0. -1.
     999901    1    3    3    0    0  0.30440713688E-01  0.12321651464E+00 -0.23848980429E-01  0.88942550019E+00  0.88000000000E+00 0.  1.
        -11    1    4    4    0    0 -0.12885499334E-01 -0.86656946552E-01  0.27099876821E-01  0.91706744155E-01  0.51100000000E-03 0. -1.
         11    1    4    4    0    0 -0.24338672570E-01 -0.41459820639E-01 -0.13141268329E-01  0.49842168535E-01  0.51100000000E-03 0.  1.
</event>
<event>
 8    1  0.2091070E+004  0.1043930E+01  0.7957747E-01            NaN
         13   -1    0    0    0    0  0.00000000000E+00  0.00000000000E+00  0.74505805969E-08  0.10566000000E+00  0.10566000000E+00 0.  1.
     999900   -1    0    0    0    0 -0.00000000000E+00 -0.00000000000E+00 -0.74505805969E-08  0.93827000000E+00  0.93827000000E+00 0.  1.
     999902    2    1    2    0    0  0.49960507431E-02  0.96364930716E-02 -0.93397436673E-02  0.10296103166E+01  0.10295107336E+01 0.  0.
     999903    2    3    3    0    0 -0.37853884576E-01  0.11326418133E+00 -0.59792285183E-01  0.14106078296E+00  0.45401935786E-01 0.  0.
         14    1    1    2    0    0 -0.49960507431E-02 -0.96364930716E-02  0.93397436673E-02  0.14319683429E-01  0.00000000000E+00 0.  1.
     999901    1    3    3    0    0  0.42849935319E-01 -0.10362768826E+00  0.50452541516E-01  0.88854953361E+00  0.88000000000E+00 0.  1.
        -11    1    4    4    0    0 -0.39685520309E-01  0.47990202517E-01 -0.25403705126E-01  0.67257783304E-01  0.51100000000E-03 0. -1.
         11    1    4    4    0    0  0.18316357326E-02  0.65273978811E-01 -0.34388580057E-01  0.73802999658E-01  0.51100000000E-03 0.  1.
</event>
<event>
 8    1  0.2091070E+004  0.1043930E+01  0.7957747E-01            NaN
         13   -1    0    0    0    0  0.00000000000E+00  0.00000000000E+00  0.74505805969E-08  0.10566000000E+00  0.10566000000E+00 0. -1.
     999900   -1    0    0    0    0 -0.00000000000E+00 -0.00000000000E+00 -0.74505805969E-08  0.93827000000E+00  0.93827000000E+00 0. -1.
     999902    2    1    2    0    0  0.21635676375E-02  0.11825857777E-01  0.66395474474E-02  0.10301962632E+01  0.10301047156E+01 0.  0.
     999903    2    3    3    0    0 -0.56383470536E-01  0.84036262395E-01  0.87994599070E-01  0.14156768911E+00  0.45356057878E-01 0.  0.
         14    1    1    2    0    0 -0.21635676375E-02 -0.11825857777E-01 -0.66395474474E-02  0.13733736833E-01  0.00000000000E+00 0.  1.
     999901    1    3    3    0    0  0.58547038173E-01 -0.72210404618E-01 -0.81355051623E-01  0.88862857406E+00  0.88000000000E+00 0. -1.
        -11    1    4    4    0    0 -0.14871589244E-01 -0.12730673139E-02  0.19451166088E-01  0.24523332771E-01  0.51100000000E-03 0. -1.
         11    1    4    4    0    0 -0.41511881291E-01  0.85309329709E-01  0.68543432982E-01  0.11704435633E+00  0.51100000000E-03 0.  1.
</event>
<event>
 8    1  0.2091070E+004  0.1043930E+01  0.7957747E-01            NaN
         13   -1    0    0    0    0  0.00000000000E+00  0.00000000000E+00  0.74505805969E-08  0.10566000000E+00  0.10566000000E+00 0. -1.
     999900   -1    0    0    0    0 -0.00000000000E+00 -0.00000000000E+00 -0.74505805969E-08  0.93827000000E+00  0.93827000000E+00 0. -1.
     999902    2    1    2    0    0  0.14712623122E-02  0.13151817687E-01  0.23821805513E-02  0.10304834501E+01  0.10303957158E+01 0.  0.
     999903    2    3    3    0    0 -0.95205834049E-01 -0.68864702460E-01  0.60072755161E-01  0.13952813527E+00  0.45308570249E-01 0.  0.
         14    1    1    2    0    0 -0.14712623122E-02 -0.13151817687E-01 -0.23821805513E-02  0.13446549946E-01  0.00000000000E+00 0.  1.
     999901    1    3    3    0    0  0.96677096362E-01  0.82016520148E-01 -0.57690574610E-01  0.89095531478E+00  0.88000000000E+00 0. -1.
        -11    1    4    4    0    0 -0.79558066841E-01 -0.61649137523E-01  0.67041983236E-01  0.12093382816E+00  0.51100000000E-03 0.  1.
         11    1    4    4    0    0 -0.15647767208E-01 -0.72155649376E-02 -0.69692280743E-02  0.18594307110E-01  0.51100000000E-03 0. -1.
</event>
<event>
 8    1  0.2091070E+004  0.1043930E+01  0.7957747E-01            NaN
         13   -1    0    0    0    0  0.00000000000E+00  0.00000000000E+00  0.74505805969E-08  0.10566000000E+00  0.10566000000E+00 0. -1.
     999900   -1    0    0    0    0 -0.00000000000E+00 -0.00000000000E+00 -0.74505805969E-08  0.93827000000E+00  0.93827000000E+00 0.  1.
     999902    2    1    2    0    0  0.79094421220E-02 -0.12596162819E-01 -0.11731658911E-02  0.10290102510E+01  0.10289020836E+01 0.  0.
     999903    2    3    3    0    0 -0.70512151821E-01 -0.56379199165E-01  0.95932078495E-01  0.13912468016E+00  0.44745226492E-01 0.  0.
         14    1    1    2    0    0 -0.79094421220E-02  0.12596162819E-01  0.11731658911E-02  0.14919749014E-01  0.00000000000E+00 0. -1.
     999901    1    3    3    0    0  0.78421593943E-01  0.43783036346E-01 -0.97105244386E-01  0.88988557082E+00  0.88000000000E+00 0. -1.
        -11    1    4    4    0    0 -0.59157258896E-01 -0.20373736487E-01  0.53473881921E-01  0.82306667939E-01  0.51100000000E-03 0. -1.
         11    1    4    4    0    0 -0.11354892924E-01 -0.36005462677E-01  0.42458196574E-01  0.56818012225E-01  0.51100000000E-03 0.  1.
</event>
<event>
 8    1  0.2091070E+004  0.1043930E+01  0.7957747E-01            NaN
         13   -1    0    0    0    0  0.00000000000E+00  0.00000000000E+00  0.74505805969E-08  0.10566000000E+00  0.10566000000E+00 0. -1.
     999900   -1    0    0    0    0 -0.00000000000E+00 -0.00000000000E+00 -0.74505805969E-08  0.93827000000E+00  0.93827000000E+00 0. -1.
     999902    2    1    2    0    0  0.17680722181E-01 -0.77291297027E-03  0.29843390266E-02  0.10259825319E+01  0.10258255428E+01 0.  0.
     999903    2    3    3    0    0 -0.10160684646E-01  0.11869162653E+00  0.48637216090E-01  0.13630219307E+00  0.44964067057E-01 0.  0.
         14    1    1    2    0    0 -0.17680722181E-01  0.77291297027E-03 -0.29843390266E-02  0.17947468087E-01  0.00000000000E+00 0.  1.
     999901    1    3    3    0    0  0.27841406827E-01 -0.11946453950E+00 -0.45652877063E-01  0.88968033884E+00  0.88000000000E+00 0. -1.
        -11    1    4    4    0    0 -0.27049879500E-01  0.90416871662E-01  0.36887910750E-01  0.10133057654E+00  0.51100000000E-03 0.  1.
         11    1    4    4    0    0  0.16889194854E-01  0.28274754871E-01  0.11749305339E-01  0.34971616531E-01  0.51100000000E-03 0. -1.
</event>
<event>
 8    1  0.2091070E+004  0.1043930E+01  0.7957747E-01            NaN
         13   -1    0    0    0    0  0.00000000000E+00  0.00000000000E+00  0.74505805969E-08  0.10566000000E+00  0.10566000000E+00 0. -1.
     999900   -1    0    0    0    0 -0.00000000000E+00 -0.00000000000E+00 -0.74505805969E-08  0.93827000000E+00  0.93827000000E+00 0.  1.
     999902    2    1    2    0    0  0.11174486264E-01 -0.46331562730E-02 -0.51950528393E-02  0.10307647482E+01  0.10306806694E+01 0.  0.
     999903    2    3    3    0    0  0.11437121125E+00  0.12399037665E-01 -0.70153180357E-01  0.14219330033E+00  0.45419773739E-01 0.  0.
         14    1    1    2    0    0 -0.11174486264E-01  0.46331562730E-02  0.51950528393E-02  0.13165251776E-01  0.00000000000E+00 0. -1.
     999901    1    3    3    0    0 -0.10319672499E+00 -0.17032193938E-01  0.64958127518E-01  0.88857144789E+00  0.88000000000E+00 0. -1.
        -11    1    4    4    0    0  0.82269968254E-01  0.20640205625E-01 -0.29645217112E-01  0.89852466763E-01  0.51100000000E-03 0.  1.
         11    1    4    4    0    0  0.32101243000E-01 -0.82411679594E-02 -0.40507963245E-01  0.52340833569E-01  0.51100000000E-03 0. -1.
</event>
<event>
 8    1  0.2091070E+004  0.1043930E+01  0.7957747E-01            NaN
         13   -1    0    0    0    0  0.00000000000E+00  0.00000000000E+00  0.74505805969E-08  0.10566000000E+00  0.10566000000E+00 0. -1.
     999900   -1    0    0    0    0 -0.00000000000E+00 -0.00000000000E+00 -0.74505805969E-08  0.93827000000E+00  0.93827000000E+00 0.  1.
     999902    2    1    2    0    0  0.87173918206E-03 -0.14746578638E-01  0.22916992706E-02  0.10289809734E+01  0.10288723780E+01 0.  0.
     999903    2    3    3    0    0 -0.55766682790E-01  0.45829652558E-01  0.10988573385E+00  0.13855755339E+00  0.43738325696E-01 0.  0.
         14    1    1    2    0    0 -0.87173918206E-03  0.14746578638E-01 -0.22916992706E-02  0.14949026599E-01  0.00000000000E+00 0.  1.
     999901    1    3    3    0    0  0.56638421972E-01 -0.60576231196E-01 -0.10759403458E+00  0.89042342001E+00  0.88000000000E+00 0.  1.
        -11    1    4    4    0    0 -0.13484545573E-01  0.34379961739E-01  0.30552726293E-01  0.47932712665E-01  0.51100000000E-03 0.  1.
         11    1    4    4    0    0 -0.42282137217E-01  0.11449690820E-01  0.79333007555E-01  0.90624840724E-01  0.51100000000E-03 0. -1.
</event>
<event>
 8    1  0.2091070E+004  0.1043930E+01  0.7957747E-01            NaN
         13   -1    0    0    0    0  0.00000000000E+00  0.00000000000E+00  0.74505805969E-08  0.10566000000E+00  0.10566000000E+00 0. -1.
     999900   -1    0    0    0    0 -0.00000000000E+00 -0.00000000000E+00 -0.74505805969E-08  0.93827000000E+00  0.93827000000E+00 0.  1.
     999902    2    1    2    0    0 -0.11832804703E-01 -0.46495607297E-02 -0.45501230170E-02  0.10304267670E+01  0.10303382866E+01 0.  0.
     999903    2    3    3    0    0  0.20028259873E-01 -0.25282382678E-01  0.12830516226E+00  0.13964544276E+00  0.44702404357E-01 0.  0.
         14    1    1    2    0    0  0.11832804703E-01  0.46495607297E-02  0.45501230170E-02  0.13503233005E-01  0.00000000000E+00 0. -1.
     999901    1    3    3    0    0 -0.31861064576E-01  0.20632821948E-01 -0.13285528527E+00  0.89078132423E+00  0.88000000000E+00 0.  1.
        -11    1    4    4    0    0  0.15610091782E-01  0.99471427415E-02  0.57959964804E-01  0.60846029083E-01  0.51100000000E-03 0.  1.
         11    1    4    4    0    0  0.44181680911E-02 -0.35229525419E-01  0.70345197452E-01  0.78799413679E-01  0.51100000000E-03 0. -1.
</event>
<event>
 8    1  0.2091070E+004  0.1043930E+01  0.7957747E-01            NaN
         13   -1    0    0    0    0  0.00000000000E+00  0.00000000000E+00  0.74505805969E-08  0.10566000000E+00  0.10566000000E+00 0. -1.
     999900   -1    0    0    0    0 -0.00000000000E+00 -0.00000000000E+00 -0.74505805969E-08  0.93827000000E+00  0.93827000000E+00 0. -1.
     999902    2    1    2    0    0 -0.75859182192E-03 -0.74629215527E-02 -0.12927805283E-01  0.10289834683E+01  0.10288749094E+01 0.  0.
     999903    2    3    3    0    0  0.11290064271E+00  0.31224358712E-01 -0.59976772111E-01  0.13958550761E+00  0.46533697899E-01 0.  0.
         14    1    1    2    0    0  0.75859182192E-03  0.74629215527E-02  0.12927805283E-01  0.14946531674E-01  0.00000000000E+00 0. -1.
     999901    1    3    3    0    0 -0.11365923453E+00 -0.38687280265E-01  0.47048966829E-01  0.88939796072E+00  0.88000000000E+00 0. -1.
        -11    1    4    4    0    0  0.13981748043E-02 -0.77032828160E-02 -0.50812051797E-02  0.93474716370E-02  0.51100000000E-03 0. -1.
         11    1    4    4    0    0  0.11150246791E+00  0.38927641528E-01 -0.54895566932E-01  0.13023803597E+00  0.51100000000E-03 0.  1.
</event>
<event>
 8    1  0.2091070E+004  0.1043930E+01  0.7957747E-01            NaN
         13   -1    0    0    0    0  0.00000000000E+00  0.00000000000E+00  0.74505805969E-08  0.10566000000E+00  0.10566000000E+00 0.  1.
     999900   -1    0    0    0    0 -0.00000000000E+00 -0.00000000000E+00 -0.74505805969E-08  0.93827000000E+00  0.93827000000E+00 0.  1.
     999902    2    1    2    0    0 -0.27539745117E-02 -0.82720550189E-02  0.10954430220E-01  0.10299296139E+01  0.10298344521E+01 0.  0.
     999903    2    3    3    0    0  0.10136740744E+00  0.68141269933E-01  0.50618053043E-01  0.13961873482E+00  0.44862232008E-01 0.  0.
         14    1    1    2    0    0  0.27539745117E-02  0.82720550189E-02 -0.10954430220E-01  0.14000386112E-01  0.00000000000E+00 0. -1.
     999901    1    3    3    0    0 -0.10412138195E+00 -0.76413324952E-01 -0.39663622823E-01  0.89031087907E+00  0.88000000000E+00 0. -1.
        -11    1    4    4    0    0  0.86314327450E-01  0.40402743180E-01  0.23874982146E-01  0.98248769321E-01  0.51100000000E-03 0. -1.
         11    1    4    4    0    0  0.15053079987E-01  0.27738526753E-01  0.26743070897E-01  0.41369965501E-01  0.51100000000E-03 0.  1.
</event>
<event>
 8    1  0.2091070E+004  0.1043930E+01  0.7957747E-01            NaN
         13   -1    0    0    0    0  0.00000000000E+00  0.00000000000E+00  0.74505805969E-08  0.10566000000E+00  0.10566000000E+00 0.  1.
     999900   -1    0    0    0    0 -0.00000000000E+00 -0.00000000000E+00 -0.74505805969E-08  0.93827000000E+00  0.93827000000E+00 0.  1.
     999902    2    1    2    0    0  0.12879802865E-01 -0.21179224168E-03  0.30504849633E-02  0.10306921891E+01  0.10306071750E+01 0.  0.
     999903    2    3    3    0    0  0.11510483891E+00 -0.60374662985E-01  0.36100593047E-01  0.14211926661E+00  0.44725934915E-01 0.  0.
         14    1    1    2    0    0 -0.12879802865E-01  0.21179224168E-03 -0.30504849633E-02  0.13237810858E-01  0.00000000000E+00 0.  1.
     999901    1    3    3    0    0 -0.10222503604E+00  0.60162870743E-01 -0.33050108083E-01  0.88857292253E+00  0.88000000000E+00 0. -1.
        -11    1    4    4    0    0  0.39853861021E-01 -0.25445433817E-01  0.35539585885E-01  0.59153390657E-01  0.51100000000E-03 0. -1.
         11    1    4    4    0    0  0.75250977885E-01 -0.34929229168E-01  0.56100716186E-03  0.82965875955E-01  0.51100000000E-03 0.  1.
</event>
<event>
 8    1  0.2091070E+004  0.1043930E+01  0.7957747E-01            NaN
         13   -1    0    0    0    0  0.00000000000E+00  0.00000000000E+00  0.74505805969E-08  0.10566000000E+00  0.10566000000E+00 0.  1.
     999900   -1    0    0    0    0 -0.00000000000E+00 -0.00000000000E+00 -0.74505805969E-08  0.93827000000E+00  0.93827000000E+00 0.  1.
     999902    2    1    2    0    0  0.10633318859E-01  0.83642825616E-02  0.13623558579E-03  0.10304005043E+01  0.10303116772E+01 0.  0.
     999903    2    3    3    0    0 -0.10870560170E+00 -0.48429655411E-01  0.50807255346E-01  0.13908973834E+00  0.51012143174E-01 0.  0.
         14    1    1    2    0    0 -0.10633318859E-01 -0.83642825616E-02 -0.13623558579E-03  0.13529495662E-01  0.00000000000E+00 0.  1.
     999901    1    3    3    0    0  0.11933892055E+00  0.56793937972E-01 -0.50671019761E-01  0.89131076600E+00  0.88000000000E+00 0.  1.
        -11    1    4    4    0    0 -0.34050642939E-01 -0.25556763519E-01 -0.53473655657E-02  0.42912118167E-01  0.51100000000E-03 0. -1.
         11    1    4    4    0    0 -0.74654958756E-01 -0.22872891892E-01  0.56154620912E-01  0.96177620168E-01  0.51100000000E-03 0.  1.
</event>
<event>
 8    1  0.2091070E+004  0.1043930E+01  0.7957747E-01            NaN
         13   -1    0    0    0    0  0.00000000000E+00  0.00000000000E+00  0.74505805969E-08  0.10566000000E+00  0.10566000000E+00 0. -1.
     999900   -1    0    0    0    0 -0.00000000000E+00 -0.00000000000E+00 -0.74505805969E-08  0.93827000000E+00  0.93827000000E+00 0.  1.
     999902    2    1    2    0    0 -0.13537942045E-01  0.91815364736E-02 -0.18866779607E-02  0.10274637909E+01  0.10273318381E+01 0.  0.
     999903    2    3    3    0    0 -0.12021921454E+00  0.54605152750E-01 -0.17424553488E-02  0.13985789889E+00  0.46074000053E-01 0.  0.
         14    1    1    2    0    0  0.13537942045E-01 -0.91815364736E-02  0.18866779607E-02  0.16466209053E-01  0.00000000000E+00 0. -1.
     999901    1    3    3    0    0  0.10668127249E+00 -0.45423616277E-01 -0.14422261187E-03  0.88760589206E+00  0.88000000000E+00 0. -1.
        -11    1    4    4    0    0 -0.93653840542E-01  0.48632490383E-01  0.16873777624E-01  0.10686976402E+00  0.51100000000E-03 0. -1.
         11    1    4    4    0    0 -0.26565373993E-01  0.59726623670E-02 -0.18616232973E-01  0.32988134870E-01  0.51100000000E-03 0.  1.
</event>
<event>
 8    1  0.2091070E+004  0.1043930E+01  0.7957747E-01            NaN
         13   -1    0    0    0    0  0.00000000000E+00  0.00000000000E+00  0.74505805969E-08  0.10566000000E+00  0.10566000000E+00 0. -1.
     999900   -1    0    0    0    0 -0.00000000000E+00 -0.00000000000E+00 -0.74505805969E-08  0.93827000000E+00  0.93827000000E+00 0. -1.
     999902    2    1    2    0    0  0.19951643328E-02  0.13038101489E-01 -0.43381415886E-02  0.10300450353E+01  0.10299514467E+01 0.  0.
     999903    2    3    3    0    0 -0.12186233228E+00  0.68089454966E-02 -0.52495873473E-01  0.14004579433E+00  0.44274349374E-01 0.  0.
         14    1    1    2    0    0 -0.19951643328E-02 -0.13038101489E-01  0.43381415886E-02  0.13884964659E-01  0.00000000000E+00 0. -1.
     999901    1    3    3    0    0  0.12385749661E+00  0.62291559924E-02  0.48157731885E-01  0.88999924101E+00  0.88000000000E+00 0. -1.
        -11    1    4    4    0    0 -0.15367024716E-01 -0.48864272042E-02  0.68991430477E-02  0.17546564201E-01  0.51100000000E-03 0.  1.
         11    1    4    4    0    0 -0.10649530756E+00  0.11695372701E-01 -0.59395016521E-01  0.12249923013E+00  0.51100000000E-03 0. -1.
</event>
<event>
 8    1  0.2091070E+004  0.1043930E+01  0.7957747E-01            NaN
         13   -1    0    0    0    0  0.00000000000E+00  0.00000000000E+00  0.74505805969E-08  0.10566000000E+00  0.10566000000E+00 0. -1.
     999900   -1    0    0    0    0 -0.00000000000E+00 -0.00000000000E+00 -0.74505805969E-08  0.93827000000E+00  0.93827000000E+00 0. -1.
     999902    2    1    2    0    0  0.10422832688E-01 -0.49668304837E-02 -0.55554161690E-02  0.10311172136E+01  0.10310376039E+01 0.  0.
     999903    2    3    3    0    0 -0.10534592605E+00  0.26649543949E-01  0.75058541180E-01  0.13932093040E+00  0.44368623086E-01 0.  0.
         14    1    1    2    0    0 -0.10422832688E-01  0.49668304837E-02  0.55554161690E-02  0.12812786391E-01  0.00000000000E+00 0. -1.
     999901    1    3    3    0    0  0.11576875874E+00 -0.31616374433E-01 -0.80613957349E-01  0.89179628321E+00  0.88000000000E+00 0. -1.
        -11    1    4    4    0    0 -0.41859408129E-01 -0.10519729273E-01  0.34881360341E-01  0.55496352791E-01  0.51100000000E-03 0.  1.
         11    1    4    4    0    0 -0.63486517921E-01  0.37169273222E-01  0.40177180839E-01  0.83824577606E-01  0.51100000000E-03 0. -1.
</event>
<event>
 8    1  0.2091070E+004  0.1043930E+01  0.7957747E-01            NaN
         13   -1    0    0    0    0  0.00000000000E+00  0.00000000000E+00  0.74505805969E-08  0.10566000000E+00  0.10566000000E+00 0.  1.
     999900   -1    0    0    0    0 -0.00000000000E+00 -0.00000000000E+00 -0.74505805969E-08  0.93827000000E+00  0.93827000000E+00 0. -1.
     999902    2    1    2    0    0 -0.12600550323E-01  0.15214366856E-02 -0.60143874697E-02  0.10298850189E+01  0.10297892457E+01 0.  0.
     999903    2    3    3    0    0  0.77207452592E-01 -0.72157562999E-01 -0.79172916557E-01  0.13924129507E+00  0.44182382272E-01 0.  0.
         14    1    1    2    0    0  0.12600550323E-01 -0.15214366856E-02  0.60143874697E-02  0.14044981120E-01  0.00000000000E+00 0.  1.
     999901    1    3    3    0    0 -0.89808002915E-01  0.73678999685E-01  0.73158529087E-01  0.89064372381E+00  0.88000000000E+00 0. -1.
        -11    1    4    4    0    0  0.52849036446E-01 -0.30236279142E-01 -0.23129803265E-01  0.65134492780E-01  0.51100000000E-03 0.  1.
         11    1    4    4    0    0  0.24358416145E-01 -0.41921283858E-01 -0.56043113291E-01  0.74106802291E-01  0.51100000000E-03 0. -1.
</event>
<event>
 7    1  0.2091070E+004  0.1043930E+01  0.7957747E-01            NaN
         13   -1    0    0    0    0  0.00000000000E+00  0.00000000000E+00  0.74505805969E-08  0.10566000000E+00  0.10566000000E+00 0. -1.
     999900   -1    0    0    0    0 -0.00000000000E+00 -0.00000000000E+00 -0.74505805969E-08  0.93827000000E+00  0.93827000000E+00 0. -1.
     999903    2    1    2    0    0 -0.36545549108E-01  0.34957868796E-01 -0.13768397059E-01  0.68838016233E-01  0.44625933840E-01 0.  0.
         14    1    1    2    0    0 -0.66571850675E-01  0.42708683598E-02 -0.53704490660E-01  0.85640083699E-01  0.00000000000E+00 0. -1.
     999901    1    1    2    0    0  0.10311739978E+00 -0.39228737155E-01  0.67472887719E-01  0.88945190007E+00  0.88000000000E+00 0.  1.
        -11    1    3    3    0    0 -0.28164978143E-01  0.20860568858E-01  0.13045999403E-01  0.37401718521E-01  0.51100000000E-03 0. -1.
         11    1    3    3    0    0 -0.83805709646E-02  0.14097299937E-01 -0.26814396462E-01  0.31436297712E-01  0.51100000000E-03 0.  1.
</event>
<event>
 8    1  0.2091070E+004  0.1043930E+01  0.7957747E-01            NaN
         13   -1    0    0    0    0  0.00000000000E+00  0.00000000000E+00  0.74505805969E-08  0.10566000000E+00  0.10566000000E+00 0.  1.
     999900   -1    0    0    0    0 -0.00000000000E+00 -0.00000000000E+00 -0.74505805969E-08  0.93827000000E+00  0.93827000000E+00 0. -1.
     999902    2    1    2    0    0  0.10014524206E-01  0.84472345843E-02  0.10023466184E-02  0.10307903209E+01  0.10307065705E+01 0.  0.
     999903    2    3    3    0    0 -0.50038408281E-01  0.12407471604E+00 -0.82943505597E-02  0.14114854036E+00  0.44223712316E-01 0.  0.
         14    1    1    2    0    0 -0.10014524206E-01 -0.84472345843E-02 -0.10023466184E-02  0.13139679065E-01  0.00000000000E+00 0.  1.
     999901    1    3    3    0    0  0.60052932487E-01 -0.11562748145E+00  0.92966971781E-02  0.88964178058E+00  0.88000000000E+00 0.  1.
        -11    1    4    4    0    0 -0.21906803020E-02  0.55525835806E-01  0.74888741239E-02  0.56073718254E-01  0.51100000000E-03 0.  1.
         11    1    4    4    0    0 -0.47847727979E-01  0.68548880232E-01 -0.15783224684E-01  0.85074822105E-01  0.51100000000E-03 0. -1.
</event>
<event>
 8    1  0.2091070E+004  0.1043930E+01  0.7957747E-01            NaN
         13   -1    0    0    0    0  0.00000000000E+00  0.00000000000E+00  0.74505805969E-08  0.10566000000E+00  0.10566000000E+00 0. -1.
     999900   -1    0    0    0    0 -0.00000000000E+00 -0.00000000000E+00 -0.74505805969E-08  0.93827000000E+00  0.93827000000E+00 0.  1.
     999902    2    1    2    0    0 -0.94272121239E-02  0.69103447137E-02  0.47214602251E-02  0.10313237563E+01  0.10312467081E+01 0.  0.
     999903    2    3    3    0    0 -0.73437857817E-01 -0.60081518421E-01  0.95937692705E-01  0.14177011909E+00  0.43495033826E-01 0.  0.
         14    1    1    2    0    0  0.94272121239E-02 -0.69103447137E-02 -0.47214602251E-02  0.12606243657E-01  0.00000000000E+00 0.  1.
     999901    1    3    3    0    0  0.64010645693E-01  0.66991863135E-01 -0.91216232480E-01  0.88955363726E+00  0.88000000000E+00 0. -1.
        -11    1    4    4    0    0 -0.24105104246E-01 -0.33962731945E-01  0.67004604059E-01  0.78894874979E-01  0.51100000000E-03 0. -1.
         11    1    4    4    0    0 -0.49332753571E-01 -0.26118786477E-01  0.28933088647E-01  0.62875244107E-01  0.51100000000E-03 0.  1.
</event>
<event>
 8    1  0.2091070E+004  0.1043930E+01  0.7957747E-01            NaN
         13   -1    0    0    0    0  0.00000000000E+00  0.00000000000E+00  0.74505805969E-08  0.10566000000E+00  0.10566000000E+00 0.  1.
     999900   -1    0    0    0    0 -0.00000000000E+00 -0.00000000000E+00 -0.74505805969E-08  0.93827000000E+00  0.93827000000E+00 0. -1.
     999902    2    1    2    0    0 -0.90284816198E-02 -0.10863267448E-01  0.51732010595E-02  0.10288871921E+01  0.10287772198E+01 0.  0.
     999903    2    3    3    0    0 -0.67723663656E-01 -0.26136644075E-01 -0.11165486439E+00  0.13909665648E+00  0.40142898736E-01 0.  0.
         14    1    1    2    0    0  0.90284816198E-02  0.10863267448E-01 -0.51732010595E-02  0.15042807890E-01  0.00000000000E+00 0.  1.
     999901    1    3    3    0    0  0.58695182036E-01  0.15273376627E-01  0.11682806545E+00  0.88979053563E+00  0.88000000000E+00 0.  1.
        -11    1    4    4    0    0 -0.54865831002E-01 -0.32245686865E-01 -0.67816276905E-01  0.93001893891E-01  0.51100000000E-03 0. -1.
         11    1    4    4    0    0 -0.12857832653E-01  0.61090427895E-02 -0.43838587482E-01  0.46094762585E-01  0.51100000000E-03 0.  1.
</event>
<event>
 8    1  0.2091070E+004  0.1043930E+01  0.7957747E-01            NaN
         13   -1    0    0    0    0  0.00000000000E+00  0.00000000000E+00  0.74505805969E-08  0.10566000000E+00  0.10566000000E+00 0.  1.
     999900   -1    0    0    0    0 -0.00000000000E+00 -0.00000000000E+00 -0.74505805969E-08  0.93827000000E+00  0.93827000000E+00 0. -1.
     999902    2    1    2    0    0 -0.38755966135E-02 -0.85327270854E-02  0.91908169281E-02  0.10308037364E+01  0.10307201580E+01 0.  0.
     999903    2    3    3    0    0  0.54819556832E-01 -0.12107697427E+00 -0.85318373009E-02  0.14152008024E+00  0.47857322898E-01 0.  0.
         14    1    1    2    0    0  0.38755966135E-02  0.85327270854E-02 -0.91908169281E-02  0.13126263613E-01  0.00000000000E+00 0.  1.
     999901    1    3    3    0    0 -0.58695153446E-01  0.11254424718E+00  0.17722654229E-01  0.88928365614E+00  0.88000000000E+00 0.  1.
        -11    1    4    4    0    0  0.43067629645E-01 -0.11046792085E+00  0.77289522856E-02  0.11881910656E+00  0.51100000000E-03 0. -1.
         11    1    4    4    0    0  0.11751927188E-01 -0.10609053421E-01 -0.16260789587E-01  0.22700973681E-01  0.51100000000E-03 0.  1.
</event>
<event>
 8    1  0.2091070E+004  0.1043930E+01  0.7957747E-01            NaN
         13   -1    0    0    0    0  0.00000000000E+00  0.00000000000E+00  0.74505805969E-08  0.10566000000E+00  0.10566000000E+00 0.  1.
     999900   -1    0    0    0    0 -0.00000000000E+00 -0.00000000000E+00 -0.74505805969E-08  0.93827000000E+00  0.93827000000E+00 0.  1.
     999902    2    1    2    0    0  0.38949184897E-02  0.58424317373E-02  0.10519433769E-01  0.10312823565E+01  0.10312047983E+01 0.  0.
     999903    2    3    3    0    0 -0.33946042616E-02  0.13516502368E+00  0.10662794413E-01  0.14180077129E+00  0.41384255327E-01 0.  0.
         14    1    1    2    0    0 -0.38949184897E-02 -0.58424317373E-02 -0.10519433769E-01  0.12647643475E-01  0.00000000000E+00 0. -1.
     999901    1    3    3    0    0  0.72895227513E-02 -0.12932259194E+00 -0.14336064370E-03  0.88948158524E+00  0.88000000000E+00 0.  1.
        -11    1    4    4    0    0  0.10915340262E-01  0.17288710247E-01  0.10647210684E-01  0.23057935107E-01  0.51100000000E-03 0. -1.
         11    1    4    4    0    0 -0.14309944523E-01  0.11787631343E+00  0.15583728537E-04  0.11874283618E+00  0.51100000000E-03 0.  1.
</event>
<event>
 8    1  0.2091070E+004  0.1043930E+01  0.7957747E-01            NaN
         13   -1    0    0    0    0  0.00000000000E+00  0.00000000000E+00  0.74505805969E-08  0.10566000000E+00  0.10566000000E+00 0.  1.
     999900   -1    0    0    0    0 -0.00000000000E+00 -0.00000000000E+00 -0.74505805969E-08  0.93827000000E+00  0.93827000000E+00 0.  1.
     999902    2    1    2    0    0 -0.11211548352E-01 -0.51268584499E-02  0.63271022833E-02  0.10300730264E+01  0.10299798173E+01 0.  0.
     999903    2    3    3    0    0 -0.12418681132E+00  0.18992555840E-01  0.48456611802E-01  0.14152361767E+00  0.43563859414E-01 0.  0.
         14    1    1    2    0    0  0.11211548352E-01  0.51268584499E-02 -0.63271022833E-02  0.13856973599E-01  0.00000000000E+00 0. -1.
     999901    1    3    3    0    0  0.11297526297E+00 -0.24119414290E-01 -0.42129509519E-01  0.88854940873E+00  0.88000000000E+00 0.  1.
        -11    1    4    4    0    0 -0.10044505697E+00  0.24179654444E-02  0.23249494719E-01  0.10313028727E+00  0.51100000000E-03 0. -1.
         11    1    4    4    0    0 -0.23741754350E-01  0.16574590395E-01  0.25207117083E-01  0.38393330398E-01  0.51100000000E-03 0.  1.
</event>
<event>
 8    1  0.2091070E+004  0.1043930E+01  0.7957747E-01            NaN
         13   -1    0    0    0    0  0.00000000000E+00  0.00000000000E+00  0.74505805969E-08  0.10566000000E+00  0.10566000000E+00 0. -1.
     999900   -1    0    0    0    0 -0.00000000000E+00 -0.00000000000E+00 -0.74505805969E-08  0.93827000000E+00  0.93827000000E+00 0. -1.
     999902    2    1    2    0    0  0.10808497827E-03  0.12311728001E-02  0.13808013941E-01  0.10300667854E+01  0.10299734918E+01 0.  0.
     999903    2    3    3    0    0  0.62888768942E-01 -0.60774518694E-01 -0.96585223818E-01  0.13879085342E+00  0.47808536397E-01 0.  0.
         14    1    1    2    0    0 -0.10808497827E-03 -0.12311728001E-02 -0.13808013941E-01  0.13863214556E-01  0.00000000000E+00 0.  1.
     999901    1    3    3    0    0 -0.62780683963E-01  0.62005691494E-01  0.11039323776E+00  0.89127593202E+00  0.88000000000E+00 0.  1.
        -11    1    4    4    0    0  0.61050874264E-01 -0.28834299051E-01 -0.61877239788E-01  0.91584277989E-01  0.51100000000E-03 0.  1.
         11    1    4    4    0    0  0.18378946778E-02 -0.31940219644E-01 -0.34707984030E-01  0.47206575433E-01  0.51100000000E-03 0. -1.
</event>
<event>
 8    1  0.2091070E+004  0.1043930E+01  0.7957747E-01            NaN
         13   -1    0    0    0    0  0.00000000000E+00  0.00000000000E+00  0.74505805969E-08  0.10566000000E+00  0.10566000000E+00 0.  1.
     999900   -1    0    0    0    0 -0.00000000000E+00 -0.00000000000E+00 -0.74505805969E-08  0.93827000000E+00  0.93827000000E+00 0. -1.
     999902    2    1    2    0    0 -0.64817101091E-02 -0.39577656049E-02 -0.11686353178E-01  0.10299927361E+01  0.10298984363E+01 0.  0.
     999903    2    3    3    0    0  0.10372945029E+00  0.76312655260E-01  0.25497753686E-01  0.13871696612E+00  0.44820096347E-01 0.  0.
         14    1    1    2    0    0  0.64817101091E-02  0.39577656049E-02  0.11686353178E-01  0.13937263904E-01  0.00000000000E+00 0.  1.
     999901    1    3    3    0    0 -0.11021116040E+00 -0.80270420865E-01 -0.37184106863E-01  0.89127576998E+00  0.88000000000E+00 0.  1.
        -11    1    4    4    0    0  0.44163560671E-01  0.48301299591E-01  0.31466979482E-01  0.72621398720E-01  0.51100000000E-03 0.  1.
         11    1    4    4    0    0  0.59565889618E-01  0.28011355669E-01 -0.59692257965E-02  0.66095567401E-01  0.51100000000E-03 0. -1.
</event>
<event>
 8    1  0.2091070E+004  0.1043930E+01  0.7957747E-01            NaN
         13   -1    0    0    0    0  0.00000000000E+00  0.00000000000E+00  0.74505805969E-08  0.10566000000E+00  0.10566000000E+00 0.  1.
     999900   -1    0    0    0    0 -0.00000000000E+00 -0.00000000000E+00 -0.74505805969E-08  0.93827000000E+00  0.93827000000E+00 0.  1.
     999902    2    1    2    0    0  0.57769943241E-02  0.68725488013E-02  0.97291421115E-02  0.10306913522E+01  0.10306063272E+01 0.  0.
     999903    2    3    3    0    0  0.61598596280E-01  0.94202046133E-01 -0.72006675406E-01  0.14084685102E+00  0.44547295973E-01 0.  0.
         14    1    1    2    0    0 -0.57769943241E-02 -0.68725488013E-02 -0.97291421115E-02  0.13238647842E-01  0.00000000000E+00 0. -1.
     999901    1    3    3    0    0 -0.55821601956E-01 -0.87329497332E-01  0.81735817518E-01  0.88984450114E+00  0.88000000000E+00 0. -1.
        -11    1    4    4    0    0  0.58556988971E-02  0.47408112256E-01 -0.34826448537E-01  0.59118194796E-01  0.51100000000E-03 0. -1.
         11    1    4    4    0    0  0.55742897383E-01  0.46793933877E-01 -0.37180226869E-01  0.81728656219E-01  0.51100000000E-03 0.  1.
</event>
<event>
 8    1  0.2091070E+004  0.1043930E+01  0.7957747E-01            NaN
         13   -1    0    0    0    0  0.00000000000E+00  0.00000000000E+00  0.74505805969E-08  0.10566000000E+00  0.10566000000E+00 0. -1.
     999900   -1    0    0    0    0 -0.00000000000E+00 -0.00000000000E+00 -0.74505805969E-08  0.93827000000E+00  0.93827000000E+00 0. -1.
     999902    2    1    2    0    0 -0.57853769603E-02  0.76122606155E-02  0.11675499360E-01  0.10288391291E+01  0.10287284478E+01 0.  0.
     999903    2    3    3    0    0  0.28710546441E-03 -0.92562098844E-01  0.93971603380E-01  0.13931991851E+00  0.44850338672E-01 0.  0.
         14    1    1    2    0    0  0.57853769603E-02 -0.76122606155E-02 -0.11675499360E-01  0.15090870868E-01  0.00000000000E+00 0.  1.
     999901    1    3    3    0    0 -0.60724824247E-02  0.10017435946E+00 -0.82296104020E-01  0.88951921063E+00  0.88000000000E+00 0.  1.
        -11    1    4    4    0    0 -0.17388604371E-01 -0.24766450193E-01  0.15101935778E-01  0.33824106823E-01  0.51100000000E-03 0.  1.
         11    1    4    4    0    0  0.17675709836E-01 -0.67795648651E-01  0.78869667601E-01  0.10549581168E+00  0.51100000000E-03 0. -1.
</event>
<event>
 8    1  0.2091070E+004  0.1043930E+01  0.7957747E-01            NaN
         13   -1    0    0    0    0  0.00000000000E+00  0.00000000000E+00  0.74505805969E-08  0.10566000000E+00  0.10566000000E+00 0.  1.
     999900   -1    0    0    0    0 -0.00000000000E+00 -0.00000000000E+00 -0.74505805969E-08  0.93827000000E+00  0.93827000000E+00 0.  1.
     999902    2    1    2    0    0  0.78864866022E-02  0.28195918705E-02  0.74341408207E-02  0.10327311956E+01  0.10326704747E+01 0.  0.
     999903    2    3    3    0    0 -0.38268921163E-01  0.12929738302E+00  0.66361631117E-02  0.14249100890E+00  0.45577685037E-01 0.  0.
         14    1    1    2    0    0 -0.78864866022E-02 -0.28195918705E-02 -0.74341408207E-02  0.11198804355E-01  0.00000000000E+00 0. -1.
     999901    1    3    3    0    0  0.46155407765E-01 -0.12647779115E+00  0.79797770903E-03  0.89024018674E+00  0.88000000000E+00 0. -1.
        -11    1    4    4    0    0 -0.20874911333E-01  0.11474258100E+00  0.16434636873E-01  0.11777937098E+00  0.51100000000E-03 0.  1.
         11    1    4    4    0    0 -0.17394009830E-01  0.14554802027E-01 -0.97984737618E-02  0.24711637928E-01  0.51100000000E-03 0. -1.
</event>
<event>
 8    1  0.2091070E+004  0.1043930E+01  0.7957747E-01            NaN
         13   -1    0    0    0    0  0.00000000000E+00  0.00000000000E+00  0.74505805969E-08  0.10566000000E+00  0.10566000000E+00 0. -1.
     999900   -1    0    0    0    0 -0.00000000000E+00 -0.00000000000E+00 -0.74505805969E-08  0.93827000000E+00  0.93827000000E+00 0.  1.
     999902    2    1    2    0    0 -0.65589923877E-02 -0.96308291666E-02 -0.66081691127E-02  0.10305344354E+01  0.10304473696E+01 0.  0.
     999903    2    3    3    0    0  0.41630628206E-01 -0.12426593375E+00  0.22289274401E-01  0.14132213850E+00  0.47958352565E-01 0.  0.
         14    1    1    2    0    0  0.65589923877E-02  0.96308291666E-02  0.66081691127E-02  0.13395564587E-01  0.00000000000E+00 0. -1.
     999901    1    3    3    0    0 -0.48189620594E-01  0.11463510459E+00 -0.28897443514E-01  0.88921229691E+00  0.88000000000E+00 0.  1.
        -11    1    4    4    0    0  0.13044848805E-01 -0.63475577220E-01 -0.11989484138E-01  0.65903913652E-01  0.51100000000E-03 0. -1.
         11    1    4    4    0    0  0.28585779401E-01 -0.60790356534E-01  0.34278758539E-01  0.75418224850E-01  0.51100000000E-03 0.  1.
</event>
<event>
 8    1  0.2091070E+004  0.1043930E+01  0.7957747E-01            NaN
         13   -1    0    0    0    0  0.00000000000E+00  0.00000000000E+00  0.74505805969E-08  0.10566000000E+00  0.10566000000E+00 0.  1.
     999900   -1    0    0    0    0 -0.00000000000E+00 -0.00000000000E+00 -0.74505805969E-08  0.93827000000E+00  0.93827000000E+00 0. -1.
     999902    2    1    2    0    0  0.54206448733E-02 -0.11386821334E-01 -0.67605310436E-02  0.10296209864E+01  0.10295215528E+01 0.  0.
     999903    2    3    3    0    0  0.35640878101E-01  0.28766064596E-01 -0.12490882467E+00  0.14030409345E+00  0.44556318240E-01 0.  0.
         14    1    1    2    0    0 -0.54206448733E-02  0.11386821334E-01  0.67605310436E-02  0.14309013626E-01  0.00000000000E+00 0.  1.
     999901    1    3    3    0    0 -0.30220233228E-01 -0.40152885931E-01  0.11814829363E+00  0.88931689292E+00  0.88000000000E+00 0.  1.
        -11    1    4    4    0    0  0.25320232207E-01 -0.73129723619E-02 -0.50392000268E-01  0.56870102302E-01  0.51100000000E-03 0.  1.
         11    1    4    4    0    0  0.10320645894E-01  0.36079036958E-01 -0.74516824404E-01  0.83433991153E-01  0.51100000000E-03 0. -1.
</event>
<event>
 8    1  0.2091070E+004  0.1043930E+01  0.7957747E-01            NaN
         13   -1    0    0    0    0  0.00000000000E+00  0.00000000000E+00  0.74505805969E-08  0.10566000000E+00  0.10566000000E+00 0.  1.
     999900   -1    0    0    0    0 -0.00000000000E+00 -0.00000000000E+00 -0.74505805969E-08  0.93827000000E+00  0.93827000000E+00 0.  1.
     999902    2    1    2    0    0 -0.41036541945E-02 -0.84724991842E-03 -0.13142418326E-01  0.10301357632E+01  0.10300434018E+01 0.  0.
     999903    2    3    3    0    0 -0.28935867646E-01 -0.77293062649E-01  0.10253845064E+00  0.13893283199E+00  0.44460049193E-01 0.  0.
         14    1    1    2    0    0  0.41036541945E-02  0.84724991842E-03  0.13142418326E-01  0.13794236826E-01  0.00000000000E+00 0.  1.
     999901    1    3    3    0    0  0.24832213452E-01  0.76445812730E-01 -0.11568086897E+00  0.89120293119E+00  0.88000000000E+00 0.  1.
        -11    1    4    4    0    0 -0.30396363826E-01 -0.22922912318E-01  0.53727191052E-01  0.65850368429E-01  0.51100000000E-03 0.  1.
         11    1    4    4    0    0  0.14604961801E-02 -0.54370150331E-01  0.48811259590E-01  0.73082463559E-01  0.51100000000E-03 0. -1.
</event>
<event>
 8    1  0.2091070E+004  0.1043930E+01  0.7957747E-01            NaN
         13   -1    0    0    0    0  0.00000000000E+00  0.00000000000E+00  0.74505805969E-08  0.10566000000E+00  0.10566000000E+00 0.  1.
     999900   -1    0    0    0    0 -0.00000000000E+00 -0.00000000000E+00 -0.74505805969E-08  0.93827000000E+00  0.93827000000E+00 0. -1.
     999902    2    1    2    0    0  0.16513834210E-02 -0.11394681225E-01  0.74254573825E-02  0.10302295166E+01  0.10301384148E+01 0.  0.
     999903    2    3    3    0    0 -0.30701931482E-01 -0.20207830706E-01  0.12805604368E+00  0.14136723992E+00  0.47279817918E-01 0.  0.
         14    1    1    2    0    0 -0.16513834210E-02  0.11394681225E-01 -0.74254573825E-02  0.13700483377E-01  0.00000000000E+00 0. -1.
     999901    1    3    3    0    0  0.32353314903E-01  0.88131494813E-02 -0.12063058630E+00  0.88886227670E+00  0.88000000000E+00 0. -1.
        -11    1    4    4    0    0 -0.38292779541E-01 -0.69796383337E-03  0.92276045141E-01  0.99909727987E-01  0.51100000000E-03 0.  1.
         11    1    4    4    0    0  0.75908480588E-02 -0.19509866873E-01  0.35779998538E-01  0.41457511937E-01  0.51100000000E-03 0. -1.
</event>
<event>
 8    1  0.2091070E+004  0.1043930E+01  0.7957747E-01            NaN
         13   -1    0    0    0    0  0.00000000000E+00  0.00000000000E+00  0.74505805969E-08  0.10566000000E+00  0.10566000000E+00 0.  1.
     999900   -1    0    0    0    0 -0.00000000000E+00 -0.00000000000E+00 -0.74505805969E-08  0.93827000000E+00  0.93827000000E+00 0.  1.
     999902    2    1    2    0    0 -0.11684167669E-01  0.10791116563E-02 -0.71877397732E-02  0.10301696272E+01  0.10300777218E+01 0.  0.
     999903    2    3    3    0    0  0.44531311632E-01 -0.86573831691E-01 -0.90369708335E-01  0.14013453887E+00  0.44642342580E-01 0.  0.
         14    1    1    2    0    0  0.11684167669E-01 -0.10791116563E-02  0.71877397732E-02  0.13760372783E-01  0.00000000000E+00 0.  1.
     999901    1    3    3    0    0 -0.56215479301E-01  0.87652943348E-01  0.83181968562E-01  0.89003508834E+00  0.88000000000E+00 0. -1.
        -11    1    4    4    0    0  0.37897045661E-01 -0.45307470537E-01 -0.75294141920E-01  0.95699644121E-01  0.51100000000E-03 0.  1.
         11    1    4    4    0    0  0.66342659712E-02 -0.41266361154E-01 -0.15075566415E-01  0.44434894751E-01  0.51100000000E-03 0. -1.
</event>
<event>
 8    1  0.2091070E+004  0.1043930E+01  0.7957747E-01            NaN
         13   -1    0    0    0    0  0.00000000000E+00  0.00000000000E+00  0.74505805969E-08  0.10566000000E+00  0.10566000000E+00 0.  1.
     999900   -1    0    0    0    0 -0.00000000000E+00 -0.00000000000E+00 -0.74505805969E-08  0.93827000000E+00  0.93827000000E+00 0.  1.
     999902    2    1    2    0    0  0.24508834940E-02  0.43058134195E-02  0.12511287753E-01  0.10304734336E+01  0.10303855677E+01 0.  0.
     999903    2    3    3    0    0 -0.10759237649E+00 -0.68579344625E-01  0.40346006304E-01  0.14019452395E+00  0.41802611569E-01 0.  0.
         14    1    1    2    0    0 -0.24508834940E-02 -0.43058134195E-02 -0.12511287753E-01  0.13456566440E-01  0.00000000000E+00 0. -1.
     999901    1    3    3    0    0  0.11004325999E+00  0.72885158044E-01 -0.27834718551E-01  0.89027890961E+00  0.88000000000E+00 0. -1.
        -11    1    4    4    0    0 -0.51186889324E-01 -0.41528080732E-01  0.41009866528E-01  0.77632141550E-01  0.51100000000E-03 0.  1.
         11    1    4    4    0    0 -0.56405487167E-01 -0.27051263893E-01 -0.66386022398E-03  0.62562382405E-01  0.51100000000E-03 0. -1.
</event>
<event>
 8    1  0.2091070E+004  0.1043930E+01  0.7957747E-01            NaN
         13   -1    0    0    0    0  0.00000000000E+00  0.00000000000E+00  0.74505805969E-08  0.10566000000E+00  0.10566000000E+00 0. -1.
     999900   -1    0    0    0    0 -0.00000000000E+00 -0.00000000000E+00 -0.74505805969E-08  0.93827000000E+00  0.93827000000E+00 0.  1.
     999902    2    1    2    0    0 -0.87099869987E-02 -0.70992865138E-02  0.78588343815E-02  0.10302177784E+01  0.10301265194E+01 0.  0.
     999903    2    3    3    0    0  0.73768045937E-01  0.49514742889E-01  0.98293604830E-01  0.13994466194E+00  0.45049320639E-01 0.  0.
         14    1    1    2    0    0  0.87099869987E-02  0.70992865138E-02 -0.78588343815E-02  0.13712221569E-01  0.00000000000E+00 0.  1.
     999901    1    3    3    0    0 -0.82478032936E-01 -0.56614029402E-01 -0.90434770448E-01  0.89027311649E+00  0.88000000000E+00 0.  1.
        -11    1    4    4    0    0  0.44082654091E-01  0.53857368002E-01  0.69491200570E-01  0.98352349018E-01  0.51100000000E-03 0. -1.
         11    1    4    4    0    0  0.29685391847E-01 -0.43426251130E-02  0.28802404259E-01  0.41592312921E-01  0.51100000000E-03 0.  1.
</event>
<event>
 8    1  0.2091070E+004  0.1043930E+01  0.7957747E-01            NaN
         13   -1    0    0    0    0  0.00000000000E+00  0.00000000000E+00  0.74505805969E-08  0.10566000000E+00  0.10566000000E+00 0.  1.
     999900   -1    0    0    0    0 -0.00000000000E+00 -0.00000000000E+00 -0.74505805969E-08  0.93827000000E+00  0.93827000000E+00 0.  1.
     999902    2    1    2    0    0  0.10085418743E-01  0.73479042363E-02  0.35514179433E-02  0.10309561826E+01  0.10308745465E+01 0.  0.
     999903    2    3    3    0    0  0.71606489565E-01  0.11339144583E+00 -0.14954807613E-01  0.14226469777E+00  0.45060943453E-01 0.  0.
         14    1    1    2    0    0 -0.10085418743E-01 -0.73479042363E-02 -0.35514179433E-02  0.12973817376E-01  0.00000000000E+00 0. -1.
     999901    1    3    3    0    0 -0.61521070822E-01 -0.10604354160E+00  0.18506225556E-01  0.88869148485E+00  0.88000000000E+00 0.  1.
        -11    1    4    4    0    0  0.55844271199E-01  0.61209169459E-01 -0.25598771105E-01  0.86721988300E-01  0.51100000000E-03 0. -1.
         11    1    4    4    0    0  0.15762218366E-01  0.52182276374E-01  0.10643963493E-01  0.55542709469E-01  0.51100000000E-03 0.  1.
</event>
<event>
 8    1  0.2091070E+004  0.1043930E+01  0.7957747E-01            NaN
         13   -1    0    0    0    0  0.00000000000E+00  0.00000000000E+00  0.74505805969E-08  0.10566000000E+00  0.10566000000E+00 0.  1.
     999900   -1    0    0    0    0 -0.00000000000E+00 -0.00000000000E+00 -0.74505805969E-08  0.93827000000E+00  0.93827000000E+00 0. -1.
     999902    2    1    2    0    0  0.73729156189E-03 -0.70018422361E-02  0.14810600024E-01  0.10275311200E+01  0.10274002527E+01 0.  0.
     999903    2    3    3    0    0  0.70297210171E-01 -0.86502205394E-01  0.70658447939E-01  0.13945574470E+00  0.45066164352E-01 0.  0.
         14    1    1    2    0    0 -0.73729156189E-03  0.70018422361E-02 -0.14810600024E-01  0.16398880042E-01  0.00000000000E+00 0. -1.
     999901    1    3    3    0    0 -0.69559918609E-01  0.79500363158E-01 -0.55847847915E-01  0.88807537526E+00  0.88000000000E+00 0. -1.
        -11    1    4    4    0    0  0.12425244591E-01 -0.46978542939E-02  0.27112865551E-01  0.30196442464E-01  0.51100000000E-03 0. -1.
         11    1    4    4    0    0  0.57871965580E-01 -0.81804351100E-01  0.43545582388E-01  0.10925930224E+00  0.51100000000E-03 0.  1.
</event>
<event>
 8    1  0.2091070E+004  0.1043930E+01  0.7957747E-01            NaN
         13   -1    0    0    0    0  0.00000000000E+00  0.00000000000E+00  0.74505805969E-08  0.10566000000E+00  0.10566000000E+00 0. -1.
     999900   -1    0    0    0    0 -0.00000000000E+00 -0.00000000000E+00 -0.74505805969E-08  0.93827000000E+00  0.93827000000E+00 0. -1.
     999902    2    1    2    0    0  0.20034520328E-02 -0.15529328389E-01 -0.13759645452E-02  0.10282116305E+01  0.10280914794E+01 0.  0.
     999903    2    3    3    0    0  0.43736922776E-01  0.49632815894E-01 -0.11198330286E+00  0.13791854906E+00  0.45879529520E-01 0.  0.
         14    1    1    2    0    0 -0.20034520328E-02  0.15529328389E-01  0.13759645452E-02  0.15718369466E-01  0.00000000000E+00 0.  1.
     999901    1    3    3    0    0 -0.41733470743E-01 -0.65162144283E-01  0.11060733831E+00  0.89029308147E+00  0.88000000000E+00 0. -1.
        -11    1    4    4    0    0  0.37585236087E-01  0.57174378924E-01 -0.84324676514E-01  0.10859314788E+00  0.51100000000E-03 0. -1.
         11    1    4    4    0    0  0.61516866892E-02 -0.75415630303E-02 -0.27658626343E-01  0.29325401178E-01  0.51100000000E-03 0.  1.
</event>
<event>
 8    1  0.2091070E+004  0.1043930E+01  0.7957747E-01            NaN
         13   -1    0    0    0    0  0.00000000000E+00  0.00000000000E+00  0.74505805969E-08  0.10566000000E+00  0.10566000000E+00 0.  1.
     999900   -1    0    0    0    0 -0.00000000000E+00 -0.00000000000E+00 -0.74505805969E-08  0.93827000000E+00  0.93827000000E+00 0.  1.
     999902    2    1    2    0    0  0.44161780651E-02 -0.77798378147E-03  0.13776806489E-01  0.10294417881E+01  0.10293398306E+01 0.  0.
     999903    2    3    3    0    0 -0.10335901171E+00  0.52725743043E-01 -0.61028706048E-01  0.13810907522E+00  0.43434138838E-01 0.  0.
         14    1    1    2    0    0 -0.44161780651E-02  0.77798378147E-03 -0.13776806489E-01  0.14488211915E-01  0.00000000000E+00 0. -1.
     999901    1    3    3    0    0  0.10777518977E+00 -0.53503726825E-01  0.74805512537E-01  0.89133271286E+00  0.88000000000E+00 0. -1.
        -11    1    4    4    0    0 -0.53497642043E-01  0.49185372388E-01 -0.26502100133E-01  0.77355161389E-01  0.51100000000E-03 0.  1.
         11    1    4    4    0    0 -0.49861369662E-01  0.35403706553E-02 -0.34526605915E-01  0.60753913833E-01  0.51100000000E-03 0. -1.
</event>
<event>
 8    1  0.2091070E+004  0.1043930E+01  0.7957747E-01            NaN
         13   -1    0    0    0    0  0.00000000000E+00  0.00000000000E+00  0.74505805969E-08  0.10566000000E+00  0.10566000000E+00 0. -1.
     999900   -1    0    0    0    0 -0.00000000000E+00 -0.00000000000E+00 -0.74505805969E-08  0.93827000000E+00  0.93827000000E+00 0. -1.
     999902    2    1    2    0    0  0.12439852345E-01  0.80712019057E-02  0.14675707708E-03  0.10291004429E+01  0.10289935888E+01 0.  0.
     999903    2    3    3    0    0  0.44153615010E-01  0.12537047410E+00  0.94911218486E-02  0.14070177159E+00  0.45162037627E-01 0.  0.
         14    1    1    2    0    0 -0.12439852345E-01 -0.80712019057E-02 -0.14675707708E-03  0.14829557114E-01  0.00000000000E+00 0. -1.
     999901    1    3    3    0    0 -0.31713762665E-01 -0.11729927219E+00 -0.93443647716E-02  0.88839867129E+00  0.88000000000E+00 0. -1.
        -11    1    4    4    0    0 -0.80945850793E-02  0.31936389534E-01 -0.21426000366E-02  0.33019799212E-01  0.51100000000E-03 0. -1.
         11    1    4    4    0    0  0.52248200089E-01  0.93434084561E-01  0.11633721885E-01  0.10768197238E+00  0.51100000000E-03 0.  1.
</event>
<event>
 8    1  0.2091070E+004  0.1043930E+01  0.7957747E-01            NaN
         13   -1    0    0    0    0  0.00000000000E+00  0.00000000000E+00  0.74505805969E-08  0.10566000000E+00  0.10566000000E+00 0.  1.
     999900   -1    0    0    0    0 -0.00000000000E+00 -0.00000000000E+00 -0.74505805969E-08  0.93827000000E+00  0.93827000000E+00 0. -1.
     999902    2    1    2    0    0 -0.10445308915E-01  0.55792766770E-02  0.64627455046E-02  0.10304392667E+01  0.10303509511E+01 0.  0.
     999903    2    3    3    0    0  0.63730545633E-01 -0.11428260478E+00  0.16523389335E-01  0.13916481702E+00  0.44404140561E-01 0.  0.
         14    1    1    2    0    0  0.10445308915E-01 -0.55792766770E-02 -0.64627455046E-02  0.13490733339E-01  0.00000000000E+00 0. -1.
     999901    1    3    3    0    0 -0.74175854548E-01  0.11986188146E+00 -0.10060643830E-01  0.89127444964E+00  0.88000000000E+00 0. -1.
        -11    1    4    4    0    0  0.44077192949E-01 -0.93822915322E-01 -0.46420049911E-02  0.10376583113E+00  0.51100000000E-03 0. -1.
         11    1    4    4    0    0  0.19653352683E-01 -0.20459689462E-01  0.21165394326E-01  0.35398985897E-01  0.51100000000E-03 0.  1.
</event>
<event>
 8    1  0.2091070E+004  0.1043930E+01  0.7957747E-01            NaN
         13   -1    0    0    0    0  0.00000000000E+00  0.00000000000E+00  0.74505805969E-08  0.10566000000E+00  0.10566000000E+00 0.  1.
     999900   -1    0    0    0    0 -0.00000000000E+00 -0.00000000000E+00 -0.74505805969E-08  0.93827000000E+00  0.93827000000E+00 0.  1.
     999902    2    1    2    0    0  0.92777610175E-02  0.96493552496E-02 -0.36829998708E-02  0.10300465064E+01  0.10299529377E+01 0.  0.
     999903    2    3    3    0    0  0.10413779002E+00  0.73645467251E-01  0.41124853929E-01  0.14150744074E+00  0.45439718517E-01 0.  0.
         14    1    1    2    0    0 -0.92777610175E-02 -0.96493552496E-02  0.36829998708E-02  0.13883493591E-01  0.00000000000E+00 0. -1.
     999901    1    3    3    0    0 -0.94860028999E-01 -0.63996112001E-01 -0.44807853800E-01  0.88853906567E+00  0.88000000000E+00 0.  1.
        -11    1    4    4    0    0  0.70773205100E-01  0.22411194238E-01  0.21381486517E-01  0.77256308959E-01  0.51100000000E-03 0. -1.
         11    1    4    4    0    0  0.33364584917E-01  0.51234273013E-01  0.19743367412E-01  0.64251131785E-01  0.51100000000E-03 0.  1.
</event>
<event>
 8    1  0.2091070E+004  0.1043930E+01  0.7957747E-01            NaN
         13   -1    0    0    0    0  0.00000000000E+00  0.00000000000E+00  0.74505805969E-08  0.10566000000E+00  0.10566000000E+00 0.  1.
     999900   -1    0    0    0    0 -0.00000000000E+00 -0.00000000000E+00 -0.74505805969E-08  0.93827000000E+00  0.93827000000E+00 0. -1.
     999902    2    1    2    0    0  0.67076368178E-02  0.11592946680E-02  0.11998951010E-01  0.10301346681E+01  0.10300422920E+01 0.  0.
     999903    2    3    3    0    0 -0.11330710835E+00 -0.50624845336E-01 -0.41207563351E-01  0.13889055490E+00  0.46809691258E-01 0.  0.
         14    1    1    2    0    0 -0.67076368178E-02 -0.11592946680E-02 -0.11998951010E-01  0.13795331861E-01  0.00000000000E+00 0. -1.
     999901    1    3    3    0    0  0.12001474517E+00  0.51784140004E-01  0.53206514362E-01  0.89124411324E+00  0.88000000000E+00 0.  1.
        -11    1    4    4    0    0 -0.56507654646E-01 -0.45378840385E-01 -0.80761548541E-02  0.72923518747E-01  0.51100000000E-03 0.  1.
         11    1    4    4    0    0 -0.56799453701E-01 -0.52460049514E-02 -0.33131408497E-01  0.65967036152E-01  0.51100000000E-03 0. -1.
</event>
<event>
 8    1  0.2091070E+004  0.1043930E+01  0.7957747E-01            NaN
         13   -1    0    0    0    0  0.00000000000E+00  0.00000000000E+00  0.74505805969E-08  0.10566000000E+00  0.10566000000E+00 0. -1.
     999900   -1    0    0    0    0 -0.00000000000E+00 -0.00000000000E+00 -0.74505805969E-08  0.93827000000E+00  0.93827000000E+00 0.  1.
     999902    2    1    2    0    0  0.65646108334E-02  0.72039139747E-02  0.96321616850E-02  0.10302271160E+01  0.10301359820E+01 0.  0.
     999903    2    3    3    0    0 -0.10028294068E+00  0.44276078230E-01 -0.73736244367E-01  0.13908120438E+00  0.43468475746E-01 0.  0.
         14    1    1    2    0    0 -0.65646108334E-02 -0.72039139747E-02 -0.96321616850E-02  0.13702884028E-01  0.00000000000E+00 0.  1.
     999901    1    3    3    0    0  0.10684755151E+00 -0.37072164255E-01  0.83368406052E-01  0.89114591160E+00  0.88000000000E+00 0. -1.
        -11    1    4    4    0    0 -0.33655336172E-01 -0.48046832869E-02 -0.12877886100E-01  0.36357498618E-01  0.51100000000E-03 0. -1.
         11    1    4    4    0    0 -0.66627604503E-01  0.49080761517E-01 -0.60858358267E-01  0.10272370576E+00  0.51100000000E-03 0.  1.
</event>
<event>
 8    1  0.2091070E+004  0.1043930E+01  0.7957747E-01            NaN
         13   -1    0    0    0    0  0.00000000000E+00  0.00000000000E+00  0.74505805969E-08  0.10566000000E+00  0.10566000000E+00 0.  1.
     999900   -1    0    0    0    0 -0.00000000000E+00 -0.00000000000E+00 -0.74505805969E-08  0.93827000000E+00  0.93827000000E+00 0.  1.
     999902    2    1    2    0    0 -0.91873189972E-02 -0.10024989852E-01  0.21081180900E-02  0.10301694981E+01  0.10300775909E+01 0.  0.
     999903    2    3    3    0    0 -0.86691439135E-01  0.57170136635E-01 -0.82529282493E-01  0.14017760863E+00  0.45330446177E-01 0.  0.
         14    1    1    2    0    0  0.91873189972E-02  0.10024989852E-01 -0.21081180900E-02  0.13760501945E-01  0.00000000000E+00 0.  1.
     999901    1    3    3    0    0  0.77504120138E-01 -0.67195126488E-01  0.84637400583E-01  0.88999188942E+00  0.88000000000E+00 0. -1.
        -11    1    4    4    0    0 -0.32121079266E-02  0.21250975587E-01 -0.91227379588E-02  0.23353951905E-01  0.51100000000E-03 0. -1.
         11    1    4    4    0    0 -0.83479331209E-01  0.35919161049E-01 -0.73406544535E-01  0.11682365673E+00  0.51100000000E-03 0.  1.
</event>
<event>
 7    1  0.2091070E+004  0.1043930E+01  0.7957747E-01            NaN
         13   -1    0    0    0    0  0.00000000000E+00  0.00000000000E+00  0.74505805969E-08  0.10566000000E+00  0.10566000000E+00 0. -1.
     999900   -1    0    0    0    0 -0.00000000000E+00 -0.00000000000E+00 -0.74505805969E-08  0.93827000000E+00  0.93827000000E+00 0. -1.
     999903    2    1    2    0    0 -0.63254135980E-01  0.33552067078E-01  0.86202762412E-01  0.12474651866E+00  0.54808309100E-01 0.  0.
         14    1    1    2    0    0 -0.52414914231E-02 -0.18475182451E-02 -0.33956888092E-01  0.34408673396E-01  0.00000000000E+00 0.  1.
     999901    1    1    2    0    0  0.68495627403E-01 -0.31704548833E-01 -0.52245874320E-01  0.88477480794E+00  0.88000000000E+00 0. -1.
        -11    1    3    3    0    0 -0.72991007090E-01  0.33751589202E-01  0.76816442513E-01  0.11121098800E+00  0.51100000000E-03 0.  1.
         11    1    3    3    0    0  0.97368711099E-02 -0.19952212448E-03  0.93863198992E-02  0.13535530663E-01  0.51100000000E-03 0. -1.
</event>
<event>
 8    1  0.2091070E+004  0.1043930E+01  0.7957747E-01            NaN
         13   -1    0    0    0    0  0.00000000000E+00  0.00000000000E+00  0.74505805969E-08  0.10566000000E+00  0.10566000000E+00 0.  1.
     999900   -1    0    0    0    0 -0.00000000000E+00 -0.00000000000E+00 -0.74505805969E-08  0.93827000000E+00  0.93827000000E+00 0.  1.
     999902    2    1    2    0    0 -0.89482326102E-02  0.73521378255E-02  0.71753105022E-02  0.10303061284E+01  0.10302160493E+01 0.  0.
     999903    2    3    3    0    0 -0.82054385786E-01 -0.66811979731E-01 -0.79690673197E-01  0.13991827743E+00  0.45052836798E-01 0.  0.
         14    1    1    2    0    0  0.89482326102E-02 -0.73521378255E-02 -0.71753105022E-02  0.13623871632E-01  0.00000000000E+00 0. -1.
     999901    1    3    3    0    0  0.73106153176E-01  0.74164117557E-01  0.86865983699E-01  0.89038785093E+00  0.88000000000E+00 0. -1.
        -11    1    4    4    0    0 -0.53023541349E-01 -0.63972059328E-01 -0.44668855725E-01  0.94337098242E-01  0.51100000000E-03 0.  1.
         11    1    4    4    0    0 -0.29030844437E-01 -0.28399204027E-02 -0.35021817472E-01  0.45581179193E-01  0.51100000000E-03 0. -1.
</event>
<event>
 7    1  0.2815770E+004  0.1043930E+01  0.7957747E-01            NaN
         13   -1    0    0    0    0  0.00000000000E+00  0.00000000000E+00  0.74505805969E-08  0.10566000000E+00  0.10566000000E+00 0.  1.
     999900   -1    0    0    0    0 -0.00000000000E+00 -0.00000000000E+00 -0.74505805969E-08  0.93827000000E+00  0.93827000000E+00 0. -1.
     999903    2    1    2    0    0 -0.67303706678E-02 -0.84280890072E-01 -0.70864760955E-01  0.11912665451E+00  0.44953077188E-01 0.  0.
         14    1    1    2    0    0  0.11427765948E-01  0.27473799833E-01 -0.23511358033E-01  0.37923442201E-01  0.00000000000E+00 0. -1.
     999901    1    1    2    0    0 -0.46973952800E-02  0.56807090240E-01  0.94376118988E-01  0.88687990329E+00  0.88000000000E+00 0.  1.
        -11    1    3    3    0    0  0.74811565426E-02 -0.64492553681E-01 -0.29943007166E-01  0.71498964906E-01  0.51100000000E-03 0. -1.
         11    1    3    3    0    0 -0.14211527210E-01 -0.19788336391E-01 -0.40921753789E-01  0.47627689603E-01  0.51100000000E-03 0.  1.
</event>
<event>
 8    1  0.2091070E+004  0.1043930E+01  0.7957747E-01            NaN
         13   -1    0    0    0    0  0.00000000000E+00  0.00000000000E+00  0.74505805969E-08  0.10566000000E+00  0.10566000000E+00 0. -1.
     999900   -1    0    0    0    0 -0.00000000000E+00 -0.00000000000E+00 -0.74505805969E-08  0.93827000000E+00  0.93827000000E+00 0. -1.
     999902    2    1    2    0    0 -0.10278759318E-01  0.14792912268E-02  0.16390257399E-02  0.10334167892E+01  0.10333633111E+01 0.  0.
     999903    2    3    3    0    0  0.86765568766E-01 -0.29867883732E-01 -0.97523676220E-01  0.14199461737E+00  0.47236104170E-01 0.  0.
         14    1    1    2    0    0  0.10278759318E-01 -0.14792912268E-02 -0.16390257399E-02  0.10513210786E-01  0.00000000000E+00 0.  1.
     999901    1    3    3    0    0 -0.97044328084E-01  0.31347174959E-01  0.99162701960E-01  0.89142217184E+00  0.88000000000E+00 0.  1.
        -11    1    4    4    0    0  0.27890355478E-01 -0.34239745475E-01 -0.41225952756E-01  0.60415829056E-01  0.51100000000E-03 0.  1.
         11    1    4    4    0    0  0.58875213288E-01  0.43718617434E-02 -0.56297723465E-01  0.81578788316E-01  0.51100000000E-03 0. -1.
</event>
<event>
 8    1  0.2091070E+004  0.1043930E+01  0.7957747E-01            NaN
         13   -1    0    0    0    0  0.00000000000E+00  0.00000000000E+00  0.74505805969E-08  0.10566000000E+00  0.10566000000E+00 0.  1.
     999900   -1    0    0    0    0 -0.00000000000E+00 -0.00000000000E+00 -0.74505805969E-08  0.93827000000E+00  0.93827000000E+00 0.  1.
     999902    2    1    2    0    0  0.89584069978E-02  0.48297504269E-02 -0.91956989932E-02  0.10302135710E+01  0.10301222556E+01 0.  0.
     999903    2    3    3    0    0 -0.46535823285E-01 -0.40348422294E-01  0.11582065052E+00  0.13850186615E+00  0.44438337161E-01 0.  0.
         14    1    1    2    0    0 -0.89584069978E-02 -0.48297504269E-02  0.91956989932E-02  0.13716429021E-01  0.00000000000E+00 0.  1.
     999901    1    3    3    0    0  0.55494230283E-01  0.45178172721E-01 -0.12501634951E+00  0.89171170483E+00  0.88000000000E+00 0.  1.
        -11    1    4    4    0    0 -0.50928324946E-01 -0.37076949443E-01  0.77903890204E-01  0.10018818140E+00  0.51100000000E-03 0. -1.
         11    1    4    4    0    0  0.43925016613E-02 -0.32714728519E-02  0.37916760315E-01  0.38313684752E-01  0.51100000000E-03 0.  1.
</event>
<event>
 8    1  0.2091070E+004  0.1043930E+01  0.7957747E-01            NaN
         13   -1    0    0    0    0  0.00000000000E+00  0.00000000000E+00  0.74505805969E-08  0.10566000000E+00  0.10566000000E+00 0. -1.
     999900   -1    0    0    0    0 -0.00000000000E+00 -0.00000000000E+00 -0.74505805969E-08  0.93827000000E+00  0.93827000000E+00 0.  1.
     999902    2    1    2    0    0 -0.97304860813E-02  0.18487384769E-02  0.98842842648E-02  0.10299371708E+01  0.10298421124E+01 0.  0.
     999903    2    3    3    0    0  0.48206390982E-01 -0.22630379076E-01 -0.11909126945E+00  0.13831471574E+00  0.45959111651E-01 0.  0.
         14    1    1    2    0    0  0.97304860813E-02 -0.18487384769E-02 -0.98842842648E-02  0.13992829191E-01  0.00000000000E+00 0.  1.
     999901    1    3    3    0    0 -0.57936877064E-01  0.24479117553E-01  0.12897555371E+00  0.89162245506E+00  0.88000000000E+00 0.  1.
        -11    1    4    4    0    0  0.28082992800E-01 -0.20057522389E-01 -0.26468512567E-01  0.43494849896E-01  0.51100000000E-03 0. -1.
         11    1    4    4    0    0  0.20123398183E-01 -0.25728566867E-02 -0.92622756882E-01  0.94819865848E-01  0.51100000000E-03 0.  1.
</event>
<event>
 8    1  0.2091070E+004  0.1043930E+01  0.7957747E-01            NaN
         13   -1    0    0    0    0  0.00000000000E+00  0.00000000000E+00  0.74505805969E-08  0.10566000000E+00  0.10566000000E+00 0.  1.
     999900   -1    0    0    0    0 -0.00000000000E+00 -0.00000000000E+00 -0.74505805969E-08  0.93827000000E+00  0.93827000000E+00 0. -1.
     999902    2    1    2    0    0 -0.63448558647E-02 -0.73693123435E-02 -0.18611593445E-01  0.10229310626E+01  0.10227155047E+01 0.  0.
     999903    2    3    3    0    0 -0.48566109091E-01 -0.91243774530E-01  0.71521738181E-01  0.13335724494E+00  0.44549998920E-01 0.  0.
         14    1    1    2    0    0  0.63448558647E-02  0.73693123435E-02  0.18611593445E-01  0.20998937376E-01  0.00000000000E+00 0.  1.
     999901    1    3    3    0    0  0.42221253227E-01  0.83874462187E-01 -0.90133331626E-01  0.88957381768E+00  0.88000000000E+00 0. -1.
        -11    1    4    4    0    0 -0.38231464798E-01 -0.88525726100E-01  0.48431165337E-01  0.10790870205E+00  0.51100000000E-03 0.  1.
         11    1    4    4    0    0 -0.10334644293E-01 -0.27180484306E-02  0.23090572845E-01  0.25448542890E-01  0.51100000000E-03 0. -1.
</event>
<event>
 8    1  0.2091070E+004  0.1043930E+01  0.7957747E-01            NaN
         13   -1    0    0    0    0  0.00000000000E+00  0.00000000000E+00  0.74505805969E-08  0.10566000000E+00  0.10566000000E+00 0. -1.
     999900   -1    0    0    0    0 -0.00000000000E+00 -0.00000000000E+00 -0.74505805969E-08  0.93827000000E+00  0.93827000000E+00 0. -1.
     999902    2    1    2    0    0 -0.11100176092E-02  0.55098989786E-03 -0.12432056950E-01  0.10314363308E+01  0.10313606609E+01 0.  0.
     999903    2    3    3    0    0 -0.24700215844E-01 -0.12454153537E+00  0.39467902080E-01  0.14076341497E+00  0.46216111937E-01 0.  0.
         14    1    1    2    0    0  0.11100176092E-02 -0.55098989786E-03  0.12432056950E-01  0.12493669155E-01  0.00000000000E+00 0. -1.
     999901    1    3    3    0    0  0.23590198235E-01  0.12509252527E+00 -0.51899959030E-01  0.89067291588E+00  0.88000000000E+00 0.  1.
        -11    1    4    4    0    0 -0.27461312271E-01 -0.47315283020E-01  0.31364836796E-01  0.63062459412E-01  0.51100000000E-03 0.  1.
         11    1    4    4    0    0  0.27610964269E-02 -0.77226252354E-01  0.81030652847E-02  0.77700955555E-01  0.51100000000E-03 0. -1.
</event>
<event>
 8    1  0.2091070E+004  0.1043930E+01  0.7957747E-01            NaN
         13   -1    0    0    0    0  0.00000000000E+00  0.00000000000E+00  0.74505805969E-08  0.10566000000E+00  0.10566000000E+00 0. -1.
     999900   -1    0    0    0    0 -0.00000000000E+00 -0.00000000000E+00 -0.74505805969E-08  0.93827000000E+00  0.93827000000E+00 0. -1.
     999902    2    1    2    0    0 -0.49996313538E-02 -0.19807821263E-02  0.66166202580E-02  0.10354036013E+01  0.10353684939E+01 0.  0.
     999903    2    3    3    0    0 -0.12451131573E+00 -0.46185037773E-01 -0.37753576627E-01  0.14511950432E+00  0.44701370525E-01 0.  0.
         14    1    1    2    0    0  0.49996313538E-02  0.19807821263E-02 -0.66166202580E-02  0.85263987207E-02  0.00000000000E+00 0. -1.
     999901    1    3    3    0    0  0.11951168438E+00  0.44204255647E-01  0.44370196885E-01  0.89028409696E+00  0.88000000000E+00 0.  1.
        -11    1    4    4    0    0 -0.96922191551E-01 -0.30676252243E-01 -0.47202161011E-01  0.11208589917E+00  0.51100000000E-03 0.  1.
         11    1    4    4    0    0 -0.27589124184E-01 -0.15508785529E-01  0.94485843842E-02  0.33033605158E-01  0.51100000000E-03 0. -1.
</event>
<event>
 8    1  0.2091070E+004  0.1043930E+01  0.7957747E-01            NaN
         13   -1    0    0    0    0  0.00000000000E+00  0.00000000000E+00  0.74505805969E-08  0.10566000000E+00  0.10566000000E+00 0. -1.
     999900   -1    0    0    0    0 -0.00000000000E+00 -0.00000000000E+00 -0.74505805969E-08  0.93827000000E+00  0.93827000000E+00 0.  1.
     999902    2    1    2    0    0 -0.35277314122E-03  0.94119695982E-02 -0.10010031952E-01  0.10301855335E+01  0.10300938418E+01 0.  0.
     999903    2    3    3    0    0  0.98733940547E-01  0.15068630768E-01 -0.89156692629E-01  0.14107678391E+00  0.44477954855E-01 0.  0.
         14    1    1    2    0    0  0.35277314122E-03 -0.94119695982E-02  0.10010031952E-01  0.13744466533E-01  0.00000000000E+00 0. -1.
     999901    1    3    3    0    0 -0.99086713688E-01 -0.56566611694E-02  0.79146660678E-01  0.88910874956E+00  0.88000000000E+00 0.  1.
        -11    1    4    4    0    0  0.52494965001E-01  0.47218670447E-02 -0.74910804067E-01  0.91596435880E-01  0.51100000000E-03 0.  1.
         11    1    4    4    0    0  0.46238975546E-01  0.10346763723E-01 -0.14245888562E-01  0.49480348028E-01  0.51100000000E-03 0. -1.
</event>
<event>
 8    1  0.2091070E+004  0.1043930E+01  0.7957747E-01            NaN
         13   -1    0    0    0    0  0.00000000000E+00  0.00000000000E+00  0.74505805969E-08  0.10566000000E+00  0.10566000000E+00 0. -1.
     999900   -1    0    0    0    0 -0.00000000000E+00 -0.00000000000E+00 -0.74505805969E-08  0.93827000000E+00  0.93827000000E+00 0.  1.
     999902    2    1    2    0    0 -0.13586537050E-01 -0.30485916188E-02  0.84556121900E-03  0.10299799866E+01  0.10298855130E+01 0.  0.
     999903    2    3    3    0    0  0.85132643239E-01 -0.96490524687E-01 -0.27809090631E-01  0.13908270831E+00  0.44862745446E-01 0.  0.
         14    1    1    2    0    0  0.13586537050E-01  0.30485916188E-02 -0.84556121900E-03  0.13950013392E-01  0.00000000000E+00 0.  1.
     999901    1    3    3    0    0 -0.98719180288E-01  0.93441933068E-01  0.28654651850E-01  0.89089727830E+00  0.88000000000E+00 0. -1.
        -11    1    4    4    0    0  0.13553794311E-01 -0.31359718550E-01  0.93393712725E-02  0.35420647433E-01  0.51100000000E-03 0.  1.
         11    1    4    4    0    0  0.71578848927E-01 -0.65130806137E-01 -0.37148461903E-01  0.10366206087E+00  0.51100000000E-03 0. -1.
</event>
<event>
 8    1  0.2091070E+004  0.1043930E+01  0.7957747E-01            NaN
         13   -1    0    0    0    0  0.00000000000E+00  0.00000000000E+00  0.74505805969E-08  0.10566000000E+00  0.10566000000E+00 0. -1.
     999900   -1    0    0    0    0 -0.00000000000E+00 -0.00000000000E+00 -0.74505805969E-08  0.93827000000E+00  0.93827000000E+00 0. -1.
     999902    2    1    2    0    0 -0.39835558469E-02  0.48980700320E-02 -0.11683156654E-01  0.10306500920E+01  0.10305645328E+01 0.  0.
     999903    2    3    3    0    0 -0.23612920939E-03  0.33058073947E-01  0.12726212582E+00  0.13929560553E+00  0.45986139655E-01 0.  0.
         14    1    1    2    0    0  0.39835558469E-02 -0.48980700320E-02  0.11683156654E-01  0.13279908006E-01  0.00000000000E+00 0. -1.
     999901    1    3    3    0    0 -0.37474266375E-02 -0.28160003915E-01 -0.13894528247E+00  0.89135448647E+00  0.88000000000E+00 0. -1.
        -11    1    4    4    0    0  0.16362817231E-01  0.52501847966E-02  0.16255598743E-01  0.23660343184E-01  0.51100000000E-03 0. -1.
         11    1    4    4    0    0 -0.16598946440E-01  0.27807889150E-01  0.11100652708E+00  0.11563526234E+00  0.51100000000E-03 0.  1.
</event>
<event>
 8    1  0.2091070E+004  0.1043930E+01  0.7957747E-01            NaN
         13   -1    0    0    0    0  0.00000000000E+00  0.00000000000E+00  0.74505805969E-08  0.10566000000E+00  0.10566000000E+00 0. -1.
     999900   -1    0    0    0    0 -0.00000000000E+00 -0.00000000000E+00 -0.74505805969E-08  0.93827000000E+00  0.93827000000E+00 0. -1.
     999902    2    1    2    0    0  0.31884682131E-02 -0.11305484753E-01 -0.72598626556E-02  0.10301210927E+01  0.10300285334E+01 0.  0.
     999903    2    3    3    0    0 -0.17146219057E-01 -0.19799483966E-01  0.12936839055E+00  0.13930521548E+00  0.44539310672E-01 0.  0.
         14    1    1    2    0    0 -0.31884682131E-02  0.11305484753E-01  0.72598626556E-02  0.13808907300E-01  0.00000000000E+00 0. -1.
     999901    1    3    3    0    0  0.20334687270E-01  0.84939992125E-02 -0.13662825320E+00  0.89081587722E+00  0.88000000000E+00 0. -1.
        -11    1    4    4    0    0  0.10577466822E-01  0.69094435908E-02  0.41224332147E-01  0.43119947786E-01  0.51100000000E-03 0.  1.
         11    1    4    4    0    0 -0.27723685879E-01 -0.26708927556E-01  0.88144058398E-01  0.96185267697E-01  0.51100000000E-03 0. -1.
</event>
<event>
 8    1  0.2091070E+004  0.1043930E+01  0.7957747E-01            NaN
         13   -1    0    0    0    0  0.00000000000E+00  0.00000000000E+00  0.74505805969E-08  0.10566000000E+00  0.10566000000E+00 0. -1.
     999900   -1    0    0    0    0 -0.00000000000E+00 -0.00000000000E+00 -0.74505805969E-08  0.93827000000E+00  0.93827000000E+00 0. -1.
     999902    2    1    2    0    0 -0.12144370842E-01 -0.61747945543E-02 -0.78126572186E-03  0.10302836009E+01  0.10301932218E+01 0.  0.
     999903    2    3    3    0    0  0.28060099233E-01 -0.70750613910E-01  0.10916605548E+00  0.14018537643E+00  0.44064652023E-01 0.  0.
         14    1    1    2    0    0  0.12144370842E-01  0.61747945543E-02  0.78126572186E-03  0.13646399052E-01  0.00000000000E+00 0. -1.
     999901    1    3    3    0    0 -0.40204470076E-01  0.64575819356E-01 -0.10994732120E+00  0.89009822452E+00  0.88000000000E+00 0. -1.
        -11    1    4    4    0    0  0.10997501935E-01 -0.26150365216E-01  0.99375702577E-02  0.30063317738E-01  0.51100000000E-03 0. -1.
         11    1    4    4    0    0  0.17062597298E-01 -0.44600248694E-01  0.99228485218E-01  0.11012205869E+00  0.51100000000E-03 0.  1.
</event>
<event>
 8    1  0.2091070E+004  0.1043930E+01  0.7957747E-01            NaN
         13   -1    0    0    0    0  0.00000000000E+00  0.00000000000E+00  0.74505805969E-08  0.10566000000E+00  0.10566000000E+00 0.  1.
     999900   -1    0    0    0    0 -0.00000000000E+00 -0.00000000000E+00 -0.74505805969E-08  0.93827000000E+00  0.93827000000E+00 0. -1.
     999902    2    1    2    0    0  0.42956615535E-02 -0.92152508321E-02  0.66861162012E-02  0.10317612817E+01  0.10316895195E+01 0.  0.
     999903    2    3    3    0    0  0.20084224821E-01  0.41399813418E-01 -0.12480094276E+00  0.14041398115E+00  0.44983220778E-01 0.  0.
         14    1    1    2    0    0 -0.42956615535E-02  0.92152508321E-02 -0.66861162012E-02  0.12168718336E-01  0.00000000000E+00 0.  1.
     999901    1    3    3    0    0 -0.15788563268E-01 -0.50615064250E-01  0.13148705896E+00  0.89134730051E+00  0.88000000000E+00 0.  1.
        -11    1    4    4    0    0  0.56453830245E-02  0.19195123443E-01 -0.95843363560E-02  0.22191073383E-01  0.51100000000E-03 0. -1.
         11    1    4    4    0    0  0.14438841797E-01  0.22204689975E-01 -0.11521660640E+00  0.11822290777E+00  0.51100000000E-03 0.  1.
</event>
<event>
 8    1  0.2091070E+004  0.1043930E+01  0.7957747E-01            NaN
         13   -1    0    0    0    0  0.00000000000E+00  0.00000000000E+00  0.74505805969E-08  0.10566000000E+00  0.10566000000E+00 0.  1.
     999900   -1    0    0    0    0 -0.00000000000E+00 -0.00000000000E+00 -0.74505805969E-08  0.93827000000E+00  0.93827000000E+00 0. -1.
     999902    2    1    2    0    0  0.84928832659E-02 -0.89516927765E-02  0.70504879529E-02  0.10297183411E+01  0.10296202653E+01 0.  0.
     999903    2    3    3    0    0 -0.17675429098E-03 -0.11643687481E+00  0.65617819305E-01  0.14120364828E+00  0.45554308467E-01 0.  0.
         14    1    1    2    0    0 -0.84928832659E-02  0.89516927765E-02 -0.70504879529E-02  0.14211658950E-01  0.00000000000E+00 0. -1.
     999901    1    3    3    0    0  0.86696375569E-02  0.10748518203E+00 -0.58567331352E-01  0.88851469277E+00  0.88000000000E+00 0. -1.
        -11    1    4    4    0    0  0.15485554272E-01 -0.68931590545E-01  0.56254530512E-01  0.90311681915E-01  0.51100000000E-03 0. -1.
         11    1    4    4    0    0 -0.15662308563E-01 -0.47505284261E-01  0.93632887927E-02  0.50891966362E-01  0.51100000000E-03 0.  1.
</event>
<event>
 8    1  0.2091070E+004  0.1043930E+01  0.7957747E-01            NaN
         13   -1    0    0    0    0  0.00000000000E+00  0.00000000000E+00  0.74505805969E-08  0.10566000000E+00  0.10566000000E+00 0. -1.
     999900   -1    0    0    0    0 -0.00000000000E+00 -0.00000000000E+00 -0.74505805969E-08  0.93827000000E+00  0.93827000000E+00 0.  1.
     999902    2    1    2    0    0 -0.70165812048E-03 -0.13437641524E-01  0.14122368086E-02  0.10304001461E+01  0.10303113142E+01 0.  0.
     999903    2    3    3    0    0  0.10647319583E+00 -0.79889940143E-01  0.15057838608E-01  0.14130591051E+00  0.44963072331E-01 0.  0.
         14    1    1    2    0    0  0.70165812048E-03  0.13437641524E-01 -0.14122368086E-02  0.13529853903E-01  0.00000000000E+00 0.  1.
     999901    1    3    3    0    0 -0.10717485395E+00  0.66452298620E-01 -0.13645601800E-01  0.88909423559E+00  0.88000000000E+00 0.  1.
        -11    1    4    4    0    0  0.37897919810E-01 -0.12349544494E-01 -0.11441926037E-01  0.41472187880E-01  0.51100000000E-03 0. -1.
         11    1    4    4    0    0  0.68575276023E-01 -0.67540395650E-01  0.26499764645E-01  0.99833722626E-01  0.51100000000E-03 0.  1.
</event>
<event>
 8    1  0.2091070E+004  0.1043930E+01  0.7957747E-01            NaN
         13   -1    0    0    0    0  0.00000000000E+00  0.00000000000E+00  0.74505805969E-08  0.10566000000E+00  0.10566000000E+00 0.  1.
     999900   -1    0    0    0    0 -0.00000000000E+00 -0.00000000000E+00 -0.74505805969E-08  0.93827000000E+00  0.93827000000E+00 0. -1.
     999902    2    1    2    0    0 -0.12959522118E-01  0.48120676080E-02  0.29344140795E-02  0.10297979091E+01  0.10297009360E+01 0.  0.
     999903    2    3    3    0    0 -0.33166312028E-01  0.28266223862E-01 -0.12481298995E+00  0.14003512549E+00  0.46179760113E-01 0.  0.
         14    1    1    2    0    0  0.12959522118E-01 -0.48120676080E-02 -0.29344140795E-02  0.14132090935E-01  0.00000000000E+00 0.  1.
     999901    1    3    3    0    0  0.20206789910E-01 -0.23454156255E-01  0.12774740403E+00  0.88976278358E+00  0.88000000000E+00 0.  1.
        -11    1    4    4    0    0 -0.29447131011E-01  0.33090403931E-01 -0.58193868111E-01  0.73136145399E-01  0.51100000000E-03 0. -1.
         11    1    4    4    0    0 -0.37191810167E-02 -0.48241800686E-02 -0.66619121842E-01  0.66898980087E-01  0.51100000000E-03 0.  1.
</event>
<event>
 8    1  0.2091070E+004  0.1043930E+01  0.7957747E-01            NaN
         13   -1    0    0    0    0  0.00000000000E+00  0.00000000000E+00  0.74505805969E-08  0.10566000000E+00  0.10566000000E+00 0. -1.
     999900   -1    0    0    0    0 -0.00000000000E+00 -0.00000000000E+00 -0.74505805969E-08  0.93827000000E+00  0.93827000000E+00 0. -1.
     999902    2    1    2    0    0  0.99104918318E-03 -0.11300600041E-01  0.21641422846E-01  0.10194956610E+01  0.10192028090E+01 0.  0.
     999903    2    3    3    0    0  0.32072567228E-01  0.64236119924E-01 -0.95624217785E-01  0.12796714923E+00  0.45570512203E-01 0.  0.
         14    1    1    2    0    0 -0.99104918318E-03  0.11300600041E-01 -0.21641422846E-01  0.24434339004E-01  0.00000000000E+00 0.  1.
     999901    1    3    3    0    0 -0.31081518044E-01 -0.75536719966E-01  0.11726564063E+00  0.89152851177E+00  0.88000000000E+00 0.  1.
        -11    1    4    4    0    0  0.15452952701E-01  0.47359881986E-01 -0.29900526403E-01  0.58103827491E-01  0.51100000000E-03 0. -1.
         11    1    4    4    0    0  0.16619614526E-01  0.16876237938E-01 -0.65723691381E-01  0.69863321734E-01  0.51100000000E-03 0.  1.
</event>
<event>
 8    1  0.2091070E+004  0.1043930E+01  0.7957747E-01            NaN
         13   -1    0    0    0    0  0.00000000000E+00  0.00000000000E+00  0.74505805969E-08  0.10566000000E+00  0.10566000000E+00 0.  1.
     999900   -1    0    0    0    0 -0.00000000000E+00 -0.00000000000E+00 -0.74505805969E-08  0.93827000000E+00  0.93827000000E+00 0.  1.
     999902    2    1    2    0    0 -0.10648827472E-02 -0.19190651247E-02 -0.18265168115E-01  0.10255334473E+01  0.10253684305E+01 0.  0.
     999903    2    3    3    0    0 -0.10510985064E+00 -0.99823342023E-02 -0.75681372082E-01  0.13750924032E+00  0.45093163486E-01 0.  0.
         14    1    1    2    0    0  0.10648827472E-02  0.19190651247E-02  0.18265168115E-01  0.18396552733E-01  0.00000000000E+00 0.  1.
     999901    1    3    3    0    0  0.10404496790E+00  0.80632690777E-02  0.57416203968E-01  0.88802420695E+00  0.88000000000E+00 0. -1.
        -11    1    4    4    0    0 -0.78435232871E-01  0.11757906032E-01 -0.43839695221E-01  0.90622922640E-01  0.51100000000E-03 0. -1.
         11    1    4    4    0    0 -0.26674617774E-01 -0.21740240234E-01 -0.31841676861E-01  0.46886317675E-01  0.51100000000E-03 0.  1.
</event>
<event>
 8    1  0.2091070E+004  0.1043930E+01  0.7957747E-01            NaN
         13   -1    0    0    0    0  0.00000000000E+00  0.00000000000E+00  0.74505805969E-08  0.10566000000E+00  0.10566000000E+00 0.  1.
     999900   -1    0    0    0    0 -0.00000000000E+00 -0.00000000000E+00 -0.74505805969E-08  0.93827000000E+00  0.93827000000E+00 0. -1.
     999902    2    1    2    0    0  0.71032278784E-02 -0.12403655429E-01  0.25244306008E-02  0.10294152053E+01  0.10293128707E+01 0.  0.
     999903    2    3    3    0    0 -0.12040365137E+00 -0.58309911659E-01  0.92413827723E-02  0.13901613410E+00  0.36646927866E-01 0.  0.
         14    1    1    2    0    0 -0.71032278784E-02  0.12403655429E-01 -0.25244306008E-02  0.14514794664E-01  0.00000000000E+00 0.  1.
     999901    1    3    3    0    0  0.12750687925E+00  0.45906256230E-01 -0.67169521715E-02  0.89039907124E+00  0.88000000000E+00 0.  1.
        -11    1    4    4    0    0 -0.20535592714E-01  0.33836599731E-02  0.56551912489E-02  0.21573178533E-01  0.51100000000E-03 0. -1.
         11    1    4    4    0    0 -0.99868058658E-01 -0.61693571632E-01  0.35861915233E-02  0.11744295556E+00  0.51100000000E-03 0.  1.
</event>
<event>
 8    1  0.2091070E+004  0.1043930E+01  0.7957747E-01            NaN
         13   -1    0    0    0    0  0.00000000000E+00  0.00000000000E+00  0.74505805969E-08  0.10566000000E+00  0.10566000000E+00 0.  1.
     999900   -1    0    0    0    0 -0.00000000000E+00 -0.00000000000E+00 -0.74505805969E-08  0.93827000000E+00  0.93827000000E+00 0.  1.
     999902    2    1    2    0    0  0.97162998231E-02  0.12888386290E-02 -0.10082340035E-01  0.10298686641E+01  0.10297726662E+01 0.  0.
     999903    2    3    3    0    0 -0.42274628047E-01 -0.11566861483E+00  0.46011537158E-01  0.13884193858E+00  0.44650304850E-01 0.  0.
         14    1    1    2    0    0 -0.97162998231E-02 -0.12888386290E-02  0.10082340035E-01  0.14061335919E-01  0.00000000000E+00 0.  1.
     999901    1    3    3    0    0  0.51990927870E-01  0.11695745346E+00 -0.56093877192E-01  0.89102672550E+00  0.88000000000E+00 0.  1.
        -11    1    4    4    0    0  0.79696028639E-02 -0.51716280850E-02  0.47627346065E-02  0.10639787065E-01  0.51100000000E-03 0.  1.
         11    1    4    4    0    0 -0.50244230911E-01 -0.11049698675E+00  0.41248802551E-01  0.12820215151E+00  0.51100000000E-03 0. -1.
</event>
<event>
 8    1  0.2091070E+004  0.1043930E+01  0.7957747E-01            NaN
         13   -1    0    0    0    0  0.00000000000E+00  0.00000000000E+00  0.74505805969E-08  0.10566000000E+00  0.10566000000E+00 0. -1.
     999900   -1    0    0    0    0 -0.00000000000E+00 -0.00000000000E+00 -0.74505805969E-08  0.93827000000E+00  0.93827000000E+00 0.  1.
     999902    2    1    2    0    0  0.26242111620E-02 -0.79610890666E-02  0.63149413108E-02  0.10334350533E+01  0.10333817617E+01 0.  0.
     999903    2    3    3    0    0  0.10017827588E-01  0.10449403175E+00 -0.84021799955E-01  0.14166067227E+00  0.44595108012E-01 0.  0.
         14    1    1    2    0    0 -0.26242111620E-02  0.79610890666E-02 -0.63149413108E-02  0.10494946742E-01  0.00000000000E+00 0. -1.
     999901    1    3    3    0    0 -0.73936164257E-02 -0.11245512082E+00  0.90336741266E-01  0.89177438099E+00  0.88000000000E+00 0.  1.
        -11    1    4    4    0    0  0.22165040674E-01  0.91650565150E-01 -0.59756006517E-01  0.11163402956E+00  0.51100000000E-03 0. -1.
         11    1    4    4    0    0 -0.12147213086E-01  0.12843466604E-01 -0.24265793438E-01  0.30026642709E-01  0.51100000000E-03 0.  1.
</event>
<event>
 8    1  0.2091070E+004  0.1043930E+01  0.7957747E-01            NaN
         13   -1    0    0    0    0  0.00000000000E+00  0.00000000000E+00  0.74505805969E-08  0.10566000000E+00  0.10566000000E+00 0. -1.
     999900   -1    0    0    0    0 -0.00000000000E+00 -0.00000000000E+00 -0.74505805969E-08  0.93827000000E+00  0.93827000000E+00 0.  1.
     999902    2    1    2    0    0  0.69733299863E-02  0.10329858152E-01  0.42560084876E-03  0.10314594572E+01  0.10313840689E+01 0.  0.
     999903    2    3    3    0    0 -0.50871572811E-01  0.79555969091E-01 -0.95447852053E-01  0.14166734322E+00  0.45191531664E-01 0.  0.
         14    1    1    2    0    0 -0.69733299863E-02 -0.10329858152E-01 -0.42560084876E-03  0.12470542755E-01  0.00000000000E+00 0.  1.
     999901    1    3    3    0    0  0.57844902798E-01 -0.69226110940E-01  0.95873452902E-01  0.88979211403E+00  0.88000000000E+00 0. -1.
        -11    1    4    4    0    0  0.60126090707E-02  0.24042598560E-01 -0.17522101178E-01  0.30355941166E-01  0.51100000000E-03 0.  1.
         11    1    4    4    0    0 -0.56884181882E-01  0.55513370531E-01 -0.77925750875E-01  0.11131140205E+00  0.51100000000E-03 0. -1.
</event>
<event>
 8    1  0.2091070E+004  0.1043930E+01  0.7957747E-01            NaN
         13   -1    0    0    0    0  0.00000000000E+00  0.00000000000E+00  0.74505805969E-08  0.10566000000E+00  0.10566000000E+00 0. -1.
     999900   -1    0    0    0    0 -0.00000000000E+00 -0.00000000000E+00 -0.74505805969E-08  0.93827000000E+00  0.93827000000E+00 0. -1.
     999902    2    1    2    0    0 -0.96359556355E-02  0.46522849230E-02 -0.53561680952E-02  0.10319640511E+01  0.10318946743E+01 0.  0.
     999903    2    3    3    0    0 -0.97332436902E-01 -0.90679215194E-01  0.21718062616E-01  0.14206979801E+00  0.44897994629E-01 0.  0.
         14    1    1    2    0    0  0.96359556355E-02 -0.46522849230E-02  0.53561680952E-02  0.11965948883E-01  0.00000000000E+00 0. -1.
     999901    1    3    3    0    0  0.87696481267E-01  0.95331500117E-01 -0.27074230711E-01  0.88989425311E+00  0.88000000000E+00 0.  1.
        -11    1    4    4    0    0 -0.54141775468E-01 -0.75321905762E-01  0.25111287482E-01  0.96101816937E-01  0.51100000000E-03 0. -1.
         11    1    4    4    0    0 -0.43190661434E-01 -0.15357309431E-01 -0.33932248663E-02  0.45967981075E-01  0.51100000000E-03 0.  1.
</event>
<event>
 8    1  0.2091070E+004  0.1043930E+01  0.7957747E-01            NaN
         13   -1    0    0    0    0  0.00000000000E+00  0.00000000000E+00  0.74505805969E-08  0.10566000000E+00  0.10566000000E+00 0. -1.
     999900   -1    0    0    0    0 -0.00000000000E+00 -0.00000000000E+00 -0.74505805969E-08  0.93827000000E+00  0.93827000000E+00 0. -1.
     999902    2    1    2    0    0  0.11818422695E-01 -0.55852473602E-02 -0.26099445205E-02  0.10306002621E+01  0.10305140553E+01 0.  0.
     999903    2    3    3    0    0  0.12921962207E+00  0.29845048074E-01  0.22554341834E-01  0.14174054942E+00  0.44645799254E-01 0.  0.
         14    1    1    2    0    0 -0.11818422695E-01  0.55852473602E-02  0.26099445205E-02  0.13329737938E-01  0.00000000000E+00 0.  1.
     999901    1    3    3    0    0 -0.11740119938E+00 -0.35430295434E-01 -0.25164286355E-01  0.88885971264E+00  0.88000000000E+00 0. -1.
        -11    1    4    4    0    0  0.12973386066E+00  0.22097180637E-01  0.24139929912E-01  0.13379894368E+00  0.51100000000E-03 0. -1.
         11    1    4    4    0    0 -0.51423858492E-03  0.77478674366E-02 -0.15855880780E-02  0.79416057375E-02  0.51100000000E-03 0.  1.
</event>
<event>
 8    1  0.2091070E+004  0.1043930E+01  0.7957747E-01            NaN
         13   -1    0    0    0    0  0.00000000000E+00  0.00000000000E+00  0.74505805969E-08  0.10566000000E+00  0.10566000000E+00 0. -1.
     999900   -1    0    0    0    0 -0.00000000000E+00 -0.00000000000E+00 -0.74505805969E-08  0.93827000000E+00  0.93827000000E+00 0.  1.
     999902    2    1    2    0    0  0.32817088821E-02 -0.73552417715E-02 -0.13357227866E-01  0.10283324127E+01  0.10282141150E+01 0.  0.
     999903    2    3    3    0    0  0.12159086602E+00 -0.36679471072E-01  0.33755233439E-01  0.13868273379E+00  0.44314360760E-01 0.  0.
         14    1    1    2    0    0 -0.32817088821E-02  0.73552417715E-02  0.13357227866E-01  0.15597587344E-01  0.00000000000E+00 0. -1.
     999901    1    3    3    0    0 -0.11830915714E+00  0.29324229301E-01 -0.47112461305E-01  0.88964967886E+00  0.88000000000E+00 0. -1.
        -11    1    4    4    0    0  0.21140744986E-01 -0.10526308793E-02  0.23464200387E-01  0.31604888089E-01  0.51100000000E-03 0. -1.
         11    1    4    4    0    0  0.10045012104E+00 -0.35626840193E-01  0.10291033053E-01  0.10707784571E+00  0.51100000000E-03 0.  1.
</event>
<event>
 7    1  0.2091070E+004  0.1043930E+01  0.7957747E-01            NaN
         13   -1    0    0    0    0  0.00000000000E+00  0.00000000000E+00  0.74505805969E-08  0.10566000000E+00  0.10566000000E+00 0.  1.
     999900   -1    0    0    0    0 -0.00000000000E+00 -0.00000000000E+00 -0.74505805969E-08  0.93827000000E+00  0.93827000000E+00 0.  1.
     999903    2    1    2    0    0 -0.25744840590E-01  0.80028990060E-01  0.77537175028E-01  0.12276189705E+00  0.44621001657E-01 0.  0.
         14    1    1    2    0    0 -0.13740554029E-02  0.20483824994E-01  0.21243682563E-01  0.29542666830E-01  0.00000000000E+00 0.  1.
     999901    1    1    2    0    0  0.27118895992E-01 -0.10051281505E+00 -0.98780857591E-01  0.89162543612E+00  0.88000000000E+00 0.  1.
        -11    1    3    3    0    0 -0.21841547369E-01  0.56846230406E-01  0.78348193675E-01  0.99233299230E-01  0.51100000000E-03 0.  1.
         11    1    3    3    0    0 -0.39032932208E-02  0.23182759654E-01 -0.81101864679E-03  0.23528597820E-01  0.51100000000E-03 0. -1.
</event>
<event>
 8    1  0.2091070E+004  0.1043930E+01  0.7957747E-01            NaN
         13   -1    0    0    0    0  0.00000000000E+00  0.00000000000E+00  0.74505805969E-08  0.10566000000E+00  0.10566000000E+00 0.  1.
     999900   -1    0    0    0    0 -0.00000000000E+00 -0.00000000000E+00 -0.74505805969E-08  0.93827000000E+00  0.93827000000E+00 0.  1.
     999902    2    1    2    0    0  0.89684270029E-02  0.68171886248E-02  0.90705689097E-02  0.10294668757E+01  0.10293652735E+01 0.  0.
     999903    2    3    3    0    0  0.27300913988E-01 -0.10085051553E+00 -0.79201865865E-01  0.13833252146E+00  0.44122381494E-01 0.  0.
         14    1    1    2    0    0 -0.89684270029E-02 -0.68171886248E-02 -0.90705689097E-02  0.14463124282E-01  0.00000000000E+00 0. -1.
     999901    1    3    3    0    0 -0.18332486985E-01  0.10766770416E+00  0.88272434775E-01  0.89113435426E+00  0.88000000000E+00 0. -1.
        -11    1    4    4    0    0  0.17821812542E-02 -0.75720154041E-01 -0.41658270019E-01  0.86442989767E-01  0.51100000000E-03 0. -1.
         11    1    4    4    0    0  0.25518732734E-01 -0.25130361494E-01 -0.37543595847E-01  0.51889531693E-01  0.51100000000E-03 0.  1.
</event>
<event>
 8    1  0.2091070E+004  0.1043930E+01  0.7957747E-01            NaN
         13   -1    0    0    0    0  0.00000000000E+00  0.00000000000E+00  0.74505805969E-08  0.10566000000E+00  0.10566000000E+00 0.  1.
     999900   -1    0    0    0    0 -0.00000000000E+00 -0.00000000000E+00 -0.74505805969E-08  0.93827000000E+00  0.93827000000E+00 0. -1.
     999902    2    1    2    0    0  0.78185577261E-02  0.31105836581E-02 -0.12511614912E-01  0.10288520000E+01  0.10287415088E+01 0.  0.
     999903    2    3    3    0    0 -0.52964856274E-02 -0.95559912981E-01 -0.90994636739E-01  0.13976963264E+00  0.45779652305E-01 0.  0.
         14    1    1    2    0    0 -0.78185577261E-02 -0.31105836581E-02  0.12511614912E-01  0.15077999977E-01  0.00000000000E+00 0.  1.
     999901    1    3    3    0    0  0.13115043353E-01  0.98670496639E-01  0.78483021827E-01  0.88908236738E+00  0.88000000000E+00 0.  1.
        -11    1    4    4    0    0  0.26413623098E-02 -0.26905188838E-01 -0.56255093382E-01  0.62416044682E-01  0.51100000000E-03 0. -1.
         11    1    4    4    0    0 -0.79378479371E-02 -0.68654724143E-01 -0.34739543357E-01  0.77353587962E-01  0.51100000000E-03 0.  1.
</event>
<event>
 8    1  0.2091070E+004  0.1043930E+01  0.7957747E-01            NaN
         13   -1    0    0    0    0  0.00000000000E+00  0.00000000000E+00  0.74505805969E-08  0.10566000000E+00  0.10566000000E+00 0. -1.
     999900   -1    0    0    0    0 -0.00000000000E+00 -0.00000000000E+00 -0.74505805969E-08  0.93827000000E+00  0.93827000000E+00 0. -1.
     999902    2    1    2    0    0  0.85673715308E-03  0.54330416505E-02 -0.15396637192E-01  0.10275804319E+01  0.10274503568E+01 0.  0.
     999903    2    3    3    0    0 -0.11411091819E+00  0.55360668033E-01 -0.32553543875E-01  0.13853336392E+00  0.45228912043E-01 0.  0.
         14    1    1    2    0    0 -0.85673715308E-03 -0.54330416505E-02  0.15396637192E-01  0.16349568096E-01  0.00000000000E+00 0. -1.
     999901    1    3    3    0    0  0.11496765534E+00 -0.49927626383E-01  0.17156906683E-01  0.88904706799E+00  0.88000000000E+00 0.  1.
        -11    1    4    4    0    0 -0.35990299650E-01  0.28493221263E-01 -0.31927504262E-01  0.55917725063E-01  0.51100000000E-03 0. -1.
         11    1    4    4    0    0 -0.78120618537E-01  0.26867446771E-01 -0.62603961349E-03  0.82615638853E-01  0.51100000000E-03 0.  1.
</event>
<event>
 8    1  0.2091070E+004  0.1043930E+01  0.7957747E-01            NaN
         13   -1    0    0    0    0  0.00000000000E+00  0.00000000000E+00  0.74505805969E-08  0.10566000000E+00  0.10566000000E+00 0.  1.
     999900   -1    0    0    0    0 -0.00000000000E+00 -0.00000000000E+00 -0.74505805969E-08  0.93827000000E+00  0.93827000000E+00 0. -1.
     999902    2    1    2    0    0  0.10241733276E-01 -0.10138673753E-01 -0.21186605572E-02  0.10293637881E+01  0.10292607220E+01 0.  0.
     999903    2    3    3    0    0  0.13063825231E+00  0.24390152848E-01  0.60398104184E-03  0.14049092070E+00  0.45564256641E-01 0.  0.
         14    1    1    2    0    0 -0.10241733276E-01  0.10138673753E-01  0.21186605572E-02  0.14566211880E-01  0.00000000000E+00 0.  1.
     999901    1    3    3    0    0 -0.12039651903E+00 -0.34528826601E-01 -0.27226415991E-02  0.88887286742E+00  0.88000000000E+00 0. -1.
        -11    1    4    4    0    0  0.89232060848E-01  0.18492965523E-01  0.21651888802E-01  0.93666514117E-01  0.51100000000E-03 0.  1.
         11    1    4    4    0    0  0.41406191460E-01  0.58971873247E-02 -0.21047907760E-01  0.46824406581E-01  0.51100000000E-03 0. -1.
</event>
<event>
 8    1  0.2091070E+004  0.1043930E+01  0.7957747E-01            NaN
         13   -1    0    0    0    0  0.00000000000E+00  0.00000000000E+00  0.74505805969E-08  0.10566000000E+00  0.10566000000E+00 0. -1.
     999900   -1    0    0    0    0 -0.00000000000E+00 -0.00000000000E+00 -0.74505805969E-08  0.93827000000E+00  0.93827000000E+00 0.  1.
     999902    2    1    2    0    0 -0.90628621689E-02 -0.94651810479E-02 -0.74049275962E-02  0.10288781537E+01  0.10287680483E+01 0.  0.
     999903    2    3    3    0    0  0.35685862718E-01  0.48408148313E-02  0.12522464238E+00  0.13770044266E+00  0.44534105619E-01 0.  0.
         14    1    1    2    0    0  0.90628621689E-02  0.94651810479E-02  0.74049275962E-02  0.15051846254E-01  0.00000000000E+00 0.  1.
     999901    1    3    3    0    0 -0.44748724887E-01 -0.14305995879E-01 -0.13262956998E+00  0.89117771108E+00  0.88000000000E+00 0.  1.
        -11    1    4    4    0    0 -0.41392971031E-03  0.16980086929E-01  0.57964538862E-01  0.60404002983E-01  0.51100000000E-03 0. -1.
         11    1    4    4    0    0  0.36099792428E-01 -0.12139272097E-01  0.67260103523E-01  0.77296439680E-01  0.51100000000E-03 0.  1.
</event>
<event>
 8    1  0.2091070E+004  0.1043930E+01  0.7957747E-01            NaN
         13   -1    0    0    0    0  0.00000000000E+00  0.00000000000E+00  0.74505805969E-08  0.10566000000E+00  0.10566000000E+00 0. -1.
     999900   -1    0    0    0    0 -0.00000000000E+00 -0.00000000000E+00 -0.74505805969E-08  0.93827000000E+00  0.93827000000E+00 0. -1.
     999902    2    1    2    0    0 -0.62223620737E-02  0.23837587652E-02  0.99448165250E-02  0.10319592243E+01  0.10318897912E+01 0.  0.
     999903    2    3    3    0    0  0.10464264933E+00 -0.59214157943E-01 -0.64432503528E-01  0.13976118582E+00  0.30417774256E-01 0.  0.
         14    1    1    2    0    0  0.62223620737E-02 -0.23837587652E-02 -0.99448165250E-02  0.11970775720E-01  0.00000000000E+00 0.  1.
     999901    1    3    3    0    0 -0.11086501140E+00  0.61597916708E-01  0.74377320053E-01  0.89219803846E+00  0.88000000000E+00 0. -1.
        -11    1    4    4    0    0  0.58927209400E-01 -0.28362432524E-01 -0.51158981758E-01  0.83032199308E-01  0.51100000000E-03 0.  1.
         11    1    4    4    0    0  0.45715439930E-01 -0.30851725419E-01 -0.13273521770E-01  0.56728986511E-01  0.51100000000E-03 0. -1.
</event>
<event>
 8    1  0.2091070E+004  0.1043930E+01  0.7957747E-01            NaN
         13   -1    0    0    0    0  0.00000000000E+00  0.00000000000E+00  0.74505805969E-08  0.10566000000E+00  0.10566000000E+00 0. -1.
     999900   -1    0    0    0    0 -0.00000000000E+00 -0.00000000000E+00 -0.74505805969E-08  0.93827000000E+00  0.93827000000E+00 0.  1.
     999902    2    1    2    0    0 -0.48781066980E-02  0.94415472790E-02 -0.89641932075E-02  0.10300269248E+01  0.10299330902E+01 0.  0.
     999903    2    3    3    0    0 -0.96586890977E-01  0.77423372509E-01 -0.52199631049E-01  0.14160060104E+00  0.44749554342E-01 0.  0.
         14    1    1    2    0    0  0.48781066980E-02 -0.94415472790E-02  0.89641932075E-02  0.13903075194E-01  0.00000000000E+00 0. -1.
     999901    1    3    3    0    0  0.91708784280E-01 -0.67981825230E-01  0.43235437842E-01  0.88842632377E+00  0.88000000000E+00 0.  1.
        -11    1    4    4    0    0 -0.29274525365E-01  0.20079051411E-01 -0.38061541112E-01  0.52049093880E-01  0.51100000000E-03 0. -1.
         11    1    4    4    0    0 -0.67312365612E-01  0.57344321099E-01 -0.14138089937E-01  0.89551507160E-01  0.51100000000E-03 0.  1.
</event>
<event>
 8    1  0.2091070E+004  0.1043930E+01  0.7957747E-01            NaN
         13   -1    0    0    0    0  0.00000000000E+00  0.00000000000E+00  0.74505805969E-08  0.10566000000E+00  0.10566000000E+00 0.  1.
     999900   -1    0    0    0    0 -0.00000000000E+00 -0.00000000000E+00 -0.74505805969E-08  0.93827000000E+00  0.93827000000E+00 0.  1.
     999902    2    1    2    0    0 -0.90574544617E-02  0.54656141801E-02 -0.67279985981E-02  0.10313929994E+01  0.10313168004E+01 0.  0.
     999903    2    3    3    0    0 -0.11734545479E+00  0.10933208326E-01  0.65426425816E-01  0.14180745173E+00  0.44036863727E-01 0.  0.
         14    1    1    2    0    0  0.90574544617E-02 -0.54656141801E-02  0.67279985981E-02  0.12537000631E-01  0.00000000000E+00 0.  1.
     999901    1    3    3    0    0  0.10828800033E+00 -0.54675941457E-02 -0.72154424414E-01  0.88958554764E+00  0.88000000000E+00 0.  1.
        -11    1    4    4    0    0 -0.10016634653E+00  0.17678963750E-02  0.69471799609E-01  0.12191396350E+00  0.51100000000E-03 0.  1.
         11    1    4    4    0    0 -0.17179108261E-01  0.91653119509E-02 -0.40453737929E-02  0.19893488229E-01  0.51100000000E-03 0. -1.
</event>
<event>
 8    1  0.2091070E+004  0.1043930E+01  0.7957747E-01            NaN
         13   -1    0    0    0    0  0.00000000000E+00  0.00000000000E+00  0.74505805969E-08  0.10566000000E+00  0.10566000000E+00 0.  1.
     999900   -1    0    0    0    0 -0.00000000000E+00 -0.00000000000E+00 -0.74505805969E-08  0.93827000000E+00  0.93827000000E+00 0.  1.
     999902    2    1    2    0    0 -0.43433640990E-02 -0.12234212406E-01 -0.16366948682E-02  0.10308449117E+01  0.10307618602E+01 0.  0.
     999903    2    3    3    0    0  0.46557125643E-01 -0.12403719149E+00  0.23760686981E-01  0.14194908376E+00  0.45079721761E-01 0.  0.
         14    1    1    2    0    0  0.43433640990E-02  0.12234212406E-01  0.16366948682E-02  0.13085088268E-01  0.00000000000E+00 0. -1.
     999901    1    3    3    0    0 -0.50900489743E-01  0.11180297908E+00 -0.25397381849E-01  0.88889582798E+00  0.88000000000E+00 0. -1.
        -11    1    4    4    0    0  0.54227167826E-01 -0.11823691371E+00  0.24187994536E-01  0.13230976417E+00  0.51100000000E-03 0. -1.
         11    1    4    4    0    0 -0.76700421830E-02 -0.58002777766E-02 -0.42730755542E-03  0.96393195881E-02  0.51100000000E-03 0.  1.
</event>
<event>
 8    1  0.2091070E+004  0.1043930E+01  0.7957747E-01            NaN
         13   -1    0    0    0    0  0.00000000000E+00  0.00000000000E+00  0.74505805969E-08  0.10566000000E+00  0.10566000000E+00 0.  1.
     999900   -1    0    0    0    0 -0.00000000000E+00 -0.00000000000E+00 -0.74505805969E-08  0.93827000000E+00  0.93827000000E+00 0.  1.
     999902    2    1    2    0    0 -0.44313984714E-02  0.10747406190E-01 -0.74092764709E-02  0.10301444492E+01  0.10300522049E+01 0.  0.
     999903    2    3    3    0    0 -0.39368202373E-01 -0.73372803871E-01 -0.10298090666E+00  0.14029573933E+00  0.46307705976E-01 0.  0.
         14    1    1    2    0    0  0.44313984714E-02 -0.10747406190E-01  0.74092764709E-02  0.13785550771E-01  0.00000000000E+00 0.  1.
     999901    1    3    3    0    0  0.34936803902E-01  0.84120210061E-01  0.95571630188E-01  0.88984870990E+00  0.88000000000E+00 0. -1.
        -11    1    4    4    0    0  0.93208567897E-03 -0.42185677049E-01 -0.61505746677E-01  0.74590335347E-01  0.51100000000E-03 0. -1.
         11    1    4    4    0    0 -0.40300288052E-01 -0.31187126822E-01 -0.41475159982E-01  0.65705403986E-01  0.51100000000E-03 0.  1.
</event>
<event>
 8    1  0.2091070E+004  0.1043930E+01  0.7957747E-01            NaN
         13   -1    0    0    0    0  0.00000000000E+00  0.00000000000E+00  0.74505805969E-08  0.10566000000E+00  0.10566000000E+00 0.  1.
     999900   -1    0    0    0    0 -0.00000000000E+00 -0.00000000000E+00 -0.74505805969E-08  0.93827000000E+00  0.93827000000E+00 0. -1.
     999902    2    1    2    0    0  0.69603475842E-02  0.12348096362E-01  0.57739042268E-02  0.10286244490E+01  0.10285105722E+01 0.  0.
     999903    2    3    3    0    0  0.33434359658E-01  0.95297336611E-01 -0.84956260891E-01  0.13968496136E+00  0.45769896163E-01 0.  0.
         14    1    1    2    0    0 -0.69603475842E-02 -0.12348096362E-01 -0.57739042268E-02  0.15305551028E-01  0.00000000000E+00 0. -1.
     999901    1    3    3    0    0 -0.26474012074E-01 -0.82949240249E-01  0.90730165118E-01  0.88893948761E+00  0.88000000000E+00 0.  1.
        -11    1    4    4    0    0  0.25578156546E-01  0.74848682936E-01 -0.87113386706E-01  0.11766720314E+00  0.51100000000E-03 0. -1.
         11    1    4    4    0    0  0.78562031124E-02  0.20448653674E-01  0.21571258143E-02  0.22017758224E-01  0.51100000000E-03 0.  1.
</event>
<event>
 8    1  0.2091070E+004  0.1043930E+01  0.7957747E-01            NaN
         13   -1    0    0    0    0  0.00000000000E+00  0.00000000000E+00  0.74505805969E-08  0.10566000000E+00  0.10566000000E+00 0. -1.
     999900   -1    0    0    0    0 -0.00000000000E+00 -0.00000000000E+00 -0.74505805969E-08  0.93827000000E+00  0.93827000000E+00 0. -1.
     999902    2    1    2    0    0 -0.10471160393E-01 -0.10951294951E-02  0.79598150239E-02  0.10307313954E+01  0.10306468873E+01 0.  0.
     999903    2    3    3    0    0 -0.69203341494E-01 -0.88592982662E-01 -0.72027118453E-01  0.14084193431E+00  0.44841115244E-01 0.  0.
         14    1    1    2    0    0  0.10471160393E-01  0.10951294951E-02 -0.79598150239E-02  0.13198604616E-01  0.00000000000E+00 0. -1.
     999901    1    3    3    0    0  0.58732181102E-01  0.87497853167E-01  0.79986933477E-01  0.88988946108E+00  0.88000000000E+00 0.  1.
        -11    1    4    4    0    0 -0.66560810809E-01 -0.68483528851E-01 -0.73483865418E-01  0.12050093301E+00  0.51100000000E-03 0. -1.
         11    1    4    4    0    0 -0.26425306858E-02 -0.20109453811E-01  0.14567469646E-02  0.20341001296E-01  0.51100000000E-03 0.  1.
</event>
<event>
 8    1  0.2091070E+004  0.1043930E+01  0.7957747E-01            NaN
         13   -1    0    0    0    0  0.00000000000E+00  0.00000000000E+00  0.74505805969E-08  0.10566000000E+00  0.10566000000E+00 0. -1.
     999900   -1    0    0    0    0 -0.00000000000E+00 -0.00000000000E+00 -0.74505805969E-08  0.93827000000E+00  0.93827000000E+00 0.  1.
     999902    2    1    2    0    0  0.13463501140E-01  0.31342626288E-02  0.76773532379E-03  0.10300851857E+01  0.10299921412E+01 0.  0.
     999903    2    3    3    0    0  0.27569415816E-01  0.13026601347E+00 -0.35728470086E-02  0.14082689952E+00  0.45718086555E-01 0.  0.
         14    1    1    2    0    0 -0.13463501140E-01 -0.31342626288E-02 -0.76773532379E-03  0.13844814290E-01  0.00000000000E+00 0. -1.
     999901    1    3    3    0    0 -0.14105914676E-01 -0.12713175084E+00  0.43405823324E-02  0.88925828619E+00  0.88000000000E+00 0. -1.
        -11    1    4    4    0    0  0.26459610476E-01  0.48618137492E-01  0.14440038988E-01  0.57206731481E-01  0.51100000000E-03 0. -1.
         11    1    4    4    0    0  0.11098053402E-02  0.81647875981E-01 -0.18012885996E-01  0.83620168040E-01  0.51100000000E-03 0.  1.
</event>
<event>
 8    1  0.2091070E+004  0.1043930E+01  0.7957747E-01            NaN
         13   -1    0    0    0    0  0.00000000000E+00  0.00000000000E+00  0.74505805969E-08  0.10566000000E+00  0.10566000000E+00 0.  1.
     999900   -1    0    0    0    0 -0.00000000000E+00 -0.00000000000E+00 -0.74505805969E-08  0.93827000000E+00  0.93827000000E+00 0.  1.
     999902    2    1    2    0    0 -0.45338529105E-02 -0.15978762080E-01 -0.17634145461E-02  0.10272271173E+01  0.10270913125E+01 0.  0.
     999903    2    3    3    0    0  0.30942563510E-01  0.86761333608E-01 -0.90997430280E-01  0.13606113222E+00  0.41798661921E-01 0.  0.
         14    1    1    2    0    0  0.45338529105E-02  0.15978762080E-01  0.17634145461E-02  0.16702882706E-01  0.00000000000E+00 0.  1.
     999901    1    3    3    0    0 -0.35476416421E-01 -0.10274009569E+00  0.89234015733E-01  0.89116598507E+00  0.88000000000E+00 0. -1.
        -11    1    4    4    0    0 -0.52163668280E-02  0.47439007313E-01 -0.43507068934E-01  0.64581700705E-01  0.51100000000E-03 0. -1.
         11    1    4    4    0    0  0.36158930338E-01  0.39322326295E-01 -0.47490361346E-01  0.71479431519E-01  0.51100000000E-03 0.  1.
</event>
<event>
 8    1  0.2091070E+004  0.1043930E+01  0.7957747E-01            NaN
         13   -1    0    0    0    0  0.00000000000E+00  0.00000000000E+00  0.74505805969E-08  0.10566000000E+00  0.10566000000E+00 0. -1.
     999900   -1    0    0    0    0 -0.00000000000E+00 -0.00000000000E+00 -0.74505805969E-08  0.93827000000E+00  0.93827000000E+00 0. -1.
     999902    2    1    2    0    0 -0.10130390967E-01 -0.95037770994E-02 -0.64093505981E-03  0.10300246989E+01  0.10299308341E+01 0.  0.
     999903    2    3    3    0    0  0.12052151381E+00  0.21952498431E-01  0.47052625655E-01  0.13854609950E+00  0.44426620705E-01 0.  0.
         14    1    1    2    0    0  0.10130390967E-01  0.95037770994E-02  0.64093505981E-03  0.13905301077E-01  0.00000000000E+00 0.  1.
     999901    1    3    3    0    0 -0.13065190478E+00 -0.31456275530E-01 -0.47693560715E-01  0.89147859942E+00  0.88000000000E+00 0.  1.
        -11    1    4    4    0    0  0.31013753144E-01  0.12886738937E-01  0.33723685858E-01  0.47596943530E-01  0.51100000000E-03 0. -1.
         11    1    4    4    0    0  0.89507760667E-01  0.90657594937E-02  0.13328939797E-01  0.90949155972E-01  0.51100000000E-03 0.  1.
</event>
<event>
 8    1  0.2091070E+004  0.1043930E+01  0.7957747E-01            NaN
         13   -1    0    0    0    0  0.00000000000E+00  0.00000000000E+00  0.74505805969E-08  0.10566000000E+00  0.10566000000E+00 0.  1.
     999900   -1    0    0    0    0 -0.00000000000E+00 -0.00000000000E+00 -0.74505805969E-08  0.93827000000E+00  0.93827000000E+00 0.  1.
     999902    2    1    2    0    0  0.34467950074E-02 -0.70323550309E-02  0.41373126765E-02  0.10350726997E+01  0.10350348022E+01 0.  0.
     999903    2    3    3    0    0 -0.82505153345E-01 -0.77004150253E-01 -0.77614371564E-01  0.14436111479E+00  0.45600452899E-01 0.  0.
         14    1    1    2    0    0 -0.34467950074E-02  0.70323550309E-02 -0.41373126765E-02  0.88573003386E-02  0.00000000000E+00 0. -1.
     999901    1    3    3    0    0  0.85951948353E-01  0.69971795223E-01  0.81751684241E-01  0.89071158487E+00  0.88000000000E+00 0. -1.
        -11    1    4    4    0    0 -0.74788812371E-01 -0.42676877177E-01 -0.49518738789E-01  0.99333020259E-01  0.51100000000E-03 0.  1.
         11    1    4    4    0    0 -0.77163409746E-02 -0.34327273076E-01 -0.28095632775E-01  0.45028094529E-01  0.51100000000E-03 0. -1.
</event>
<event>
 8    1  0.2091070E+004  0.1043930E+01  0.7957747E-01            NaN
         13   -1    0    0    0    0  0.00000000000E+00  0.00000000000E+00  0.74505805969E-08  0.10566000000E+00  0.10566000000E+00 0.  1.
     999900   -1    0    0    0    0 -0.00000000000E+00 -0.00000000000E+00 -0.74505805969E-08  0.93827000000E+00  0.93827000000E+00 0.  1.
     999902    2    1    2    0    0  0.13718874042E-01  0.48968352763E-02  0.48521335827E-02  0.10285765085E+01  0.10284619119E+01 0.  0.
     999903    2    3    3    0    0  0.45979208552E-01 -0.10823622567E+00 -0.57785494734E-01  0.13854095240E+00  0.45002932389E-01 0.  0.
         14    1    1    2    0    0 -0.13718874042E-01 -0.48968352763E-02 -0.48521335827E-02  0.15353491492E-01  0.00000000000E+00 0. -1.
     999901    1    3    3    0    0 -0.32260334510E-01  0.11313306094E+00  0.62637628317E-01  0.89003555611E+00  0.88000000000E+00 0. -1.
        -11    1    4    4    0    0  0.12582613116E-01 -0.22732629803E-01  0.61108530562E-02  0.26696409060E-01  0.51100000000E-03 0. -1.
         11    1    4    4    0    0  0.33396595436E-01 -0.85503595864E-01 -0.63896347790E-01  0.11184454334E+00  0.51100000000E-03 0.  1.
</event>
<event>
 8    1  0.2091070E+004  0.1043930E+01  0.7957747E-01            NaN
         13   -1    0    0    0    0  0.00000000000E+00  0.00000000000E+00  0.74505805969E-08  0.10566000000E+00  0.10566000000E+00 0.  1.
     999900   -1    0    0    0    0 -0.00000000000E+00 -0.00000000000E+00 -0.74505805969E-08  0.93827000000E+00  0.93827000000E+00 0. -1.
     999902    2    1    2    0    0  0.35573068485E-02 -0.32247668926E-02 -0.12440539671E-01  0.10305950616E+01  0.10305087872E+01 0.  0.
     999903    2    3    3    0    0 -0.74768971427E-01 -0.10499299777E+00  0.31696206600E-01  0.14017952323E+00  0.45074610929E-01 0.  0.
         14    1    1    2    0    0 -0.35573068485E-02  0.32247668926E-02  0.12440539671E-01  0.13334938351E-01  0.00000000000E+00 0.  1.
     999901    1    3    3    0    0  0.78326278276E-01  0.10176823088E+00 -0.44136746271E-01  0.89041553842E+00  0.88000000000E+00 0. -1.
        -11    1    4    4    0    0 -0.13691749489E-01 -0.20304170623E-01  0.25830906666E-01  0.35598036588E-01  0.51100000000E-03 0.  1.
         11    1    4    4    0    0 -0.61077221938E-01 -0.84688827152E-01  0.58652999338E-02  0.10458148664E+00  0.51100000000E-03 0. -1.
</event>
<event>
 8    1  0.2091070E+004  0.1043930E+01  0.7957747E-01            NaN
         13   -1    0    0    0    0  0.00000000000E+00  0.00000000000E+00  0.74505805969E-08  0.10566000000E+00  0.10566000000E+00 0. -1.
     999900   -1    0    0    0    0 -0.00000000000E+00 -0.00000000000E+00 -0.74505805969E-08  0.93827000000E+00  0.93827000000E+00 0. -1.
     999902    2    1    2    0    0  0.11604199427E-02 -0.13748706098E-01  0.21385443742E-02  0.10299676626E+01  0.10298730209E+01 0.  0.
     999903    2    3    3    0    0  0.38055611910E-01  0.12415963155E+00 -0.15411741079E-01  0.13829060373E+00  0.44976945332E-01 0.  0.
         14    1    1    2    0    0 -0.11604199427E-02  0.13748706098E-01 -0.21385443742E-02  0.13962337406E-01  0.00000000000E+00 0. -1.
     999901    1    3    3    0    0 -0.36895191968E-01 -0.13790833765E+00  0.17550285453E-01  0.89167705886E+00  0.88000000000E+00 0. -1.
        -11    1    4    4    0    0  0.32213923092E-01  0.34358975121E-01 -0.98968044326E-02  0.48129864651E-01  0.51100000000E-03 0.  1.
         11    1    4    4    0    0  0.58416888181E-02  0.89800656433E-01 -0.55149366460E-02  0.90160739079E-01  0.51100000000E-03 0. -1.
</event>
<event>
 8    1  0.2091070E+004  0.1043930E+01  0.7957747E-01            NaN
         13   -1    0    0    0    0  0.00000000000E+00  0.00000000000E+00  0.74505805969E-08  0.10566000000E+00  0.10566000000E+00 0.  1.
     999900   -1    0    0    0    0 -0.00000000000E+00 -0.00000000000E+00 -0.74505805969E-08  0.93827000000E+00  0.93827000000E+00 0.  1.
     999902    2    1    2    0    0 -0.45965918758E-02 -0.10650939065E-01  0.88141398040E-02  0.10293608470E+01  0.10292577389E+01 0.  0.
     999903    2    3    3    0    0  0.47126065343E-01  0.10250943725E+00 -0.63934568230E-01  0.13763618174E+00  0.46119830328E-01 0.  0.
         14    1    1    2    0    0  0.45965918758E-02  0.10650939065E-01 -0.88141398040E-02  0.14569153041E-01  0.00000000000E+00 0.  1.
     999901    1    3    3    0    0 -0.51722657219E-01 -0.11316037632E+00  0.72748708034E-01  0.89172466522E+00  0.88000000000E+00 0.  1.
        -11    1    4    4    0    0  0.46093981649E-01  0.49030953983E-01 -0.44709554922E-01  0.80795389813E-01  0.51100000000E-03 0.  1.
         11    1    4    4    0    0  0.10320836940E-02  0.53478483267E-01 -0.19225013308E-01  0.56840791928E-01  0.51100000000E-03 0. -1.
</event>
<event>
 8    1  0.2091070E+004  0.1043930E+01  0.7957747E-01            NaN
         13   -1    0    0    0    0  0.00000000000E+00  0.00000000000E+00  0.74505805969E-08  0.10566000000E+00  0.10566000000E+00 0. -1.
     999900   -1    0    0    0    0 -0.00000000000E+00 -0.00000000000E+00 -0.74505805969E-08  0.93827000000E+00  0.93827000000E+00 0. -1.
     999902    2    1    2    0    0  0.27366378010E-02 -0.16228117183E-02 -0.12890888026E-01  0.10306522856E+01  0.10305667549E+01 0.  0.
     999903    2    3    3    0    0  0.11784642770E+00 -0.62062097888E-01  0.93784212305E-03  0.14099257271E+00  0.46244367169E-01 0.  0.
         14    1    1    2    0    0 -0.27366378010E-02  0.16228117183E-02  0.12890888026E-01  0.13277714353E-01  0.00000000000E+00 0. -1.
     999901    1    3    3    0    0 -0.11510978990E+00  0.60439286170E-01 -0.13828730149E-01  0.88965971294E+00  0.88000000000E+00 0. -1.
        -11    1    4    4    0    0  0.50611639811E-01 -0.19866263954E-01  0.22330048174E-01  0.58780087617E-01  0.51100000000E-03 0.  1.
         11    1    4    4    0    0  0.67234787894E-01 -0.42195833935E-01 -0.21392206051E-01  0.82212485094E-01  0.51100000000E-03 0. -1.
</event>
<event>
 8    1  0.2091070E+004  0.1043930E+01  0.7957747E-01            NaN
         13   -1    0    0    0    0  0.00000000000E+00  0.00000000000E+00  0.74505805969E-08  0.10566000000E+00  0.10566000000E+00 0.  1.
     999900   -1    0    0    0    0 -0.00000000000E+00 -0.00000000000E+00 -0.74505805969E-08  0.93827000000E+00  0.93827000000E+00 0.  1.
     999902    2    1    2    0    0  0.83204874168E-02 -0.31113291714E-02  0.99496452217E-02  0.10305918472E+01  0.10305055309E+01 0.  0.
     999903    2    3    3    0    0  0.13105565685E+00  0.99823978146E-02  0.29486422270E-01  0.14176281237E+00  0.44181584546E-01 0.  0.
         14    1    1    2    0    0 -0.83204874168E-02  0.31113291714E-02 -0.99496452217E-02  0.13338152800E-01  0.00000000000E+00 0. -1.
     999901    1    3    3    0    0 -0.12273516944E+00 -0.13093726986E-01 -0.19536777048E-01  0.88882903483E+00  0.88000000000E+00 0. -1.
        -11    1    4    4    0    0  0.86696031921E-01 -0.13078774783E-01  0.26838558536E-01  0.91694196359E-01  0.51100000000E-03 0.  1.
         11    1    4    4    0    0  0.44359624933E-01  0.23061172598E-01  0.26478637338E-02  0.50068616009E-01  0.51100000000E-03 0. -1.
</event>
<event>
 8    1  0.2091070E+004  0.1043930E+01  0.7957747E-01            NaN
         13   -1    0    0    0    0  0.00000000000E+00  0.00000000000E+00  0.74505805969E-08  0.10566000000E+00  0.10566000000E+00 0. -1.
     999900   -1    0    0    0    0 -0.00000000000E+00 -0.00000000000E+00 -0.74505805969E-08  0.93827000000E+00  0.93827000000E+00 0. -1.
     999902    2    1    2    0    0  0.16298026691E-02  0.97040186264E-02  0.10259760168E-01  0.10297142723E+01  0.10296161400E+01 0.  0.
     999903    2    3    3    0    0  0.26283760118E-01  0.11261437259E+00 -0.65126155051E-01  0.14017428179E+00  0.45106321549E-01 0.  0.
         14    1    1    2    0    0 -0.16298026691E-02 -0.97040186264E-02 -0.10259760168E-01  0.14215727661E-01  0.00000000000E+00 0.  1.
     999901    1    3    3    0    0 -0.24653957448E-01 -0.10291035397E+00  0.75385915219E-01  0.88953999055E+00  0.88000000000E+00 0. -1.
        -11    1    4    4    0    0  0.20605086641E-01  0.58310583398E-01 -0.58572048787E-01  0.85180043155E-01  0.51100000000E-03 0.  1.
         11    1    4    4    0    0  0.56786734765E-02  0.54303789193E-01 -0.65541062633E-02  0.54994238636E-01  0.51100000000E-03 0. -1.
</event>
<event>
 8    1  0.2091070E+004  0.1043930E+01  0.7957747E-01            NaN
         13   -1    0    0    0    0  0.00000000000E+00  0.00000000000E+00  0.74505805969E-08  0.10566000000E+00  0.10566000000E+00 0. -1.
     999900   -1    0    0    0    0 -0.00000000000E+00 -0.00000000000E+00 -0.74505805969E-08  0.93827000000E+00  0.93827000000E+00 0. -1.
     999902    2    1    2    0    0  0.13126463891E-01 -0.16174561992E-02 -0.48085996313E-02  0.10298572302E+01  0.10297610751E+01 0.  0.
     999903    2    3    3    0    0  0.10189893843E+00 -0.86001453188E-01  0.11871699922E-01  0.14121813386E+00  0.44966437127E-01 0.  0.
         14    1    1    2    0    0 -0.13126463891E-01  0.16174561992E-02  0.48085996313E-02  0.14072769779E-01  0.00000000000E+00 0. -1.
     999901    1    3    3    0    0 -0.88772474543E-01  0.84383996989E-01 -0.16680299554E-01  0.88863909636E+00  0.88000000000E+00 0. -1.
        -11    1    4    4    0    0  0.84251953103E-01 -0.44294502913E-01  0.11900761783E-01  0.95928535076E-01  0.51100000000E-03 0. -1.
         11    1    4    4    0    0  0.17646985331E-01 -0.41706950276E-01 -0.29061860470E-04  0.45289598786E-01  0.51100000000E-03 0.  1.
</event>
<event>
 8    1  0.2091070E+004  0.1043930E+01  0.7957747E-01            NaN
         13   -1    0    0    0    0  0.00000000000E+00  0.00000000000E+00  0.74505805969E-08  0.10566000000E+00  0.10566000000E+00 0. -1.
     999900   -1    0    0    0    0 -0.00000000000E+00 -0.00000000000E+00 -0.74505805969E-08  0.93827000000E+00  0.93827000000E+00 0. -1.
     999902    2    1    2    0    0 -0.30982460216E-02  0.23340161868E-02  0.13651152571E-01  0.10297384276E+01  0.10296406308E+01 0.  0.
     999903    2    3    3    0    0 -0.81609253436E-01 -0.74924034609E-01  0.74257080151E-01  0.14080318636E+00  0.45141357192E-01 0.  0.
         14    1    1    2    0    0  0.30982460216E-02 -0.23340161868E-02 -0.13651152571E-01  0.14191572375E-01  0.00000000000E+00 0.  1.
     999901    1    3    3    0    0  0.78511007415E-01  0.77258050796E-01 -0.60605927581E-01  0.88893524126E+00  0.88000000000E+00 0. -1.
        -11    1    4    4    0    0 -0.56535303988E-01 -0.55172109176E-01  0.26429956091E-01  0.83300695843E-01  0.51100000000E-03 0. -1.
         11    1    4    4    0    0 -0.25073949448E-01 -0.19751925433E-01  0.47827124060E-01  0.57502490520E-01  0.51100000000E-03 0.  1.
</event>
<event>
 8    1  0.2091070E+004  0.1043930E+01  0.7957747E-01            NaN
         13   -1    0    0    0    0  0.00000000000E+00  0.00000000000E+00  0.74505805969E-08  0.10566000000E+00  0.10566000000E+00 0. -1.
     999900   -1    0    0    0    0 -0.00000000000E+00 -0.00000000000E+00 -0.74505805969E-08  0.93827000000E+00  0.93827000000E+00 0. -1.
     999902    2    1    2    0    0  0.59266155854E-02  0.38098107819E-02 -0.11916670634E-01  0.10300863564E+01  0.10299933277E+01 0.  0.
     999903    2    3    3    0    0 -0.46908441767E-01 -0.11289431749E+00  0.47861130773E-01  0.13880369502E+00  0.45058285398E-01 0.  0.
         14    1    1    2    0    0 -0.59266155854E-02 -0.38098107819E-02  0.11916670634E-01  0.13843643649E-01  0.00000000000E+00 0. -1.
     999901    1    3    3    0    0  0.52835057352E-01  0.11670412827E+00 -0.59777801407E-01  0.89128266133E+00  0.88000000000E+00 0. -1.
        -11    1    4    4    0    0 -0.33702835166E-01 -0.11204433581E+00  0.41894620542E-01  0.12427885837E+00  0.51100000000E-03 0. -1.
         11    1    4    4    0    0 -0.13205606601E-01 -0.84998167703E-03  0.59665102307E-02  0.14524836656E-01  0.51100000000E-03 0.  1.
</event>
<event>
 8    1  0.2091070E+004  0.1043930E+01  0.7957747E-01            NaN
         13   -1    0    0    0    0  0.00000000000E+00  0.00000000000E+00  0.74505805969E-08  0.10566000000E+00  0.10566000000E+00 0. -1.
     999900   -1    0    0    0    0 -0.00000000000E+00 -0.00000000000E+00 -0.74505805969E-08  0.93827000000E+00  0.93827000000E+00 0. -1.
     999902    2    1    2    0    0 -0.14317030845E-02 -0.21129078137E-02 -0.14784040316E-01  0.10289272669E+01  0.10288178840E+01 0.  0.
     999903    2    3    3    0    0  0.68967960015E-01  0.90614904273E-01 -0.67707227071E-01  0.13968296782E+00  0.44265364763E-01 0.  0.
         14    1    1    2    0    0  0.14317030845E-02  0.21129078137E-02  0.14784040316E-01  0.15002733125E-01  0.00000000000E+00 0. -1.
     999901    1    3    3    0    0 -0.70399663099E-01 -0.92727812086E-01  0.52923186756E-01  0.88924429905E+00  0.88000000000E+00 0.  1.
        -11    1    4    4    0    0  0.22587906485E-01  0.12421533363E-01  0.87982572593E-03  0.25798124443E-01  0.51100000000E-03 0.  1.
         11    1    4    4    0    0  0.46380053530E-01  0.78193370910E-01 -0.68587052797E-01  0.11388484338E+00  0.51100000000E-03 0. -1.
</event>
<event>
 8    1  0.2091070E+004  0.1043930E+01  0.7957747E-01            NaN
         13   -1    0    0    0    0  0.00000000000E+00  0.00000000000E+00  0.74505805969E-08  0.10566000000E+00  0.10566000000E+00 0. -1.
     999900   -1    0    0    0    0 -0.00000000000E+00 -0.00000000000E+00 -0.74505805969E-08  0.93827000000E+00  0.93827000000E+00 0. -1.
     999902    2    1    2    0    0 -0.33072907063E-02 -0.87711017985E-02  0.10353980730E-01  0.10299630635E+01  0.10298683590E+01 0.  0.
     999903    2    3    3    0    0  0.54486920703E-01  0.41895370943E-01  0.11369101101E+00  0.14058923648E+00  0.45996095447E-01 0.  0.
         14    1    1    2    0    0  0.33072907063E-02  0.87711017985E-02 -0.10353980730E-01  0.13966936512E-01  0.00000000000E+00 0.  1.
     999901    1    3    3    0    0 -0.57794211410E-01 -0.50666472741E-01 -0.10333703028E+00  0.88937382700E+00  0.88000000000E+00 0. -1.
        -11    1    4    4    0    0  0.19924146333E-01  0.42147423213E-01  0.51739845843E-01  0.69646605513E-01  0.51100000000E-03 0. -1.
         11    1    4    4    0    0  0.34562774371E-01 -0.25205226989E-03  0.61951165167E-01  0.70942630971E-01  0.51100000000E-03 0.  1.
</event>
<event>
 8    1  0.2091070E+004  0.1043930E+01  0.7957747E-01            NaN
         13   -1    0    0    0    0  0.00000000000E+00  0.00000000000E+00  0.74505805969E-08  0.10566000000E+00  0.10566000000E+00 0. -1.
     999900   -1    0    0    0    0 -0.00000000000E+00 -0.00000000000E+00 -0.74505805969E-08  0.93827000000E+00  0.93827000000E+00 0.  1.
     999902    2    1    2    0    0  0.60405511012E-02  0.10801757202E-01  0.60913141739E-02  0.10301361490E+01  0.10300437929E+01 0.  0.
     999903    2    3    3    0    0 -0.10408038389E+00 -0.47375921709E-01  0.65702167637E-01  0.13936978432E+00  0.45055051669E-01 0.  0.
         14    1    1    2    0    0 -0.60405511012E-02 -0.10801757202E-01 -0.60913141739E-02  0.13793850971E-01  0.00000000000E+00 0. -1.
     999901    1    3    3    0    0  0.11012093499E+00  0.58177678911E-01 -0.59610853463E-01  0.89076636471E+00  0.88000000000E+00 0.  1.
        -11    1    4    4    0    0 -0.16826255032E-01 -0.22085665167E-01  0.90944106621E-03  0.27784666065E-01  0.51100000000E-03 0.  1.
         11    1    4    4    0    0 -0.87254128856E-01 -0.25290256542E-01  0.64792726571E-01  0.11158511825E+00  0.51100000000E-03 0. -1.
</event>
<event>
 8    1  0.2091070E+004  0.1043930E+01  0.7957747E-01            NaN
         13   -1    0    0    0    0  0.00000000000E+00  0.00000000000E+00  0.74505805969E-08  0.10566000000E+00  0.10566000000E+00 0.  1.
     999900   -1    0    0    0    0 -0.00000000000E+00 -0.00000000000E+00 -0.74505805969E-08  0.93827000000E+00  0.93827000000E+00 0.  1.
     999902    2    1    2    0    0  0.12427738880E-01 -0.28154868509E-02  0.46360170496E-02  0.10303701949E+01  0.10302809667E+01 0.  0.
     999903    2    3    3    0    0  0.11490379875E+00  0.67453796082E-01 -0.14839579124E-01  0.14142789430E+00  0.45041520912E-01 0.  0.
         14    1    1    2    0    0 -0.12427738880E-01  0.28154868509E-02 -0.46360170496E-02  0.13559805085E-01  0.00000000000E+00 0. -1.
     999901    1    3    3    0    0 -0.10247605987E+00 -0.70269282933E-01  0.19475596173E-01  0.88894230061E+00  0.88000000000E+00 0. -1.
        -11    1    4    4    0    0  0.48446079965E-01  0.10196063718E-01 -0.20356337588E-01  0.53531523239E-01  0.51100000000E-03 0.  1.
         11    1    4    4    0    0  0.66457718782E-01  0.57257732365E-01  0.55167584641E-02  0.87896371064E-01  0.51100000000E-03 0. -1.
</event>
<event>
 8    1  0.2091070E+004  0.1043930E+01  0.7957747E-01            NaN
         13   -1    0    0    0    0  0.00000000000E+00  0.00000000000E+00  0.74505805969E-08  0.10566000000E+00  0.10566000000E+00 0.  1.
     999900   -1    0    0    0    0 -0.00000000000E+00 -0.00000000000E+00 -0.74505805969E-08  0.93827000000E+00  0.93827000000E+00 0.  1.
     999902    2    1    2    0    0  0.13571117916E-01  0.21229989044E-02 -0.28764190724E-02  0.10298958932E+01  0.10298002694E+01 0.  0.
     999903    2    3    3    0    0  0.68735558428E-01 -0.79181978488E-02 -0.11454266698E+00  0.14106897418E+00  0.44644798882E-01 0.  0.
         14    1    1    2    0    0 -0.13571117916E-01 -0.21229989044E-02  0.28764190724E-02  0.14034106759E-01  0.00000000000E+00 0.  1.
     999901    1    3    3    0    0 -0.55164440512E-01  0.10041196753E-01  0.11166624791E+00  0.88882691906E+00  0.88000000000E+00 0. -1.
        -11    1    4    4    0    0  0.39534113129E-01 -0.26226328876E-01 -0.73345434989E-01  0.87353193313E-01  0.51100000000E-03 0. -1.
         11    1    4    4    0    0  0.29201445299E-01  0.18308131027E-01 -0.41197231991E-01  0.53715780865E-01  0.51100000000E-03 0.  1.
</event>
<event>
 8    1  0.2091070E+004  0.1043930E+01  0.7957747E-01            NaN
         13   -1    0    0    0    0  0.00000000000E+00  0.00000000000E+00  0.74505805969E-08  0.10566000000E+00  0.10566000000E+00 0. -1.
     999900   -1    0    0    0    0 -0.00000000000E+00 -0.00000000000E+00 -0.74505805969E-08  0.93827000000E+00  0.93827000000E+00 0.  1.
     999902    2    1    2    0    0  0.13726338923E-01  0.22364010420E-02 -0.44866424475E-02  0.10293168610E+01  0.10292131250E+01 0.  0.
     999903    2    3    3    0    0  0.85966191187E-01 -0.90244009300E-01 -0.46569926405E-01  0.14052992069E+00  0.45229783560E-01 0.  0.
         14    1    1    2    0    0 -0.13726338923E-01 -0.22364010420E-02  0.44866424475E-02  0.14613138962E-01  0.00000000000E+00 0.  1.
     999901    1    3    3    0    0 -0.72239852264E-01  0.92480410342E-01  0.42083283957E-01  0.88878694035E+00  0.88000000000E+00 0. -1.
        -11    1    4    4    0    0  0.33430473784E-01 -0.30279911000E-01  0.52982368851E-02  0.45418080350E-01  0.51100000000E-03 0. -1.
         11    1    4    4    0    0  0.52535717403E-01 -0.59964098300E-01 -0.51868163290E-01  0.95111840336E-01  0.51100000000E-03 0.  1.
</event>
<event>
 8    1  0.2091070E+004  0.1043930E+01  0.7957747E-01            NaN
         13   -1    0    0    0    0  0.00000000000E+00  0.00000000000E+00  0.74505805969E-08  0.10566000000E+00  0.10566000000E+00 0.  1.
     999900   -1    0    0    0    0 -0.00000000000E+00 -0.00000000000E+00 -0.74505805969E-08  0.93827000000E+00  0.93827000000E+00 0. -1.
     999902    2    1    2    0    0 -0.11835085436E-01 -0.83301026836E-02  0.12102563893E-02  0.10294067573E+01  0.10293043026E+01 0.  0.
     999903    2    3    3    0    0 -0.74995143124E-01 -0.59893551384E-01  0.93062734105E-01  0.14087715183E+00  0.44431862891E-01 0.  0.
         14    1    1    2    0    0  0.11835085436E-01  0.83301026836E-02 -0.12102563893E-02  0.14523242700E-01  0.00000000000E+00 0. -1.
     999901    1    3    3    0    0  0.63160057688E-01  0.51563448700E-01 -0.91852477716E-01  0.88852960547E+00  0.88000000000E+00 0. -1.
        -11    1    4    4    0    0 -0.83262746196E-02 -0.19390020085E-01  0.23563368887E-02  0.21239424956E-01  0.51100000000E-03 0. -1.
         11    1    4    4    0    0 -0.66668868504E-01 -0.40503531299E-01  0.90706397216E-01  0.11963772688E+00  0.51100000000E-03 0.  1.
</event>
<event>
 8    1  0.2091070E+004  0.1043930E+01  0.7957747E-01            NaN
         13   -1    0    0    0    0  0.00000000000E+00  0.00000000000E+00  0.74505805969E-08  0.10566000000E+00  0.10566000000E+00 0.  1.
     999900   -1    0    0    0    0 -0.00000000000E+00 -0.00000000000E+00 -0.74505805969E-08  0.93827000000E+00  0.93827000000E+00 0. -1.
     999902    2    1    2    0    0 -0.18872833800E-02 -0.18133917976E-02 -0.13213538866E-01  0.10304597425E+01  0.10303716965E+01 0.  0.
     999903    2    3    3    0    0 -0.74582724264E-02  0.78912497317E-01 -0.10822331776E+00  0.14165461019E+00  0.45507516098E-01 0.  0.
         14    1    1    2    0    0  0.18872833800E-02  0.18133917976E-02  0.13213538866E-01  0.13470257523E-01  0.00000000000E+00 0.  1.
     999901    1    3    3    0    0  0.55709890464E-02 -0.80725889115E-01  0.95009778892E-01  0.88880513229E+00  0.88000000000E+00 0.  1.
        -11    1    4    4    0    0  0.19318212906E-01  0.32722006225E-01 -0.45609082560E-01  0.59366426322E-01  0.51100000000E-03 0. -1.
         11    1    4    4    0    0 -0.26776485332E-01  0.46190491092E-01 -0.62614235198E-01  0.82288183869E-01  0.51100000000E-03 0.  1.
</event>
<event>
 8    1  0.2091070E+004  0.1043930E+01  0.7957747E-01            NaN
         13   -1    0    0    0    0  0.00000000000E+00  0.00000000000E+00  0.74505805969E-08  0.10566000000E+00  0.10566000000E+00 0.  1.
     999900   -1    0    0    0    0 -0.00000000000E+00 -0.00000000000E+00 -0.74505805969E-08  0.93827000000E+00  0.93827000000E+00 0.  1.
     999902    2    1    2    0    0 -0.10591214035E-01 -0.66128892235E-02  0.55621166203E-02  0.10302610110E+01  0.10301703304E+01 0.  0.
     999903    2    3    3    0    0  0.77484664022E-01  0.45097863715E-01 -0.96239795097E-01  0.13852394691E+00  0.43463723234E-01 0.  0.
         14    1    1    2    0    0  0.10591214035E-01  0.66128892235E-02 -0.55621166203E-02  0.13668988987E-01  0.00000000000E+00 0. -1.
     999901    1    3    3    0    0 -0.88075878057E-01 -0.51710752938E-01  0.10180191172E+00  0.89173706410E+00  0.88000000000E+00 0.  1.
        -11    1    4    4    0    0  0.39540790492E-01  0.39907353011E-02 -0.21568454910E-01  0.45220122171E-01  0.51100000000E-03 0. -1.
         11    1    4    4    0    0  0.37943873530E-01  0.41107128413E-01 -0.74671340187E-01  0.93303824740E-01  0.51100000000E-03 0.  1.
</event>
<event>
 8    1  0.2091070E+004  0.1043930E+01  0.7957747E-01            NaN
         13   -1    0    0    0    0  0.00000000000E+00  0.00000000000E+00  0.74505805969E-08  0.10566000000E+00  0.10566000000E+00 0.  1.
     999900   -1    0    0    0    0 -0.00000000000E+00 -0.00000000000E+00 -0.74505805969E-08  0.93827000000E+00  0.93827000000E+00 0.  1.
     999902    2    1    2    0    0 -0.11380263623E-01 -0.50304708085E-02  0.65771261748E-02  0.10298561013E+01  0.10297599306E+01 0.  0.
     999903    2    3    3    0    0  0.80971242004E-02 -0.54237556331E-01 -0.11962281140E+00  0.13927924881E+00  0.45626924112E-01 0.  0.
         14    1    1    2    0    0  0.11380263623E-01  0.50304708085E-02 -0.65771261748E-02  0.14073898728E-01  0.00000000000E+00 0. -1.
     999901    1    3    3    0    0 -0.19477387824E-01  0.49207085523E-01  0.12619993757E+00  0.89057685246E+00  0.88000000000E+00 0. -1.
        -11    1    4    4    0    0  0.54988694806E-02  0.22299295219E-03 -0.52551118315E-01  0.52840973199E-01  0.51100000000E-03 0.  1.
         11    1    4    4    0    0  0.25982547198E-02 -0.54460549284E-01 -0.67071693085E-01  0.86438275608E-01  0.51100000000E-03 0. -1.
</event>
<event>
 8    1  0.2091070E+004  0.1043930E+01  0.7957747E-01            NaN
         13   -1    0    0    0    0  0.00000000000E+00  0.00000000000E+00  0.74505805969E-08  0.10566000000E+00  0.10566000000E+00 0.  1.
     999900   -1    0    0    0    0 -0.00000000000E+00 -0.00000000000E+00 -0.74505805969E-08  0.93827000000E+00  0.93827000000E+00 0.  1.
     999902    2    1    2    0    0 -0.85447686946E-02  0.10860344050E-01  0.14789353695E-01  0.10236893200E+01  0.10234891981E+01 0.  0.
     999903    2    3    3    0    0 -0.12267451295E+00 -0.29982705955E-01  0.19880285372E-01  0.13536524013E+00  0.44503075216E-01 0.  0.
         14    1    1    2    0    0  0.85447686946E-02 -0.10860344050E-01 -0.14789353695E-01  0.20240680019E-01  0.00000000000E+00 0. -1.
     999901    1    3    3    0    0  0.11412974426E+00  0.40843050005E-01 -0.50909316768E-02  0.88832407985E+00  0.88000000000E+00 0.  1.
        -11    1    4    4    0    0 -0.63160451966E-01 -0.23487278324E-01  0.31486228208E-01  0.74381036719E-01  0.51100000000E-03 0.  1.
         11    1    4    4    0    0 -0.59514060989E-01 -0.64954276313E-02 -0.11605942836E-01  0.60984203410E-01  0.51100000000E-03 0. -1.
</event>
<event>
 7    1  0.2091070E+004  0.1043930E+01  0.7957747E-01            NaN
         13   -1    0    0    0    0  0.00000000000E+00  0.00000000000E+00  0.74505805969E-08  0.10566000000E+00  0.10566000000E+00 0.  1.
     999900   -1    0    0    0    0 -0.00000000000E+00 -0.00000000000E+00 -0.74505805969E-08  0.93827000000E+00  0.93827000000E+00 0. -1.
     999902    2    1    2    0    0 -0.11397436561E-01  0.39313676208E-02 -0.80543837207E-02  0.10294306790E+01  0.10293285640E+01 0.  0.
         14    1    1    2    0    0  0.11397436561E-01 -0.39313676208E-02  0.80543837207E-02  0.14499320972E-01  0.00000000000E+00 0.  1.
     999901    1    3    3    0    0 -0.91253563976E-01 -0.93190210292E-01 -0.45377310074E-03  0.88961330596E+00  0.88000000000E+00 0.  1.
        -11    1    3    3    0    0  0.81131271628E-01  0.60522751113E-01 -0.15362090730E-01  0.10237940023E+00  0.51100000000E-03 0.  1.
         11    1    3    3    0    0 -0.12751442130E-02  0.36598826799E-01  0.77614801100E-02  0.37437972840E-01  0.51100000000E-03 0. -1.
</event>
<event>
 8    1  0.2091070E+004  0.1043930E+01  0.7957747E-01            NaN
         13   -1    0    0    0    0  0.00000000000E+00  0.00000000000E+00  0.74505805969E-08  0.10566000000E+00  0.10566000000E+00 0. -1.
     999900   -1    0    0    0    0 -0.00000000000E+00 -0.00000000000E+00 -0.74505805969E-08  0.93827000000E+00  0.93827000000E+00 0.  1.
     999902    2    1    2    0    0 -0.17757554156E-02  0.92879620096E-02 -0.98472624594E-02  0.10302775964E+01  0.10301871372E+01 0.  0.
     999903    2    3    3    0    0  0.34410311190E-01  0.19148067294E-01  0.12531997159E+00  0.13916770743E+00  0.45954733323E-01 0.  0.
         14    1    1    2    0    0  0.17757554156E-02 -0.92879620096E-02  0.98472624594E-02  0.13652403581E-01  0.00000000000E+00 0. -1.
     999901    1    3    3    0    0 -0.36186066606E-01 -0.98601052839E-02 -0.13516723405E+00  0.89110988899E+00  0.88000000000E+00 0.  1.
        -11    1    4    4    0    0  0.26278686512E-02 -0.58670347065E-02  0.71763162024E-01  0.72052344408E-01  0.51100000000E-03 0.  1.
         11    1    4    4    0    0  0.31782442539E-01  0.25015102000E-01  0.53556809566E-01  0.67115363023E-01  0.51100000000E-03 0. -1.
</event>
<event>
 8    1  0.2091070E+004  0.1043930E+01  0.7957747E-01            NaN
         13   -1    0    0    0    0  0.00000000000E+00  0.00000000000E+00  0.74505805969E-08  0.10566000000E+00  0.10566000000E+00 0. -1.
     999900   -1    0    0    0    0 -0.00000000000E+00 -0.00000000000E+00 -0.74505805969E-08  0.93827000000E+00  0.93827000000E+00 0.  1.
     999902    2    1    2    0    0  0.21240752686E-02 -0.53255115518E-02  0.12102557129E-01  0.10305380376E+01  0.10304510188E+01 0.  0.
     999903    2    3    3    0    0 -0.58612965593E-01  0.14021377534E-01  0.12012829960E+00  0.14164386428E+00  0.44722445808E-01 0.  0.
         14    1    1    2    0    0 -0.21240752686E-02  0.53255115518E-02 -0.12102557129E-01  0.13391962444E-01  0.00000000000E+00 0.  1.
     999901    1    3    3    0    0  0.60737040862E-01 -0.19346889086E-01 -0.10802574247E+00  0.88889417328E+00  0.88000000000E+00 0.  1.
        -11    1    4    4    0    0 -0.10789538349E-01  0.17384904728E-01  0.67113484155E-01  0.70165019252E-01  0.51100000000E-03 0.  1.
         11    1    4    4    0    0 -0.47823427244E-01 -0.33635271934E-02  0.53014815446E-01  0.71478845026E-01  0.51100000000E-03 0. -1.
</event>
<event>
 8    1  0.2091070E+004  0.1043930E+01  0.7957747E-01            NaN
         13   -1    0    0    0    0  0.00000000000E+00  0.00000000000E+00  0.74505805969E-08  0.10566000000E+00  0.10566000000E+00 0.  1.
     999900   -1    0    0    0    0 -0.00000000000E+00 -0.00000000000E+00 -0.74505805969E-08  0.93827000000E+00  0.93827000000E+00 0.  1.
     999902    2    1    2    0    0  0.66418895988E-02  0.54640269604E-03  0.12261722447E-01  0.10299742452E+01  0.10298796934E+01 0.  0.
     999903    2    3    3    0    0 -0.66849886682E-01 -0.10961517156E+00 -0.20732672085E-01  0.13945459712E+00  0.50332373096E-01 0.  0.
         14    1    1    2    0    0 -0.66418895988E-02 -0.54640269604E-03 -0.12261722447E-01  0.13955754753E-01  0.00000000000E+00 0. -1.
     999901    1    3    3    0    0  0.73491776281E-01  0.11016157426E+00  0.32994394532E-01  0.89051964812E+00  0.88000000000E+00 0.  1.
        -11    1    4    4    0    0 -0.47538488821E-01 -0.33860877926E-01  0.77168150580E-03  0.58372284405E-01  0.51100000000E-03 0. -1.
         11    1    4    4    0    0 -0.19311397861E-01 -0.75754293635E-01 -0.21504353590E-01  0.81082312718E-01  0.51100000000E-03 0.  1.
</event>
<event>
 8    1  0.2091070E+004  0.1043930E+01  0.7957747E-01            NaN
         13   -1    0    0    0    0  0.00000000000E+00  0.00000000000E+00  0.74505805969E-08  0.10566000000E+00  0.10566000000E+00 0.  1.
     999900   -1    0    0    0    0 -0.00000000000E+00 -0.00000000000E+00 -0.74505805969E-08  0.93827000000E+00  0.93827000000E+00 0. -1.
     999902    2    1    2    0    0 -0.41541775182E-03  0.67497530406E-02  0.13603631009E-01  0.10287382090E+01  0.10286260312E+01 0.  0.
     999903    2    3    3    0    0  0.37491770980E-01 -0.86948982997E-01  0.92265001195E-01  0.13946658610E+00  0.44411030795E-01 0.  0.
         14    1    1    2    0    0  0.41541775182E-03 -0.67497530406E-02 -0.13603631009E-01  0.15191791028E-01  0.00000000000E+00 0. -1.
     999901    1    3    3    0    0 -0.37907188732E-01  0.93698736037E-01 -0.78661370187E-01  0.88927162288E+00  0.88000000000E+00 0. -1.
        -11    1    4    4    0    0 -0.57675337265E-02 -0.32052985664E-01  0.16955484026E-01  0.36720673943E-01  0.51100000000E-03 0.  1.
         11    1    4    4    0    0  0.43259304707E-01 -0.54895997333E-01  0.75309517170E-01  0.10274591215E+00  0.51100000000E-03 0. -1.
</event>
<event>
 8    1  0.2091070E+004  0.1043930E+01  0.7957747E-01            NaN
         13   -1    0    0    0    0  0.00000000000E+00  0.00000000000E+00  0.74505805969E-08  0.10566000000E+00  0.10566000000E+00 0. -1.
     999900   -1    0    0    0    0 -0.00000000000E+00 -0.00000000000E+00 -0.74505805969E-08  0.93827000000E+00  0.93827000000E+00 0. -1.
     999902    2    1    2    0    0 -0.89843523136E-02 -0.60361589489E-02  0.20958143153E-02  0.10329051989E+01  0.10328463602E+01 0.  0.
     999903    2    3    3    0    0  0.62710628238E-01  0.88680610119E-01  0.73340922201E-01  0.14207002787E+00  0.54846407752E-01 0.  0.
         14    1    1    2    0    0  0.89843523136E-02  0.60361589489E-02 -0.20958143153E-02  0.11024801086E-01  0.00000000000E+00 0.  1.
     999901    1    3    3    0    0 -0.71694980552E-01 -0.94716769068E-01 -0.71245107886E-01  0.89083517105E+00  0.88000000000E+00 0. -1.
        -11    1    4    4    0    0  0.36828812491E-01  0.44207428529E-01  0.67823078590E-02  0.57938924632E-01  0.51100000000E-03 0.  1.
         11    1    4    4    0    0  0.25881815748E-01  0.44473181589E-01  0.66558614342E-01  0.84131103233E-01  0.51100000000E-03 0. -1.
</event>
<event>
 8    1  0.2091070E+004  0.1043930E+01  0.7957747E-01            NaN
         13   -1    0    0    0    0  0.00000000000E+00  0.00000000000E+00  0.74505805969E-08  0.10566000000E+00  0.10566000000E+00 0.  1.
     999900   -1    0    0    0    0 -0.00000000000E+00 -0.00000000000E+00 -0.74505805969E-08  0.93827000000E+00  0.93827000000E+00 0. -1.
     999902    2    1    2    0    0  0.41358652564E-02  0.10810398611E-01  0.30927939569E-02  0.10319493709E+01  0.10318798227E+01 0.  0.
     999903    2    3    3    0    0  0.12681090578E+00 -0.95738779427E-03 -0.48445992506E-01  0.14186853586E+00  0.41203699613E-01 0.  0.
         14    1    1    2    0    0 -0.41358652564E-02 -0.10810398611E-01 -0.30927939569E-02  0.11980629115E-01  0.00000000000E+00 0. -1.
     999901    1    3    3    0    0 -0.12267504052E+00  0.11767786405E-01  0.51538786462E-01  0.89008083502E+00  0.88000000000E+00 0.  1.
        -11    1    4    4    0    0  0.58464498212E-01 -0.58899155236E-02 -0.14592487673E-02  0.58780772230E-01  0.51100000000E-03 0.  1.
         11    1    4    4    0    0  0.68346407568E-01  0.49325277293E-02 -0.46986743738E-01  0.83087763632E-01  0.51100000000E-03 0. -1.
</event>
<event>
 8    1  0.2091070E+004  0.1043930E+01  0.7957747E-01            NaN
         13   -1    0    0    0    0  0.00000000000E+00  0.00000000000E+00  0.74505805969E-08  0.10566000000E+00  0.10566000000E+00 0. -1.
     999900   -1    0    0    0    0 -0.00000000000E+00 -0.00000000000E+00 -0.74505805969E-08  0.93827000000E+00  0.93827000000E+00 0. -1.
     999902    2    1    2    0    0 -0.77386829782E-02  0.77991235617E-02 -0.85908163577E-02  0.10299831126E+01  0.10298886816E+01 0.  0.
     999903    2    3    3    0    0 -0.36973005859E-01 -0.23231505903E-01  0.12396415588E+00  0.13903509713E+00  0.45353503295E-01 0.  0.
         14    1    1    2    0    0  0.77386829782E-02 -0.77991235617E-02  0.85908163577E-02  0.13946887404E-01  0.00000000000E+00 0. -1.
     999901    1    3    3    0    0  0.29234322881E-01  0.31030629465E-01 -0.13255497224E+00  0.89094801547E+00  0.88000000000E+00 0. -1.
        -11    1    4    4    0    0 -0.25766112569E-01 -0.31903868346E-01  0.54884270168E-01  0.68514915203E-01  0.51100000000E-03 0. -1.
         11    1    4    4    0    0 -0.11206893290E-01  0.86723624429E-02  0.69079885714E-01  0.70520181926E-01  0.51100000000E-03 0.  1.
</event>
<event>
 8    1  0.2091070E+004  0.1043930E+01  0.7957747E-01            NaN
         13   -1    0    0    0    0  0.00000000000E+00  0.00000000000E+00  0.74505805969E-08  0.10566000000E+00  0.10566000000E+00 0. -1.
     999900   -1    0    0    0    0 -0.00000000000E+00 -0.00000000000E+00 -0.74505805969E-08  0.93827000000E+00  0.93827000000E+00 0.  1.
     999902    2    1    2    0    0  0.12993627744E-01  0.36044758098E-02  0.31248217088E-02  0.10300883556E+01  0.10299953540E+01 0.  0.
     999903    2    3    3    0    0  0.26883990428E-01  0.12835281621E+00  0.25884731339E-01  0.14089034389E+00  0.44529488157E-01 0.  0.
         14    1    1    2    0    0 -0.12993627744E-01 -0.36044758098E-02 -0.31248217088E-02  0.13841644358E-01  0.00000000000E+00 0. -1.
     999901    1    3    3    0    0 -0.13890362684E-01 -0.12474834040E+00 -0.22759909630E-01  0.88919801175E+00  0.88000000000E+00 0.  1.
        -11    1    4    4    0    0  0.61366715074E-02  0.10992059692E+00  0.15153225551E-01  0.11113090358E+00  0.51100000000E-03 0.  1.
         11    1    4    4    0    0  0.20747318921E-01  0.18432219287E-01  0.10731505787E-01  0.29759440313E-01  0.51100000000E-03 0. -1.
</event>
<event>
 8    1  0.2091070E+004  0.1043930E+01  0.7957747E-01            NaN
         13   -1    0    0    0    0  0.00000000000E+00  0.00000000000E+00  0.74505805969E-08  0.10566000000E+00  0.10566000000E+00 0. -1.
     999900   -1    0    0    0    0 -0.00000000000E+00 -0.00000000000E+00 -0.74505805969E-08  0.93827000000E+00  0.93827000000E+00 0.  1.
     999902    2    1    2    0    0 -0.93133872601E-02  0.75626927309E-02 -0.59354749156E-02  0.10305448080E+01  0.10304578778E+01 0.  0.
     999903    2    3    3    0    0 -0.10876767363E+00  0.24762710523E-01 -0.75528353149E-01  0.14204598163E+00  0.45043646701E-01 0.  0.
         14    1    1    2    0    0  0.93133872601E-02 -0.75626927309E-02  0.59354749156E-02  0.13385192045E-01  0.00000000000E+00 0. -1.
     999901    1    3    3    0    0  0.99454286366E-01 -0.17200017792E-01  0.69592878234E-01  0.88849882633E+00  0.88000000000E+00 0. -1.
        -11    1    4    4    0    0 -0.29564485931E-01 -0.98272991445E-02 -0.74813467115E-02  0.32044754742E-01  0.51100000000E-03 0.  1.
         11    1    4    4    0    0 -0.79203187694E-01  0.34590009667E-01 -0.68047006438E-01  0.11000122688E+00  0.51100000000E-03 0. -1.
</event>
<event>
 7    1  0.2091070E+004  0.1043930E+01  0.7957747E-01            NaN
         13   -1    0    0    0    0  0.00000000000E+00  0.00000000000E+00  0.74505805969E-08  0.10566000000E+00  0.10566000000E+00 0. -1.
     999900   -1    0    0    0    0 -0.00000000000E+00 -0.00000000000E+00 -0.74505805969E-08  0.93827000000E+00  0.93827000000E+00 0. -1.
     999903    2    1    2    0    0 -0.70437402482E-01  0.77291429464E-01 -0.15141891319E-01  0.11833936645E+00  0.53287297197E-01 0.  0.
         14    1    1    2    0    0  0.11992454557E-01  0.30578272237E-01  0.17201083528E-01  0.37077310769E-01  0.00000000000E+00 0.  1.
     999901    1    1    2    0    0  0.58444947926E-01 -0.10786970170E+00 -0.20591922099E-02  0.88851332278E+00  0.88000000000E+00 0.  1.
        -11    1    3    3    0    0 -0.13203217296E-01 -0.52968237254E-02  0.63440521228E-02  0.15584909588E-01  0.51100000000E-03 0. -1.
         11    1    3    3    0    0 -0.57234185186E-01  0.82588253190E-01 -0.21485943441E-01  0.10275445686E+00  0.51100000000E-03 0.  1.
</event>
<event>
 8    1  0.2091070E+004  0.1043930E+01  0.7957747E-01            NaN
         13   -1    0    0    0    0  0.00000000000E+00  0.00000000000E+00  0.74505805969E-08  0.10566000000E+00  0.10566000000E+00 0.  1.
     999900   -1    0    0    0    0 -0.00000000000E+00 -0.00000000000E+00 -0.74505805969E-08  0.93827000000E+00  0.93827000000E+00 0.  1.
     999902    2    1    2    0    0 -0.13656784582E-01  0.42338321162E-02  0.55554190894E-02  0.10285906460E+01  0.10284762619E+01 0.  0.
     999903    2    3    3    0    0  0.10554862085E+00 -0.73874865467E-01 -0.10515917173E-01  0.13698020127E+00  0.45331930412E-01 0.  0.
         14    1    1    2    0    0  0.13656784582E-01 -0.42338321162E-02 -0.55554190894E-02  0.15339353988E-01  0.00000000000E+00 0.  1.
     999901    1    3    3    0    0 -0.11920540543E+00  0.78108697583E-01  0.16071336262E-01  0.89161044474E+00  0.88000000000E+00 0.  1.
        -11    1    4    4    0    0  0.58856333726E-01 -0.15629287888E-01 -0.13066233245E-01  0.62284269537E-01  0.51100000000E-03 0.  1.
         11    1    4    4    0    0  0.46692287125E-01 -0.58245577579E-01  0.25503160725E-02  0.74695931734E-01  0.51100000000E-03 0. -1.
</event>
<event>
 8    1  0.2091070E+004  0.1043930E+01  0.7957747E-01            NaN
         13   -1    0    0    0    0  0.00000000000E+00  0.00000000000E+00  0.74505805969E-08  0.10566000000E+00  0.10566000000E+00 0.  1.
     999900   -1    0    0    0    0 -0.00000000000E+00 -0.00000000000E+00 -0.74505805969E-08  0.93827000000E+00  0.93827000000E+00 0. -1.
     999902    2    1    2    0    0 -0.35178587805E-02 -0.61451243559E-02 -0.10732806584E-01  0.10310718889E+01  0.10309917114E+01 0.  0.
     999903    2    3    3    0    0  0.69896633893E-01  0.11238953100E+00 -0.76890000850E-02  0.14008961242E+00  0.45266242152E-01 0.  0.
         14    1    1    2    0    0  0.35178587805E-02  0.61451243559E-02  0.10732806584E-01  0.12858111094E-01  0.00000000000E+00 0.  1.
     999901    1    3    3    0    0 -0.73414492674E-01 -0.11853465535E+00 -0.30438064986E-02  0.89098227649E+00  0.88000000000E+00 0.  1.
        -11    1    4    4    0    0  0.70112576072E-01  0.79742264211E-01 -0.13114427750E-01  0.10698995916E+00  0.51100000000E-03 0. -1.
         11    1    4    4    0    0 -0.21594217895E-03  0.32647266785E-01  0.54254276651E-02  0.33099653259E-01  0.51100000000E-03 0.  1.
</event>
<event>
 8    1  0.2091070E+004  0.1043930E+01  0.7957747E-01            NaN
         13   -1    0    0    0    0  0.00000000000E+00  0.00000000000E+00  0.74505805969E-08  0.10566000000E+00  0.10566000000E+00 0.  1.
     999900   -1    0    0    0    0 -0.00000000000E+00 -0.00000000000E+00 -0.74505805969E-08  0.93827000000E+00  0.93827000000E+00 0.  1.
     999902    2    1    2    0    0  0.78469613687E-02  0.86376733219E-02  0.14271331773E-01  0.10254948403E+01  0.10253291239E+01 0.  0.
     999903    2    3    3    0    0 -0.44112395893E-02  0.92326272896E-01 -0.91907619081E-01  0.13508593714E+00  0.35462660183E-01 0.  0.
         14    1    1    2    0    0 -0.78469613687E-02 -0.86376733219E-02 -0.14271331773E-01  0.18435159715E-01  0.00000000000E+00 0. -1.
     999901    1    3    3    0    0  0.12258200958E-01 -0.83688599574E-01  0.10617895085E+00  0.89040890314E+00  0.88000000000E+00 0.  1.
        -11    1    4    4    0    0 -0.48907935684E-02 -0.12645050381E-02 -0.25351880106E-02  0.56751329473E-02  0.51100000000E-03 0.  1.
         11    1    4    4    0    0  0.47955397912E-03  0.93590777934E-01 -0.89372431070E-01  0.12941080420E+00  0.51100000000E-03 0. -1.
</event>
<event>
 8    1  0.2091070E+004  0.1043930E+01  0.7957747E-01            NaN
         13   -1    0    0    0    0  0.00000000000E+00  0.00000000000E+00  0.74505805969E-08  0.10566000000E+00  0.10566000000E+00 0.  1.
     999900   -1    0    0    0    0 -0.00000000000E+00 -0.00000000000E+00 -0.74505805969E-08  0.93827000000E+00  0.93827000000E+00 0.  1.
     999902    2    1    2    0    0  0.40788318192E-03  0.89878389900E-02 -0.10176633367E-01  0.10303464995E+01  0.10302569571E+01 0.  0.
     999903    2    3    3    0    0  0.34097604614E-01  0.11181151365E+00  0.64053893751E-01  0.14061739662E+00  0.44787160029E-01 0.  0.
         14    1    1    2    0    0 -0.40788318192E-03 -0.89878389900E-02  0.10176633367E-01  0.13583500472E-01  0.00000000000E+00 0.  1.
     999901    1    3    3    0    0 -0.33689721432E-01 -0.10282367466E+00 -0.74230527118E-01  0.88972910291E+00  0.88000000000E+00 0. -1.
        -11    1    4    4    0    0  0.36198135959E-02  0.78361201595E-01  0.30027654758E-01  0.83997036479E-01  0.51100000000E-03 0. -1.
         11    1    4    4    0    0  0.30477791019E-01  0.33450312052E-01  0.34026238993E-01  0.56620360144E-01  0.51100000000E-03 0.  1.
</event>
<event>
 8    1  0.2091070E+004  0.1043930E+01  0.7957747E-01            NaN
         13   -1    0    0    0    0  0.00000000000E+00  0.00000000000E+00  0.74505805969E-08  0.10566000000E+00  0.10566000000E+00 0.  1.
     999900   -1    0    0    0    0 -0.00000000000E+00 -0.00000000000E+00 -0.74505805969E-08  0.93827000000E+00  0.93827000000E+00 0. -1.
     999902    2    1    2    0    0  0.10757431107E-01  0.83967787462E-02 -0.16862498921E-02  0.10301796671E+01  0.10300878966E+01 0.  0.
     999903    2    3    3    0    0 -0.11411783661E+00  0.39732661640E-01  0.52266606014E-01  0.13917647924E+00  0.45130136677E-01 0.  0.
         14    1    1    2    0    0 -0.10757431107E-01 -0.83967787462E-02  0.16862498921E-02  0.13750332942E-01  0.00000000000E+00 0.  1.
     999901    1    3    3    0    0  0.12487526771E+00 -0.31335882894E-01 -0.53952855906E-01  0.89100318782E+00  0.88000000000E+00 0. -1.
        -11    1    4    4    0    0 -0.80779823114E-01  0.47606416269E-01  0.30562060357E-01  0.98620745011E-01  0.51100000000E-03 0.  1.
         11    1    4    4    0    0 -0.33338013491E-01 -0.78737546290E-02  0.21704545658E-01  0.40555734227E-01  0.51100000000E-03 0. -1.
</event>
<event>
 7    1  0.2091070E+004  0.1043930E+01  0.7957747E-01            NaN
         13   -1    0    0    0    0  0.00000000000E+00  0.00000000000E+00  0.74505805969E-08  0.10566000000E+00  0.10566000000E+00 0.  1.
     999900   -1    0    0    0    0 -0.00000000000E+00 -0.00000000000E+00 -0.74505805969E-08  0.93827000000E+00  0.93827000000E+00 0.  1.
     999903    2    1    2    0    0 -0.53841167493E-01  0.86062769093E-01 -0.53559710110E-01  0.12368330372E+00  0.46078688481E-01 0.  0.
         14    1    1    2    0    0 -0.27049614544E-01  0.51604291570E-02 -0.10646114729E-01  0.29523743579E-01  0.00000000000E+00 0. -1.
     999901    1    1    2    0    0  0.80890782038E-01 -0.91223198250E-01  0.64205824839E-01  0.89072295270E+00  0.88000000000E+00 0. -1.
        -11    1    3    3    0    0 -0.15926151907E-01  0.41301141396E-01 -0.47143500000E-01  0.64669910379E-01  0.51100000000E-03 0.  1.
         11    1    3    3    0    0 -0.37915015586E-01  0.44761627697E-01 -0.64162101102E-02  0.59013393345E-01  0.51100000000E-03 0. -1.
</event>
<event>
 8    1  0.2091070E+004  0.1043930E+01  0.7957747E-01            NaN
         13   -1    0    0    0    0  0.00000000000E+00  0.00000000000E+00  0.74505805969E-08  0.10566000000E+00  0.10566000000E+00 0. -1.
     999900   -1    0    0    0    0 -0.00000000000E+00 -0.00000000000E+00 -0.74505805969E-08  0.93827000000E+00  0.93827000000E+00 0. -1.
     999902    2    1    2    0    0 -0.64870782655E-02 -0.82768545279E-02  0.94729468473E-02  0.10297763705E+01  0.10296790996E+01 0.  0.
     999903    2    3    3    0    0  0.70591157770E-01  0.10859309981E+00 -0.18967397860E-01  0.13825604327E+00  0.44490430878E-01 0.  0.
         14    1    1    2    0    0  0.64870782655E-02  0.82768545279E-02 -0.94729468473E-02  0.14153629473E-01  0.00000000000E+00 0. -1.
     999901    1    3    3    0    0 -0.77078236036E-01 -0.11686995433E+00  0.28440344708E-01  0.89152032725E+00  0.88000000000E+00 0. -1.
        -11    1    4    4    0    0  0.21058598849E-01  0.86670733658E-02  0.68324832450E-02  0.23780805169E-01  0.51100000000E-03 0. -1.
         11    1    4    4    0    0  0.49532558922E-01  0.99926026439E-01 -0.25799881105E-01  0.11447523811E+00  0.51100000000E-03 0.  1.
</event>
<event>
 8    1  0.2091070E+004  0.1043930E+01  0.7957747E-01            NaN
         13   -1    0    0    0    0  0.00000000000E+00  0.00000000000E+00  0.74505805969E-08  0.10566000000E+00  0.10566000000E+00 0. -1.
     999900   -1    0    0    0    0 -0.00000000000E+00 -0.00000000000E+00 -0.74505805969E-08  0.93827000000E+00  0.93827000000E+00 0.  1.
     999902    2    1    2    0    0  0.61952463397E-02 -0.10594871109E-01  0.76223320945E-03  0.10316331154E+01  0.10315598245E+01 0.  0.
     999903    2    3    3    0    0  0.99909344752E-01  0.67879367069E-01 -0.57545864342E-01  0.14127342824E+00  0.45356029174E-01 0.  0.
         14    1    1    2    0    0 -0.61952463397E-02  0.10594871109E-01 -0.76223320945E-03  0.12296884585E-01  0.00000000000E+00 0.  1.
     999901    1    3    3    0    0 -0.93714098413E-01 -0.78474238178E-01  0.58308097551E-01  0.89035968717E+00  0.88000000000E+00 0.  1.
        -11    1    4    4    0    0  0.23825754720E-01  0.93808256265E-02  0.58249097208E-02  0.26265132242E-01  0.51100000000E-03 0.  1.
         11    1    4    4    0    0  0.76083590032E-01  0.58498541442E-01 -0.63370774062E-01  0.11500829600E+00  0.51100000000E-03 0. -1.
</event>
<event>
 8    1  0.2091070E+004  0.1043930E+01  0.7957747E-01            NaN
         13   -1    0    0    0    0  0.00000000000E+00  0.00000000000E+00  0.74505805969E-08  0.10566000000E+00  0.10566000000E+00 0. -1.
     999900   -1    0    0    0    0 -0.00000000000E+00 -0.00000000000E+00 -0.74505805969E-08  0.93827000000E+00  0.93827000000E+00 0.  1.
     999902    2    1    2    0    0  0.96096417378E-02  0.75432078526E-02 -0.52328870940E-02  0.10306398417E+01  0.10305541495E+01 0.  0.
     999903    2    3    3    0    0 -0.67217081495E-01 -0.29368128101E-01  0.10914478015E+00  0.13915397933E+00  0.45504109019E-01 0.  0.
         14    1    1    2    0    0 -0.96096417378E-02 -0.75432078526E-02  0.52328870940E-02  0.13290158252E-01  0.00000000000E+00 0. -1.
     999901    1    3    3    0    0  0.76826723232E-01  0.36911335954E-01 -0.11437766724E+00  0.89148586242E+00  0.88000000000E+00 0.  1.
        -11    1    4    4    0    0 -0.48384484475E-01 -0.75431009051E-02  0.36744029866E-01  0.61223700974E-01  0.51100000000E-03 0.  1.
         11    1    4    4    0    0 -0.18832597020E-01 -0.21825027196E-01  0.72400750281E-01  0.77930278358E-01  0.51100000000E-03 0. -1.
</event>
<event>
 8    1  0.2091070E+004  0.1043930E+01  0.7957747E-01            NaN
         13   -1    0    0    0    0  0.00000000000E+00  0.00000000000E+00  0.74505805969E-08  0.10566000000E+00  0.10566000000E+00 0. -1.
     999900   -1    0    0    0    0 -0.00000000000E+00 -0.00000000000E+00 -0.74505805969E-08  0.93827000000E+00  0.93827000000E+00 0. -1.
     999902    2    1    2    0    0  0.10629009593E-01  0.27464129082E-02  0.76763348424E-02  0.10305343012E+01  0.10304472336E+01 0.  0.
     999903    2    3    3    0    0  0.12697875789E+00 -0.47833315610E-02 -0.42431999942E-01  0.14143092918E+00  0.45340356142E-01 0.  0.
         14    1    1    2    0    0 -0.10629009593E-01 -0.27464129082E-02 -0.76763348424E-02  0.13395698765E-01  0.00000000000E+00 0.  1.
     999901    1    3    3    0    0 -0.11634974829E+00  0.75297444693E-02  0.50108334785E-01  0.88910337205E+00  0.88000000000E+00 0.  1.
        -11    1    4    4    0    0  0.43080272219E-01  0.17727081875E-01 -0.24854276290E-01  0.52802987200E-01  0.51100000000E-03 0. -1.
         11    1    4    4    0    0  0.83898485667E-01 -0.22510413437E-01 -0.17577723652E-01  0.88627941983E-01  0.51100000000E-03 0.  1.
</event>
<event>
 8    1  0.2091070E+004  0.1043930E+01  0.7957747E-01            NaN
         13   -1    0    0    0    0  0.00000000000E+00  0.00000000000E+00  0.74505805969E-08  0.10566000000E+00  0.10566000000E+00 0. -1.
     999900   -1    0    0    0    0 -0.00000000000E+00 -0.00000000000E+00 -0.74505805969E-08  0.93827000000E+00  0.93827000000E+00 0. -1.
     999902    2    1    2    0    0  0.13877802567E-01 -0.22419695044E-02  0.13226212495E-02  0.10298101856E+01  0.10297133821E+01 0.  0.
     999903    2    3    3    0    0  0.47734186315E-01 -0.76252895804E-01 -0.99169409736E-01  0.14035950108E+00  0.42108918927E-01 0.  0.
         14    1    1    2    0    0 -0.13877802567E-01  0.22419695044E-02 -0.13226212495E-02  0.14119814387E-01  0.00000000000E+00 0.  1.
     999901    1    3    3    0    0 -0.33856383748E-01  0.74010926299E-01  0.10049203099E+00  0.88945068454E+00  0.88000000000E+00 0.  1.
        -11    1    4    4    0    0  0.48253119479E-01 -0.40571243571E-01 -0.70531759924E-01  0.94601160793E-01  0.51100000000E-03 0. -1.
         11    1    4    4    0    0 -0.51893316421E-03 -0.35681652232E-01 -0.28637649813E-01  0.45758340283E-01  0.51100000000E-03 0.  1.
</event>
<event>
 8    1  0.2091070E+004  0.1043930E+01  0.7957747E-01            NaN
         13   -1    0    0    0    0  0.00000000000E+00  0.00000000000E+00  0.74505805969E-08  0.10566000000E+00  0.10566000000E+00 0.  1.
     999900   -1    0    0    0    0 -0.00000000000E+00 -0.00000000000E+00 -0.74505805969E-08  0.93827000000E+00  0.93827000000E+00 0. -1.
     999902    2    1    2    0    0 -0.47229968445E-02 -0.75722711501E-02 -0.10172667077E-01  0.10303974782E+01  0.10303086111E+01 0.  0.
     999903    2    3    3    0    0 -0.44382851504E-01 -0.79624460764E-01  0.98812620307E-01  0.13986830131E+00  0.38591650924E-01 0.  0.
         14    1    1    2    0    0  0.47229968445E-02  0.75722711501E-02  0.10172667077E-01  0.13532521754E-01  0.00000000000E+00 0.  1.
     999901    1    3    3    0    0  0.39659854660E-01  0.72052189613E-01 -0.10898528738E+00  0.89052917693E+00  0.88000000000E+00 0. -1.
        -11    1    4    4    0    0 -0.25002088735E-01 -0.18997086619E-01  0.15495838379E-01  0.35019649758E-01  0.51100000000E-03 0. -1.
         11    1    4    4    0    0 -0.19380762769E-01 -0.60627374145E-01  0.83316781928E-01  0.10484865156E+00  0.51100000000E-03 0.  1.
</event>
<event>
 8    1  0.2091070E+004  0.1043930E+01  0.7957747E-01            NaN
         13   -1    0    0    0    0  0.00000000000E+00  0.00000000000E+00  0.74505805969E-08  0.10566000000E+00  0.10566000000E+00 0.  1.
     999900   -1    0    0    0    0 -0.00000000000E+00 -0.00000000000E+00 -0.74505805969E-08  0.93827000000E+00  0.93827000000E+00 0.  1.
     999902    2    1    2    0    0 -0.33638177998E-02 -0.77573675652E-02 -0.10778251718E-01  0.10302309952E+01  0.10301399132E+01 0.  0.
     999903    2    3    3    0    0  0.86592043560E-01 -0.97388410542E-01  0.23789802307E-01  0.14044409309E+00  0.46646586940E-01 0.  0.
         14    1    1    2    0    0  0.33638177998E-02  0.77573675652E-02  0.10778251718E-01  0.13699004775E-01  0.00000000000E+00 0.  1.
     999901    1    3    3    0    0 -0.89955861360E-01  0.89631042977E-01 -0.34568054025E-01  0.88978690214E+00  0.88000000000E+00 0. -1.
        -11    1    4    4    0    0  0.62374088212E-01 -0.93037627278E-01  0.10577204890E-01  0.11251073440E+00  0.51100000000E-03 0.  1.
         11    1    4    4    0    0  0.24217955348E-01 -0.43507832639E-02  0.13212597417E-01  0.27933358691E-01  0.51100000000E-03 0. -1.
</event>
<event>
 8    1  0.2091070E+004  0.1043930E+01  0.7957747E-01            NaN
         13   -1    0    0    0    0  0.00000000000E+00  0.00000000000E+00  0.74505805969E-08  0.10566000000E+00  0.10566000000E+00 0. -1.
     999900   -1    0    0    0    0 -0.00000000000E+00 -0.00000000000E+00 -0.74505805969E-08  0.93827000000E+00  0.93827000000E+00 0. -1.
     999902    2    1    2    0    0  0.23096561827E-02 -0.13136239663E-01 -0.50190984977E-02  0.10296791525E+01  0.10295805313E+01 0.  0.
     999903    2    3    3    0    0 -0.28498325985E-01 -0.32075428561E-01  0.12537358138E+00  0.13933647938E+00  0.43071241896E-01 0.  0.
         14    1    1    2    0    0 -0.23096561827E-02  0.13136239663E-01  0.50190984977E-02  0.14250847480E-01  0.00000000000E+00 0. -1.
     999901    1    3    3    0    0  0.30807982168E-01  0.18939188897E-01 -0.13039267988E+00  0.89034267314E+00  0.88000000000E+00 0. -1.
        -11    1    4    4    0    0  0.60082909206E-02  0.66041119158E-02  0.17342757066E-01  0.19512718868E-01  0.51100000000E-03 0. -1.
         11    1    4    4    0    0 -0.34506616906E-01 -0.38679540476E-01  0.10803082431E+00  0.11982376052E+00  0.51100000000E-03 0.  1.
</event>
<event>
 8    1  0.2091070E+004  0.1043930E+01  0.7957747E-01            NaN
         13   -1    0    0    0    0  0.00000000000E+00  0.00000000000E+00  0.74505805969E-08  0.10566000000E+00  0.10566000000E+00 0. -1.
     999900   -1    0    0    0    0 -0.00000000000E+00 -0.00000000000E+00 -0.74505805969E-08  0.93827000000E+00  0.93827000000E+00 0. -1.
     999902    2    1    2    0    0  0.13847390396E-01  0.18612955878E-02  0.41244143778E-02  0.10293620408E+01  0.10292589497E+01 0.  0.
     999903    2    3    3    0    0 -0.11748196721E+00 -0.25983492264E-01  0.49164854790E-01  0.13804202324E+00  0.46489383153E-01 0.  0.
         14    1    1    2    0    0 -0.13847390396E-01 -0.18612955878E-02 -0.41244143778E-02  0.14567959226E-01  0.00000000000E+00 0.  1.
     999901    1    3    3    0    0  0.13132935760E+00  0.27844787852E-01 -0.45040440412E-01  0.89132001753E+00  0.88000000000E+00 0. -1.
        -11    1    4    4    0    0 -0.89677585065E-01 -0.11621920861E-01  0.55509263290E-01  0.10610691655E+00  0.51100000000E-03 0.  1.
         11    1    4    4    0    0 -0.27804382140E-01 -0.14361571403E-01 -0.63444084998E-02  0.31935106694E-01  0.51100000000E-03 0. -1.
</event>
<event>
 8    1  0.2091070E+004  0.1043930E+01  0.7957747E-01            NaN
         13   -1    0    0    0    0  0.00000000000E+00  0.00000000000E+00  0.74505805969E-08  0.10566000000E+00  0.10566000000E+00 0. -1.
     999900   -1    0    0    0    0 -0.00000000000E+00 -0.00000000000E+00 -0.74505805969E-08  0.93827000000E+00  0.93827000000E+00 0. -1.
     999902    2    1    2    0    0  0.49077592531E-02 -0.13534664239E-01  0.19179274976E-02  0.10294058242E+01  0.10293033563E+01 0.  0.
     999903    2    3    3    0    0 -0.36941836603E-01  0.12276742343E+00  0.21631687859E-01  0.13771177346E+00  0.45387917803E-01 0.  0.
         14    1    1    2    0    0 -0.49077592531E-02  0.13534664239E-01 -0.19179274976E-02  0.14524175806E-01  0.00000000000E+00 0.  1.
     999901    1    3    3    0    0  0.41849595857E-01 -0.13630208766E+00 -0.19713760361E-01  0.89169405074E+00  0.88000000000E+00 0. -1.
        -11    1    4    4    0    0 -0.75636467322E-02  0.86351328770E-01  0.12988335381E-02  0.86693187863E-01  0.51100000000E-03 0. -1.
         11    1    4    4    0    0 -0.29378189871E-01  0.36416094655E-01  0.20332854321E-01  0.51018585593E-01  0.51100000000E-03 0.  1.
</event>
<event>
 8    1  0.2091070E+004  0.1043930E+01  0.7957747E-01            NaN
         13   -1    0    0    0    0  0.00000000000E+00  0.00000000000E+00  0.74505805969E-08  0.10566000000E+00  0.10566000000E+00 0. -1.
     999900   -1    0    0    0    0 -0.00000000000E+00 -0.00000000000E+00 -0.74505805969E-08  0.93827000000E+00  0.93827000000E+00 0. -1.
     999902    2    1    2    0    0  0.11222925474E-01  0.75756114358E-02  0.48418671152E-03  0.10303808900E+01  0.10302918034E+01 0.  0.
     999903    2    3    3    0    0  0.17672266501E-01  0.12453638991E+00 -0.46114066142E-01  0.14139674230E+00  0.45220683586E-01 0.  0.
         14    1    1    2    0    0 -0.11222925474E-01 -0.75756114358E-02 -0.48418671152E-03  0.13549109992E-01  0.00000000000E+00 0. -1.
     999901    1    3    3    0    0 -0.64493410277E-02 -0.11696077847E+00  0.46598252853E-01  0.88898414770E+00  0.88000000000E+00 0.  1.
        -11    1    4    4    0    0  0.78477756023E-02  0.78473949817E-01 -0.52532171593E-02  0.79041797761E-01  0.51100000000E-03 0.  1.
         11    1    4    4    0    0  0.98244908991E-02  0.46062440089E-01 -0.40860848983E-01  0.62354944543E-01  0.51100000000E-03 0. -1.
</event>
<event>
 8    1  0.2091070E+004  0.1043930E+01  0.7957747E-01            NaN
         13   -1    0    0    0    0  0.00000000000E+00  0.00000000000E+00  0.74505805969E-08  0.10566000000E+00  0.10566000000E+00 0.  1.
     999900   -1    0    0    0    0 -0.00000000000E+00 -0.00000000000E+00 -0.74505805969E-08  0.93827000000E+00  0.93827000000E+00 0. -1.
     999902    2    1    2    0    0  0.50974863585E-02 -0.15356136742E-02  0.12491483046E-01  0.10303513541E+01  0.10302618760E+01 0.  0.
     999903    2    3    3    0    0 -0.10835005261E+00  0.58690724861E-01 -0.46223741646E-01  0.13909099169E+00  0.45003717533E-01 0.  0.
         14    1    1    2    0    0 -0.50974863585E-02  0.15356136742E-02 -0.12491483046E-01  0.13578645927E-01  0.00000000000E+00 0. -1.
     999901    1    3    3    0    0  0.11344753897E+00 -0.60226338535E-01  0.58715224693E-01  0.89126036239E+00  0.88000000000E+00 0.  1.
        -11    1    4    4    0    0 -0.73024840373E-01  0.58624682090E-01 -0.44598962271E-01  0.10372467989E+00  0.51100000000E-03 0.  1.
         11    1    4    4    0    0 -0.35325212233E-01  0.66042770396E-04 -0.16247793751E-02  0.35366311795E-01  0.51100000000E-03 0. -1.
</event>
<event>
 8    1  0.2091070E+004  0.1043930E+01  0.7957747E-01            NaN
         13   -1    0    0    0    0  0.00000000000E+00  0.00000000000E+00  0.74505805969E-08  0.10566000000E+00  0.10566000000E+00 0. -1.
     999900   -1    0    0    0    0 -0.00000000000E+00 -0.00000000000E+00 -0.74505805969E-08  0.93827000000E+00  0.93827000000E+00 0.  1.
     999902    2    1    2    0    0 -0.50004163776E-02  0.12345980654E-01 -0.68481324914E-02  0.10289525396E+01  0.10288435276E+01 0.  0.
     999903    2    3    3    0    0 -0.10898607881E+00  0.67038715689E-01  0.35539947364E-01  0.14013250010E+00  0.44742317221E-01 0.  0.
         14    1    1    2    0    0  0.50004163776E-02 -0.12345980654E-01  0.68481324914E-02  0.14977460428E-01  0.00000000000E+00 0.  1.
     999901    1    3    3    0    0  0.10398566243E+00 -0.54692735035E-01 -0.42388079856E-01  0.88882003947E+00  0.88000000000E+00 0.  1.
        -11    1    4    4    0    0 -0.14178179624E-01  0.72531806389E-02  0.22098738644E-01  0.27244169606E-01  0.51100000000E-03 0. -1.
         11    1    4    4    0    0 -0.94807899182E-01  0.59785535050E-01  0.13441208720E-01  0.11288833049E+00  0.51100000000E-03 0.  1.
</event>
<event>
 8    1  0.2091070E+004  0.1043930E+01  0.7957747E-01            NaN
         13   -1    0    0    0    0  0.00000000000E+00  0.00000000000E+00  0.74505805969E-08  0.10566000000E+00  0.10566000000E+00 0.  1.
     999900   -1    0    0    0    0 -0.00000000000E+00 -0.00000000000E+00 -0.74505805969E-08  0.93827000000E+00  0.93827000000E+00 0. -1.
     999902    2    1    2    0    0  0.57590353685E-02 -0.95342069116E-02 -0.80535961351E-02  0.10301848918E+01  0.10300931915E+01 0.  0.
     999903    2    3    3    0    0 -0.56374620792E-01 -0.10542780990E+00 -0.60597052106E-01  0.14124339251E+00  0.44548537966E-01 0.  0.
         14    1    1    2    0    0 -0.57590353685E-02  0.95342069116E-02  0.80535961351E-02  0.13745108240E-01  0.00000000000E+00 0.  1.
     999901    1    3    3    0    0  0.62133656161E-01  0.95893602986E-01  0.52543455971E-01  0.88894149925E+00  0.88000000000E+00 0.  1.
        -11    1    4    4    0    0 -0.33494361446E-01 -0.25585260802E-01 -0.33611567178E-01  0.53911746291E-01  0.51100000000E-03 0. -1.
         11    1    4    4    0    0 -0.22880259347E-01 -0.79842549095E-01 -0.26985484928E-01  0.87331646221E-01  0.51100000000E-03 0.  1.
</event>
<event>
 8    1  0.2091070E+004  0.1043930E+01  0.7957747E-01            NaN
         13   -1    0    0    0    0  0.00000000000E+00  0.00000000000E+00  0.74505805969E-08  0.10566000000E+00  0.10566000000E+00 0. -1.
     999900   -1    0    0    0    0 -0.00000000000E+00 -0.00000000000E+00 -0.74505805969E-08  0.93827000000E+00  0.93827000000E+00 0.  1.
     999902    2    1    2    0    0 -0.55905421676E-03  0.10007360380E-01 -0.10540896076E-01  0.10293845439E+01  0.10292817733E+01 0.  0.
     999903    2    3    3    0    0 -0.97479011407E-01  0.24440185642E-01 -0.85251642072E-01  0.14079944379E+00  0.49569754461E-01 0.  0.
         14    1    1    2    0    0  0.55905421676E-03 -0.10007360380E-01  0.10540896076E-01  0.14545456111E-01  0.00000000000E+00 0. -1.
     999901    1    3    3    0    0  0.96919957190E-01 -0.14432825262E-01  0.74710745996E-01  0.88858510010E+00  0.88000000000E+00 0. -1.
        -11    1    4    4    0    0 -0.67108153467E-01  0.33350037013E-01 -0.38263412569E-01  0.84143205863E-01  0.51100000000E-03 0. -1.
         11    1    4    4    0    0 -0.30370857939E-01 -0.89098513712E-02 -0.46988229503E-01  0.56656237929E-01  0.51100000000E-03 0.  1.
</event>
<event>
 8    1  0.2091070E+004  0.1043930E+01  0.7957747E-01            NaN
         13   -1    0    0    0    0  0.00000000000E+00  0.00000000000E+00  0.74505805969E-08  0.10566000000E+00  0.10566000000E+00 0. -1.
     999900   -1    0    0    0    0 -0.00000000000E+00 -0.00000000000E+00 -0.74505805969E-08  0.93827000000E+00  0.93827000000E+00 0. -1.
     999902    2    1    2    0    0 -0.50073813504E-02 -0.26350811488E-03 -0.12580287351E-01  0.10303872184E+01  0.10302982155E+01 0.  0.
     999903    2    3    3    0    0 -0.10611800013E-01  0.17650030459E-01 -0.13329527314E+00  0.14194790577E+00  0.44243013432E-01 0.  0.
         14    1    1    2    0    0  0.50073813504E-02  0.26350811488E-03  0.12580287351E-01  0.13542781632E-01  0.00000000000E+00 0. -1.
     999901    1    3    3    0    0  0.56044186625E-02 -0.17913538574E-01  0.12071498579E+00  0.88843931260E+00  0.88000000000E+00 0.  1.
        -11    1    4    4    0    0 -0.71399938194E-02 -0.14960767262E-02 -0.11500714396E+00  0.11523941183E+00  0.51100000000E-03 0. -1.
         11    1    4    4    0    0 -0.34718061934E-02  0.19146107185E-01 -0.18288129179E-01  0.26708493938E-01  0.51100000000E-03 0.  1.
</event>
<event>
 8    1  0.2091070E+004  0.1043930E+01  0.7957747E-01            NaN
         13   -1    0    0    0    0  0.00000000000E+00  0.00000000000E+00  0.74505805969E-08  0.10566000000E+00  0.10566000000E+00 0. -1.
     999900   -1    0    0    0    0 -0.00000000000E+00 -0.00000000000E+00 -0.74505805969E-08  0.93827000000E+00  0.93827000000E+00 0. -1.
     999902    2    1    2    0    0 -0.92733014896E-02  0.10711827537E-01  0.37602600639E-02  0.10292713191E+01  0.10291669308E+01 0.  0.
     999903    2    3    3    0    0 -0.12507828310E+00 -0.42780077658E-01 -0.12620150230E-01  0.13992296468E+00  0.44095985150E-01 0.  0.
         14    1    1    2    0    0  0.92733014896E-02 -0.10711827537E-01 -0.37602600639E-02  0.14658680890E-01  0.00000000000E+00 0.  1.
     999901    1    3    3    0    0  0.11580498161E+00  0.53491905195E-01  0.16380410294E-01  0.88934835443E+00  0.88000000000E+00 0. -1.
        -11    1    4    4    0    0 -0.10722244673E+00 -0.48887873068E-01 -0.11801692389E-02  0.11784876383E+00  0.51100000000E-03 0. -1.
         11    1    4    4    0    0 -0.17855836369E-01  0.61077954100E-02 -0.11439980991E-01  0.22074200852E-01  0.51100000000E-03 0.  1.
</event>
<event>
 8    1  0.2091070E+004  0.1043930E+01  0.7957747E-01            NaN
         13   -1    0    0    0    0  0.00000000000E+00  0.00000000000E+00  0.74505805969E-08  0.10566000000E+00  0.10566000000E+00 0. -1.
     999900   -1    0    0    0    0 -0.00000000000E+00 -0.00000000000E+00 -0.74505805969E-08  0.93827000000E+00  0.93827000000E+00 0. -1.
     999902    2    1    2    0    0  0.13347744604E-01  0.15743296099E-02  0.39158387598E-02  0.10299309074E+01  0.10298357634E+01 0.  0.
     999903    2    3    3    0    0  0.11142777387E+00 -0.12541305629E-01  0.73714543834E-01  0.14162307647E+00  0.45275033747E-01 0.  0.
         14    1    1    2    0    0 -0.13347744604E-01 -0.15743296099E-02 -0.39158387598E-02  0.13999092575E-01  0.00000000000E+00 0. -1.
     999901    1    3    3    0    0 -0.98080029266E-01  0.14115635239E-01 -0.69798705074E-01  0.88830783095E+00  0.88000000000E+00 0. -1.
        -11    1    4    4    0    0  0.44423702534E-01  0.14256285857E-01  0.42070049781E-01  0.62824018041E-01  0.51100000000E-03 0.  1.
         11    1    4    4    0    0  0.67004071336E-01 -0.26797591486E-01  0.31644494054E-01  0.78799058433E-01  0.51100000000E-03 0. -1.
</event>
<event>
 8    1  0.2091070E+004  0.1043930E+01  0.7957747E-01            NaN
         13   -1    0    0    0    0  0.00000000000E+00  0.00000000000E+00  0.74505805969E-08  0.10566000000E+00  0.10566000000E+00 0.  1.
     999900   -1    0    0    0    0 -0.00000000000E+00 -0.00000000000E+00 -0.74505805969E-08  0.93827000000E+00  0.93827000000E+00 0.  1.
     999902    2    1    2    0    0 -0.44358649451E-02 -0.56655098856E-03 -0.18140416695E-01  0.10252465154E+01  0.10250762629E+01 0.  0.
     999903    2    3    3    0    0  0.96964787559E-01 -0.58674494785E-01  0.56542915132E-01  0.13438388544E+00  0.44911702812E-01 0.  0.
         14    1    1    2    0    0  0.44358649451E-02  0.56655098856E-03  0.18140416695E-01  0.18683484570E-01  0.00000000000E+00 0.  1.
     999901    1    3    3    0    0 -0.10140065250E+00  0.58107943796E-01 -0.74683331827E-01  0.89086262999E+00  0.88000000000E+00 0.  1.
        -11    1    4    4    0    0  0.32185290391E-01 -0.42105917413E-01  0.37277294116E-01  0.64797059936E-01  0.51100000000E-03 0. -1.
         11    1    4    4    0    0  0.64779497168E-01 -0.16568577372E-01  0.19265621016E-01  0.69586825503E-01  0.51100000000E-03 0.  1.
</event>
<event>
 8    1  0.2091070E+004  0.1043930E+01  0.7957747E-01            NaN
         13   -1    0    0    0    0  0.00000000000E+00  0.00000000000E+00  0.74505805969E-08  0.10566000000E+00  0.10566000000E+00 0. -1.
     999900   -1    0    0    0    0 -0.00000000000E+00 -0.00000000000E+00 -0.74505805969E-08  0.93827000000E+00  0.93827000000E+00 0. -1.
     999902    2    1    2    0    0  0.13177714073E-01  0.67972579628E-02 -0.60098228431E-03  0.10290903220E+01  0.10289833209E+01 0.  0.
     999903    2    3    3    0    0 -0.10728851893E+00  0.44350935300E-01 -0.59878561708E-01  0.13811544950E+00  0.44862049456E-01 0.  0.
         14    1    1    2    0    0 -0.13177714073E-01 -0.67972579628E-02  0.60098228431E-03  0.14839678019E-01  0.00000000000E+00 0. -1.
     999901    1    3    3    0    0  0.12046623300E+00 -0.37553677337E-01  0.59277579424E-01  0.89097487248E+00  0.88000000000E+00 0.  1.
        -11    1    4    4    0    0 -0.63001618584E-01  0.50975238571E-02 -0.18357031250E-01  0.65821200315E-01  0.51100000000E-03 0. -1.
         11    1    4    4    0    0 -0.44286900346E-01  0.39253411443E-01 -0.41521530458E-01  0.72294249182E-01  0.51100000000E-03 0.  1.
</event>
<event>
 8    1  0.2091070E+004  0.1043930E+01  0.7957747E-01            NaN
         13   -1    0    0    0    0  0.00000000000E+00  0.00000000000E+00  0.74505805969E-08  0.10566000000E+00  0.10566000000E+00 0.  1.
     999900   -1    0    0    0    0 -0.00000000000E+00 -0.00000000000E+00 -0.74505805969E-08  0.93827000000E+00  0.93827000000E+00 0.  1.
     999902    2    1    2    0    0 -0.10856859432E-02  0.97248304771E-02  0.10343430764E-01  0.10296914045E+01  0.10295929540E+01 0.  0.
     999903    2    3    3    0    0 -0.64821255840E-01 -0.10358584031E+00 -0.47812489771E-01  0.13824110186E+00  0.43505707032E-01 0.  0.
         14    1    1    2    0    0  0.10856859432E-02 -0.97248304771E-02 -0.10343430764E-01  0.14238595498E-01  0.00000000000E+00 0. -1.
     999901    1    3    3    0    0  0.63735569897E-01  0.11331067079E+00  0.58155920535E-01  0.89145030264E+00  0.88000000000E+00 0. -1.
        -11    1    4    4    0    0 -0.55897001141E-01 -0.78441836168E-01 -0.17574670004E-01  0.97911830464E-01  0.51100000000E-03 0.  1.
         11    1    4    4    0    0 -0.89242546994E-02 -0.25144004142E-01 -0.30237819767E-01  0.40329271398E-01  0.51100000000E-03 0. -1.
</event>
<event>
 8    1  0.2091070E+004  0.1043930E+01  0.7957747E-01            NaN
         13   -1    0    0    0    0  0.00000000000E+00  0.00000000000E+00  0.74505805969E-08  0.10566000000E+00  0.10566000000E+00 0. -1.
     999900   -1    0    0    0    0 -0.00000000000E+00 -0.00000000000E+00 -0.74505805969E-08  0.93827000000E+00  0.93827000000E+00 0.  1.
     999902    2    1    2    0    0 -0.87048790190E-02 -0.16495309412E-02  0.96277742411E-02  0.10308460439E+01  0.10307630068E+01 0.  0.
     999903    2    3    3    0    0 -0.10182100713E+00  0.16687418701E-01 -0.83695906299E-01  0.14083696168E+00  0.46733902124E-01 0.  0.
         14    1    1    2    0    0  0.87048790190E-02  0.16495309412E-02 -0.96277742411E-02  0.13083956126E-01  0.00000000000E+00 0.  1.
     999901    1    3    3    0    0  0.93116128114E-01 -0.18336949642E-01  0.93323680540E-01  0.89000908219E+00  0.88000000000E+00 0.  1.
        -11    1    4    4    0    0 -0.52192738549E-01 -0.14973383788E-01 -0.37210511733E-01  0.65826799131E-01  0.51100000000E-03 0.  1.
         11    1    4    4    0    0 -0.49628268584E-01  0.31660802489E-01 -0.46485394566E-01  0.75010162550E-01  0.51100000000E-03 0. -1.
</event>
<event>
 8    1  0.2091070E+004  0.1043930E+01  0.7957747E-01            NaN
         13   -1    0    0    0    0  0.00000000000E+00  0.00000000000E+00  0.74505805969E-08  0.10566000000E+00  0.10566000000E+00 0.  1.
     999900   -1    0    0    0    0 -0.00000000000E+00 -0.00000000000E+00 -0.74505805969E-08  0.93827000000E+00  0.93827000000E+00 0.  1.
     999902    2    1    2    0    0 -0.12860579637E-01  0.32103616451E-02 -0.27152531218E-02  0.10303995333E+01  0.10303106933E+01 0.  0.
     999903    2    3    3    0    0  0.62190444186E-02  0.12636256971E+00  0.41031842119E-01  0.14054319276E+00  0.45415871970E-01 0.  0.
         14    1    1    2    0    0  0.12860579637E-01 -0.32103616451E-02  0.27152531218E-02  0.13530466732E-01  0.00000000000E+00 0.  1.
     999901    1    3    3    0    0 -0.19079624055E-01 -0.12315220806E+00 -0.43747095241E-01  0.88985634051E+00  0.88000000000E+00 0.  1.
        -11    1    4    4    0    0  0.68304445457E-02  0.96301859623E-01  0.95646972678E-02  0.97017769993E-01  0.51100000000E-03 0.  1.
         11    1    4    4    0    0 -0.61140012705E-03  0.30060710082E-01  0.31467144851E-01  0.43525422765E-01  0.51100000000E-03 0. -1.
</event>
<event>
 8    1  0.2091070E+004  0.1043930E+01  0.7957747E-01            NaN
         13   -1    0    0    0    0  0.00000000000E+00  0.00000000000E+00  0.74505805969E-08  0.10566000000E+00  0.10566000000E+00 0.  1.
     999900   -1    0    0    0    0 -0.00000000000E+00 -0.00000000000E+00 -0.74505805969E-08  0.93827000000E+00  0.93827000000E+00 0.  1.
     999902    2    1    2    0    0 -0.15052282608E-01  0.24351151465E-02 -0.55336952335E-03  0.10286719787E+01  0.10285588133E+01 0.  0.
     999903    2    3    3    0    0  0.60480433910E-02  0.11312091886E+00  0.66196546456E-01  0.13897982842E+00  0.45831090244E-01 0.  0.
         14    1    1    2    0    0  0.15052282608E-01 -0.24351151465E-02  0.55336952335E-03  0.15258021344E-01  0.00000000000E+00 0. -1.
     999901    1    3    3    0    0 -0.21100325999E-01 -0.11068580372E+00 -0.66749915980E-01  0.88969215023E+00  0.88000000000E+00 0.  1.
        -11    1    4    4    0    0  0.14468910789E-03  0.11557713440E+00  0.60785771561E-01  0.13058815442E+00  0.51100000000E-03 0.  1.
         11    1    4    4    0    0  0.59033542832E-02 -0.24562155362E-02  0.54107748951E-02  0.83916739997E-02  0.51100000000E-03 0. -1.
</event>
<event>
 8    1  0.2091070E+004  0.1043930E+01  0.7957747E-01            NaN
         13   -1    0    0    0    0  0.00000000000E+00  0.00000000000E+00  0.74505805969E-08  0.10566000000E+00  0.10566000000E+00 0.  1.
     999900   -1    0    0    0    0 -0.00000000000E+00 -0.00000000000E+00 -0.74505805969E-08  0.93827000000E+00  0.93827000000E+00 0. -1.
     999902    2    1    2    0    0 -0.13337212459E-01  0.18602218596E-03  0.60938851293E-02  0.10292653733E+01  0.10291608997E+01 0.  0.
     999903    2    3    3    0    0 -0.11097195812E+00 -0.72184385723E-01  0.16215336057E-01  0.14085529722E+00  0.45298086062E-01 0.  0.
         14    1    1    2    0    0  0.13337212459E-01 -0.18602218596E-03 -0.60938851293E-02  0.14664626705E-01  0.00000000000E+00 0. -1.
     999901    1    3    3    0    0  0.97634745660E-01  0.72370407909E-01 -0.10121450928E-01  0.88841007607E+00  0.88000000000E+00 0.  1.
        -11    1    4    4    0    0 -0.82017287145E-01 -0.27197241721E-01  0.10655360023E-01  0.87065051347E-01  0.51100000000E-03 0. -1.
         11    1    4    4    0    0 -0.28954670974E-01 -0.44987144003E-01  0.55599760335E-02  0.53790245874E-01  0.51100000000E-03 0.  1.
</event>
<event>
 8    1  0.2091070E+004  0.1043930E+01  0.7957747E-01            NaN
         13   -1    0    0    0    0  0.00000000000E+00  0.00000000000E+00  0.74505805969E-08  0.10566000000E+00  0.10566000000E+00 0.  1.
     999900   -1    0    0    0    0 -0.00000000000E+00 -0.00000000000E+00 -0.74505805969E-08  0.93827000000E+00  0.93827000000E+00 0.  1.
     999902    2    1    2    0    0 -0.16818026283E-02  0.13908693654E-01  0.37447767294E-02  0.10294281528E+01  0.10293260019E+01 0.  0.
     999903    2    3    3    0    0  0.36123434753E-01 -0.12477415063E+00  0.98521989575E-02  0.13774465073E+00  0.44755243007E-01 0.  0.
         14    1    1    2    0    0  0.16818026283E-02 -0.13908693654E-01 -0.37447767294E-02  0.14501847192E-01  0.00000000000E+00 0.  1.
     999901    1    3    3    0    0 -0.37805237381E-01  0.13868284428E+00 -0.61074222281E-02  0.89168350208E+00  0.88000000000E+00 0.  1.
        -11    1    4    4    0    0  0.46051568395E-01 -0.88357319038E-01  0.75530645840E-02  0.99925335550E-01  0.51100000000E-03 0. -1.
         11    1    4    4    0    0 -0.99281336417E-02 -0.36416831591E-01  0.22991343735E-02  0.37819315179E-01  0.51100000000E-03 0.  1.
</event>
<event>
 8    1  0.2091070E+004  0.1043930E+01  0.7957747E-01            NaN
         13   -1    0    0    0    0  0.00000000000E+00  0.00000000000E+00  0.74505805969E-08  0.10566000000E+00  0.10566000000E+00 0. -1.
     999900   -1    0    0    0    0 -0.00000000000E+00 -0.00000000000E+00 -0.74505805969E-08  0.93827000000E+00  0.93827000000E+00 0.  1.
     999902    2    1    2    0    0  0.74699930359E-02 -0.85902217321E-02 -0.86690430052E-02  0.10296210863E+01  0.10295216541E+01 0.  0.
     999903    2    3    3    0    0 -0.10959862593E-01  0.11181637140E+00  0.66557304597E-01  0.13805145320E+00  0.44780681480E-01 0.  0.
         14    1    1    2    0    0 -0.74699930359E-02  0.85902217321E-02  0.86690430052E-02  0.14308913725E-01  0.00000000000E+00 0. -1.
     999901    1    3    3    0    0  0.18429855629E-01 -0.12040659313E+00 -0.75226347602E-01  0.89156963308E+00  0.88000000000E+00 0. -1.
        -11    1    4    4    0    0 -0.10934466374E-01  0.92178967861E-01  0.31791719946E-01  0.98119820877E-01  0.51100000000E-03 0. -1.
         11    1    4    4    0    0 -0.25396218660E-04  0.19637403540E-01  0.34765584651E-01  0.39931632322E-01  0.51100000000E-03 0.  1.
</event>
<event>
 8    1  0.2091070E+004  0.1043930E+01  0.7957747E-01            NaN
         13   -1    0    0    0    0  0.00000000000E+00  0.00000000000E+00  0.74505805969E-08  0.10566000000E+00  0.10566000000E+00 0.  1.
     999900   -1    0    0    0    0 -0.00000000000E+00 -0.00000000000E+00 -0.74505805969E-08  0.93827000000E+00  0.93827000000E+00 0. -1.
     999902    2    1    2    0    0 -0.11482374630E-02 -0.21697458697E-02  0.12897737667E-01  0.10308007242E+01  0.10307171072E+01 0.  0.
     999903    2    3    3    0    0  0.11077782297E+00 -0.70789770573E-01 -0.29055108638E-01  0.14007282404E+00  0.38642968516E-01 0.  0.
         14    1    1    2    0    0  0.11482374630E-02  0.21697458697E-02 -0.12897737667E-01  0.13129275812E-01  0.00000000000E+00 0. -1.
     999901    1    3    3    0    0 -0.11192606043E+00  0.68620024703E-01  0.41952846305E-01  0.89072790015E+00  0.88000000000E+00 0. -1.
        -11    1    4    4    0    0  0.90753317372E-01 -0.49443243850E-01 -0.73110368369E-02  0.10360748697E+00  0.51100000000E-03 0. -1.
         11    1    4    4    0    0  0.20024505600E-01 -0.21346526723E-01 -0.21744071801E-01  0.36465337063E-01  0.51100000000E-03 0.  1.
</event>
<event>
 8    1  0.2091070E+004  0.1043930E+01  0.7957747E-01            NaN
         13   -1    0    0    0    0  0.00000000000E+00  0.00000000000E+00  0.74505805969E-08  0.10566000000E+00  0.10566000000E+00 0.  1.
     999900   -1    0    0    0    0 -0.00000000000E+00 -0.00000000000E+00 -0.74505805969E-08  0.93827000000E+00  0.93827000000E+00 0. -1.
     999902    2    1    2    0    0  0.36831515883E-02  0.12638588575E-01 -0.79830439857E-02  0.10285342695E+01  0.10284190367E+01 0.  0.
     999903    2    3    3    0    0  0.12607567156E+00  0.47220039998E-02 -0.39114199829E-01  0.13948323039E+00  0.44813822088E-01 0.  0.
         14    1    1    2    0    0 -0.36831515883E-02 -0.12638588575E-01  0.79830439857E-02  0.15395730514E-01  0.00000000000E+00 0.  1.
     999901    1    3    3    0    0 -0.12239251997E+00  0.79165845752E-02  0.31131155844E-01  0.88905103910E+00  0.88000000000E+00 0.  1.
        -11    1    4    4    0    0  0.68384700423E-02  0.16452666987E-03 -0.16723058672E-01  0.18075219332E-01  0.51100000000E-03 0.  1.
         11    1    4    4    0    0  0.11923720152E+00  0.45574773299E-02 -0.22391141158E-01  0.12140801106E+00  0.51100000000E-03 0. -1.
</event>
<event>
 8    1  0.2091070E+004  0.1043930E+01  0.7957747E-01            NaN
         13   -1    0    0    0    0  0.00000000000E+00  0.00000000000E+00  0.74505805969E-08  0.10566000000E+00  0.10566000000E+00 0. -1.
     999900   -1    0    0    0    0 -0.00000000000E+00 -0.00000000000E+00 -0.74505805969E-08  0.93827000000E+00  0.93827000000E+00 0.  1.
     999902    2    1    2    0    0  0.86302634696E-03  0.12448670443E-01  0.62126322344E-02  0.10299904516E+01  0.10298961207E+01 0.  0.
     999903    2    3    3    0    0 -0.12029411933E-01 -0.13010523861E+00  0.92903984531E-02  0.13842031718E+00  0.44741399607E-01 0.  0.
         14    1    1    2    0    0 -0.86302634696E-03 -0.12448670443E-01 -0.62126322344E-02  0.13939548399E-01  0.00000000000E+00 0. -1.
     999901    1    3    3    0    0  0.12892438280E-01  0.14255390905E+00 -0.30777662188E-02  0.89157013442E+00  0.88000000000E+00 0. -1.
        -11    1    4    4    0    0 -0.27287303244E-01 -0.94634392002E-01 -0.84831002782E-03  0.98494902502E-01  0.51100000000E-03 0.  1.
         11    1    4    4    0    0  0.15257891311E-01 -0.35470846609E-01  0.10138708481E-01  0.39925414676E-01  0.51100000000E-03 0. -1.
</event>
<event>
 8    1  0.2091070E+004  0.1043930E+01  0.7957747E-01            NaN
         13   -1    0    0    0    0  0.00000000000E+00  0.00000000000E+00  0.74505805969E-08  0.10566000000E+00  0.10566000000E+00 0.  1.
     999900   -1    0    0    0    0 -0.00000000000E+00 -0.00000000000E+00 -0.74505805969E-08  0.93827000000E+00  0.93827000000E+00 0.  1.
     999902    2    1    2    0    0 -0.12307274898E-01 -0.58269089768E-02 -0.14300734069E-03  0.10303122787E+01  0.10302222815E+01 0.  0.
     999903    2    3    3    0    0  0.33842664689E-01  0.11971220934E-01  0.12734373992E+00  0.13975096067E+00  0.45002964658E-01 0.  0.
         14    1    1    2    0    0  0.12307274898E-01  0.58269089768E-02  0.14300734069E-03  0.13617721349E-01  0.00000000000E+00 0. -1.
     999901    1    3    3    0    0 -0.46149939588E-01 -0.17798129911E-01 -0.12748674726E+00  0.89056131798E+00  0.88000000000E+00 0.  1.
        -11    1    4    4    0    0  0.59866147964E-02 -0.82283444205E-02  0.82988451757E-01  0.83611539004E-01  0.51100000000E-03 0. -1.
         11    1    4    4    0    0  0.27856049893E-01  0.20199565355E-01  0.44355288163E-01  0.56139421668E-01  0.51100000000E-03 0.  1.
</event>
<event>
 8    1  0.2091070E+004  0.1043930E+01  0.7957747E-01            NaN
         13   -1    0    0    0    0  0.00000000000E+00  0.00000000000E+00  0.74505805969E-08  0.10566000000E+00  0.10566000000E+00 0. -1.
     999900   -1    0    0    0    0 -0.00000000000E+00 -0.00000000000E+00 -0.74505805969E-08  0.93827000000E+00  0.93827000000E+00 0. -1.
     999902    2    1    2    0    0 -0.52974867022E-02 -0.58964059165E-02 -0.11889064312E-01  0.10296408146E+01  0.10295416584E+01 0.  0.
     999903    2    3    3    0    0  0.67021687833E-01 -0.72149534948E-01  0.86551013580E-01  0.13873678555E+00  0.45380124280E-01 0.  0.
         14    1    1    2    0    0  0.52974867022E-02  0.58964059165E-02  0.11889064312E-01  0.14289185362E-01  0.00000000000E+00 0. -1.
     999901    1    3    3    0    0 -0.72319174535E-01  0.66253129031E-01 -0.98440077892E-01  0.89090402909E+00  0.88000000000E+00 0. -1.
        -11    1    4    4    0    0  0.66654085366E-01 -0.45472587506E-01  0.56249096836E-01  0.98360283277E-01  0.51100000000E-03 0. -1.
         11    1    4    4    0    0  0.36760246719E-03 -0.26676947442E-01  0.30301916744E-01  0.40376502272E-01  0.51100000000E-03 0.  1.
</event>
<event>
 8    1  0.2091070E+004  0.1043930E+01  0.7957747E-01            NaN
         13   -1    0    0    0    0  0.00000000000E+00  0.00000000000E+00  0.74505805969E-08  0.10566000000E+00  0.10566000000E+00 0. -1.
     999900   -1    0    0    0    0 -0.00000000000E+00 -0.00000000000E+00 -0.74505805969E-08  0.93827000000E+00  0.93827000000E+00 0. -1.
     999902    2    1    2    0    0 -0.90396479816E-02 -0.49941138408E-02  0.10211531916E-01  0.10294065089E+01  0.10293040507E+01 0.  0.
     999903    2    3    3    0    0 -0.99477734548E-01  0.90847199332E-01 -0.48988746406E-02  0.13946666310E+00  0.35747976822E-01 0.  0.
         14    1    1    2    0    0  0.90396479816E-02  0.49941138408E-02 -0.10211531916E-01  0.14523491067E-01  0.00000000000E+00 0.  1.
     999901    1    3    3    0    0  0.90438086566E-01 -0.95841313172E-01  0.15110406557E-01  0.88993984583E+00  0.88000000000E+00 0.  1.
        -11    1    4    4    0    0 -0.77230310309E-01  0.50847521926E-01 -0.11648995070E-01  0.93198452367E-01  0.51100000000E-03 0. -1.
         11    1    4    4    0    0 -0.22247424239E-01  0.39999677406E-01  0.67501204289E-02  0.46268210735E-01  0.51100000000E-03 0.  1.
</event>
<event>
 8    1  0.2091070E+004  0.1043930E+01  0.7957747E-01            NaN
         13   -1    0    0    0    0  0.00000000000E+00  0.00000000000E+00  0.74505805969E-08  0.10566000000E+00  0.10566000000E+00 0.  1.
     999900   -1    0    0    0    0 -0.00000000000E+00 -0.00000000000E+00 -0.74505805969E-08  0.93827000000E+00  0.93827000000E+00 0.  1.
     999902    2    1    2    0    0  0.65884662816E-02 -0.31485254799E-02  0.12160624967E-01  0.10297454344E+01  0.10296477348E+01 0.  0.
     999903    2    3    3    0    0 -0.15693838013E-01  0.12231824568E+00  0.48202101331E-01  0.13983678757E+00  0.44975935862E-01 0.  0.
         14    1    1    2    0    0 -0.65884662816E-02  0.31485254799E-02 -0.12160624967E-01  0.14184565564E-01  0.00000000000E+00 0. -1.
     999901    1    3    3    0    0  0.22282304294E-01 -0.12546677116E+00 -0.36041476364E-01  0.88990864687E+00  0.88000000000E+00 0. -1.
        -11    1    4    4    0    0 -0.24041556420E-01  0.32706847056E-01  0.21613436707E-01  0.45990608245E-01  0.51100000000E-03 0. -1.
         11    1    4    4    0    0  0.83477184070E-02  0.89611398626E-01  0.26588664624E-01  0.93846179324E-01  0.51100000000E-03 0.  1.
</event>
<event>
 8    1  0.2091070E+004  0.1043930E+01  0.7957747E-01            NaN
         13   -1    0    0    0    0  0.00000000000E+00  0.00000000000E+00  0.74505805969E-08  0.10566000000E+00  0.10566000000E+00 0. -1.
     999900   -1    0    0    0    0 -0.00000000000E+00 -0.00000000000E+00 -0.74505805969E-08  0.93827000000E+00  0.93827000000E+00 0. -1.
     999902    2    1    2    0    0  0.32529337697E-02  0.13001463178E-01  0.47274956254E-02  0.10297184259E+01  0.10296203513E+01 0.  0.
     999903    2    3    3    0    0  0.65904377708E-01  0.54782995262E-01  0.10258882717E+00  0.14109716798E+00  0.45159492717E-01 0.  0.
         14    1    1    2    0    0 -0.32529337697E-02 -0.13001463178E-01 -0.47274956254E-02  0.14211574078E-01  0.00000000000E+00 0.  1.
     999901    1    3    3    0    0 -0.62651443939E-01 -0.41781532084E-01 -0.97861331541E-01  0.88862125794E+00  0.88000000000E+00 0. -1.
        -11    1    4    4    0    0  0.71964164976E-01  0.47678848931E-01  0.84853865164E-01  0.12104773121E+00  0.51100000000E-03 0. -1.
         11    1    4    4    0    0 -0.60597872676E-02  0.71041463312E-02  0.17734962002E-01  0.20049436776E-01  0.51100000000E-03 0.  1.
</event>
<event>
 8    1  0.2091070E+004  0.1043930E+01  0.7957747E-01            NaN
         13   -1    0    0    0    0  0.00000000000E+00  0.00000000000E+00  0.74505805969E-08  0.10566000000E+00  0.10566000000E+00 0. -1.
     999900   -1    0    0    0    0 -0.00000000000E+00 -0.00000000000E+00 -0.74505805969E-08  0.93827000000E+00  0.93827000000E+00 0. -1.
     999902    2    1    2    0    0  0.66451835360E-02  0.10167394244E-01  0.66152725736E-02  0.10300990130E+01  0.10300061555E+01 0.  0.
     999903    2    3    3    0    0 -0.66098673010E-01 -0.96544016920E-01 -0.58250825502E-01  0.13831058260E+00  0.45242422674E-01 0.  0.
         14    1    1    2    0    0 -0.66451835360E-02 -0.10167394244E-01 -0.66152725736E-02  0.13830986992E-01  0.00000000000E+00 0. -1.
     999901    1    3    3    0    0  0.72743856546E-01  0.10671141116E+00  0.64866098076E-01  0.89178843041E+00  0.88000000000E+00 0.  1.
        -11    1    4    4    0    0 -0.26636664694E-01 -0.66882092687E-01 -0.16993047653E-01  0.73971285089E-01  0.51100000000E-03 0.  1.
         11    1    4    4    0    0 -0.39462008317E-01 -0.29661924233E-01 -0.41257777849E-01  0.64339297507E-01  0.51100000000E-03 0. -1.
</event>
<event>
 8    1  0.2091070E+004  0.1043930E+01  0.7957747E-01            NaN
         13   -1    0    0    0    0  0.00000000000E+00  0.00000000000E+00  0.74505805969E-08  0.10566000000E+00  0.10566000000E+00 0. -1.
     999900   -1    0    0    0    0 -0.00000000000E+00 -0.00000000000E+00 -0.74505805969E-08  0.93827000000E+00  0.93827000000E+00 0.  1.
     999902    2    1    2    0    0  0.85980902586E-02  0.41785170484E-02 -0.10280900080E-01  0.10298913367E+01  0.10297956503E+01 0.  0.
     999903    2    3    3    0    0  0.11608709716E-01 -0.12517022815E+00 -0.40737416918E-01  0.13990944861E+00  0.45964861758E-01 0.  0.
         14    1    1    2    0    0 -0.85980902586E-02 -0.41785170484E-02  0.10280900080E-01  0.14038663301E-01  0.00000000000E+00 0. -1.
     999901    1    3    3    0    0 -0.30106194570E-02  0.12934874520E+00  0.30456516838E-01  0.88998188809E+00  0.88000000000E+00 0. -1.
        -11    1    4    4    0    0 -0.73920420984E-02 -0.69123247713E-01 -0.41034292319E-01  0.80726327352E-01  0.51100000000E-03 0.  1.
         11    1    4    4    0    0  0.19000751814E-01 -0.56046980436E-01  0.29687540068E-03  0.59183121255E-01  0.51100000000E-03 0. -1.
</event>
<event>
 8    1  0.2091070E+004  0.1043930E+01  0.7957747E-01            NaN
         13   -1    0    0    0    0  0.00000000000E+00  0.00000000000E+00  0.74505805969E-08  0.10566000000E+00  0.10566000000E+00 0.  1.
     999900   -1    0    0    0    0 -0.00000000000E+00 -0.00000000000E+00 -0.74505805969E-08  0.93827000000E+00  0.93827000000E+00 0. -1.
     999902    2    1    2    0    0  0.21739316171E-02 -0.13715625659E-01  0.73517505964E-03  0.10300237119E+01  0.10299298337E+01 0.  0.
     999903    2    3    3    0    0 -0.31292999831E-01  0.89903742065E-01 -0.90273186443E-01  0.13865424266E+00  0.44875562837E-01 0.  0.
         14    1    1    2    0    0 -0.21739316171E-02  0.13715625659E-01 -0.73517505964E-03  0.13906288083E-01  0.00000000000E+00 0. -1.
     999901    1    3    3    0    0  0.33466931449E-01 -0.10361936772E+00  0.91008361503E-01  0.89136946926E+00  0.88000000000E+00 0.  1.
        -11    1    4    4    0    0 -0.17415950318E-01  0.77467637156E-01 -0.48840587384E-01  0.93221318533E-01  0.51100000000E-03 0. -1.
         11    1    4    4    0    0 -0.13877049513E-01  0.12436104910E-01 -0.41432599060E-01  0.45432924123E-01  0.51100000000E-03 0.  1.
</event>
<event>
 8    1  0.2091070E+004  0.1043930E+01  0.7957747E-01            NaN
         13   -1    0    0    0    0  0.00000000000E+00  0.00000000000E+00  0.74505805969E-08  0.10566000000E+00  0.10566000000E+00 0. -1.
     999900   -1    0    0    0    0 -0.00000000000E+00 -0.00000000000E+00 -0.74505805969E-08  0.93827000000E+00  0.93827000000E+00 0. -1.
     999902    2    1    2    0    0  0.67363428120E-02  0.11136929131E-01  0.18142134255E-02  0.10307884295E+01  0.10307046548E+01 0.  0.
     999903    2    3    3    0    0  0.62571319821E-01 -0.11352137406E+00 -0.25959777354E-01  0.13981781731E+00  0.45528447860E-01 0.  0.
         14    1    1    2    0    0 -0.67363428120E-02 -0.11136929131E-01 -0.18142134255E-02  0.13141570504E-01  0.00000000000E+00 0. -1.
     999901    1    3    3    0    0 -0.55834977009E-01  0.12465830319E+00  0.27773990780E-01  0.89097061218E+00  0.88000000000E+00 0.  1.
        -11    1    4    4    0    0  0.39009254039E-01 -0.36124260924E-01 -0.25365844648E-01  0.58909857611E-01  0.51100000000E-03 0. -1.
         11    1    4    4    0    0  0.23562065782E-01 -0.77397113138E-01 -0.59393270686E-03  0.80907959701E-01  0.51100000000E-03 0.  1.
</event>
<event>
 8    1  0.2091070E+004  0.1043930E+01  0.7957747E-01            NaN
         13   -1    0    0    0    0  0.00000000000E+00  0.00000000000E+00  0.74505805969E-08  0.10566000000E+00  0.10566000000E+00 0.  1.
     999900   -1    0    0    0    0 -0.00000000000E+00 -0.00000000000E+00 -0.74505805969E-08  0.93827000000E+00  0.93827000000E+00 0. -1.
     999902    2    1    2    0    0 -0.93378659065E-02  0.22122915265E-02  0.31479489517E-02  0.10338305170E+01  0.10337811850E+01 0.  0.
     999903    2    3    3    0    0 -0.54190531252E-01 -0.12258823561E+00 -0.10331508771E-01  0.14379196229E+00  0.51038212718E-01 0.  0.
         14    1    1    2    0    0  0.93378659065E-02 -0.22122915265E-02 -0.31479489517E-02  0.10099482961E-01  0.00000000000E+00 0.  1.
     999901    1    3    3    0    0  0.44852665345E-01  0.12480052714E+00  0.13479457722E-01  0.89003855475E+00  0.88000000000E+00 0.  1.
        -11    1    4    4    0    0 -0.52484968620E-01 -0.71179005038E-01 -0.21806926833E-01  0.91087462739E-01  0.51100000000E-03 0.  1.
         11    1    4    4    0    0 -0.17055626319E-02 -0.51409230573E-01  0.11475418063E-01  0.52704499549E-01  0.51100000000E-03 0. -1.
</event>
<event>
 8    1  0.2091070E+004  0.1043930E+01  0.7957747E-01            NaN
         13   -1    0    0    0    0  0.00000000000E+00  0.00000000000E+00  0.74505805969E-08  0.10566000000E+00  0.10566000000E+00 0.  1.
     999900   -1    0    0    0    0 -0.00000000000E+00 -0.00000000000E+00 -0.74505805969E-08  0.93827000000E+00  0.93827000000E+00 0. -1.
     999902    2    1    2    0    0 -0.34000130644E-02  0.17791612602E-01  0.87503098647E-02  0.10238136015E+01  0.10236159539E+01 0.  0.
     999903    2    3    3    0    0 -0.15609483946E-01 -0.11875721579E+00 -0.32794325814E-01  0.13223039700E+00  0.45414510826E-01 0.  0.
         14    1    1    2    0    0  0.34000130644E-02 -0.17791612602E-01 -0.87503098647E-02  0.20116398548E-01  0.00000000000E+00 0. -1.
     999901    1    3    3    0    0  0.12209470881E-01  0.13654882839E+00  0.41544635679E-01  0.89158320446E+00  0.88000000000E+00 0.  1.
        -11    1    4    4    0    0 -0.12020884052E-01 -0.62359598734E-01 -0.40305001614E-01  0.75219515312E-01  0.51100000000E-03 0.  1.
         11    1    4    4    0    0 -0.35885998936E-02 -0.56397617052E-01  0.75106757997E-02  0.57010881684E-01  0.51100000000E-03 0. -1.
</event>
<event>
 8    1  0.2091070E+004  0.1043930E+01  0.7957747E-01            NaN
         13   -1    0    0    0    0  0.00000000000E+00  0.00000000000E+00  0.74505805969E-08  0.10566000000E+00  0.10566000000E+00 0. -1.
     999900   -1    0    0    0    0 -0.00000000000E+00 -0.00000000000E+00 -0.74505805969E-08  0.93827000000E+00  0.93827000000E+00 0.  1.
     999902    2    1    2    0    0  0.34845709372E-02 -0.11647083522E-01 -0.64180895244E-02  0.10301826853E+01  0.10300909554E+01 0.  0.
     999903    2    3    3    0    0  0.29569668633E-01 -0.10723604188E+00 -0.75545010782E-01  0.14192809759E+00  0.45415881045E-01 0.  0.
         14    1    1    2    0    0 -0.34845709372E-02  0.11647083522E-01  0.64180895244E-02  0.13747314731E-01  0.00000000000E+00 0. -1.
     999901    1    3    3    0    0 -0.26085097696E-01  0.95588958360E-01  0.69126921258E-01  0.88825458767E+00  0.88000000000E+00 0. -1.
        -11    1    4    4    0    0 -0.13715492529E-02 -0.40078668535E-01 -0.49099595884E-01  0.63397257479E-01  0.51100000000E-03 0. -1.
         11    1    4    4    0    0  0.30941217886E-01 -0.67157373346E-01 -0.26445414899E-01  0.78530840115E-01  0.51100000000E-03 0.  1.
</event>
<event>
 8    1  0.2091070E+004  0.1043930E+01  0.7957747E-01            NaN
         13   -1    0    0    0    0  0.00000000000E+00  0.00000000000E+00  0.74505805969E-08  0.10566000000E+00  0.10566000000E+00 0. -1.
     999900   -1    0    0    0    0 -0.00000000000E+00 -0.00000000000E+00 -0.74505805969E-08  0.93827000000E+00  0.93827000000E+00 0. -1.
     999902    2    1    2    0    0 -0.10990836724E-01 -0.32601953849E-02  0.17186223307E-02  0.10323377169E+01  0.10322726290E+01 0.  0.
     999903    2    3    3    0    0  0.67093340995E-01  0.11032727394E+00 -0.34388024037E-01  0.14087658932E+00  0.44610015002E-01 0.  0.
         14    1    1    2    0    0  0.10990836724E-01  0.32601953849E-02 -0.17186223307E-02  0.11592283147E-01  0.00000000000E+00 0. -1.
     999901    1    3    3    0    0 -0.78084177718E-01 -0.11358746933E+00  0.36106646368E-01  0.89146112754E+00  0.88000000000E+00 0.  1.
        -11    1    4    4    0    0  0.16708262483E-01  0.56208541318E-01 -0.32198960220E-01  0.66899927597E-01  0.51100000000E-03 0.  1.
         11    1    4    4    0    0  0.50385078512E-01  0.54118732626E-01 -0.21890638176E-02  0.73976661719E-01  0.51100000000E-03 0. -1.
</event>
<event>
 8    1  0.2091070E+004  0.1043930E+01  0.7957747E-01            NaN
         13   -1    0    0    0    0  0.00000000000E+00  0.00000000000E+00  0.74505805969E-08  0.10566000000E+00  0.10566000000E+00 0. -1.
     999900   -1    0    0    0    0 -0.00000000000E+00 -0.00000000000E+00 -0.74505805969E-08  0.93827000000E+00  0.93827000000E+00 0. -1.
     999902    2    1    2    0    0 -0.12630503513E-01 -0.30532092904E-02 -0.24956475663E-02  0.10306982215E+01  0.10306132853E+01 0.  0.
     999903    2    3    3    0    0  0.92809322344E-01 -0.39984653095E-01  0.84040600169E-01  0.13942384701E+00  0.46517134921E-01 0.  0.
         14    1    1    2    0    0  0.12630503513E-01  0.30532092904E-02  0.24956475663E-02  0.13231778518E-01  0.00000000000E+00 0.  1.
     999901    1    3    3    0    0 -0.10543982586E+00  0.36931443805E-01 -0.86536247735E-01  0.89127437447E+00  0.88000000000E+00 0. -1.
        -11    1    4    4    0    0  0.14063044682E-01  0.10254335679E-01  0.89667819833E-02  0.19585324252E-01  0.51100000000E-03 0. -1.
         11    1    4    4    0    0  0.78746277662E-01 -0.50238988774E-01  0.75073818185E-01  0.11983852276E+00  0.51100000000E-03 0.  1.
</event>
<event>
 8    1  0.2091070E+004  0.1043930E+01  0.7957747E-01            NaN
         13   -1    0    0    0    0  0.00000000000E+00  0.00000000000E+00  0.74505805969E-08  0.10566000000E+00  0.10566000000E+00 0.  1.
     999900   -1    0    0    0    0 -0.00000000000E+00 -0.00000000000E+00 -0.74505805969E-08  0.93827000000E+00  0.93827000000E+00 0.  1.
     999902    2    1    2    0    0  0.49024058744E-03  0.70169313845E-02 -0.12261458824E-01  0.10297941932E+01  0.10296971687E+01 0.  0.
     999903    2    3    3    0    0  0.54812518223E-01 -0.10736319948E+00 -0.55007601480E-01  0.13970377255E+00  0.44272328692E-01 0.  0.
         14    1    1    2    0    0 -0.49024058744E-03 -0.70169313845E-02  0.12261458824E-01  0.14135806817E-01  0.00000000000E+00 0.  1.
     999901    1    3    3    0    0 -0.54322277636E-01  0.11438013087E+00  0.42746142656E-01  0.89009042063E+00  0.88000000000E+00 0. -1.
        -11    1    4    4    0    0  0.48723541178E-01 -0.63242472283E-01 -0.18111006458E-01  0.81864909707E-01  0.51100000000E-03 0.  1.
         11    1    4    4    0    0  0.60889770449E-02 -0.44120727200E-01 -0.36896595023E-01  0.57838862846E-01  0.51100000000E-03 0. -1.
</event>
<event>
 8    1  0.2091070E+004  0.1043930E+01  0.7957747E-01            NaN
         13   -1    0    0    0    0  0.00000000000E+00  0.00000000000E+00  0.74505805969E-08  0.10566000000E+00  0.10566000000E+00 0.  1.
     999900   -1    0    0    0    0 -0.00000000000E+00 -0.00000000000E+00 -0.74505805969E-08  0.93827000000E+00  0.93827000000E+00 0. -1.
     999902    2    1    2    0    0 -0.29966974859E-02  0.29094691313E-02  0.14689165557E-01  0.10286585629E+01  0.10285451970E+01 0.  0.
     999903    2    3    3    0    0  0.62048579649E-01  0.11572071043E+00  0.69792730614E-02  0.13904251837E+00  0.45197373860E-01 0.  0.
         14    1    1    2    0    0  0.29966974859E-02 -0.29094691313E-02 -0.14689165557E-01  0.15271437104E-01  0.00000000000E+00 0. -1.
     999901    1    3    3    0    0 -0.65045277135E-01 -0.11281124129E+00  0.77098924956E-02  0.88961604453E+00  0.88000000000E+00 0. -1.
        -11    1    4    4    0    0  0.48007019400E-01  0.42762500669E-01  0.76045161085E-02  0.64740985174E-01  0.51100000000E-03 0.  1.
         11    1    4    4    0    0  0.14041560250E-01  0.72958209756E-01 -0.62524304709E-03  0.74301533194E-01  0.51100000000E-03 0. -1.
</event>
<event>
 8    1  0.2091070E+004  0.1043930E+01  0.7957747E-01            NaN
         13   -1    0    0    0    0  0.00000000000E+00  0.00000000000E+00  0.74505805969E-08  0.10566000000E+00  0.10566000000E+00 0. -1.
     999900   -1    0    0    0    0 -0.00000000000E+00 -0.00000000000E+00 -0.74505805969E-08  0.93827000000E+00  0.93827000000E+00 0. -1.
     999902    2    1    2    0    0  0.30690514070E-02 -0.99751092098E-02 -0.42862717703E-02  0.10326475355E+01  0.10325858988E+01 0.  0.
     999903    2    3    3    0    0  0.85914297272E-01  0.46297438149E-02 -0.10522403465E+00  0.14289191257E+00  0.44082878839E-01 0.  0.
         14    1    1    2    0    0 -0.30690514070E-02  0.99751092098E-02  0.42862717703E-02  0.11282464535E-01  0.00000000000E+00 0.  1.
     999901    1    3    3    0    0 -0.82845245865E-01 -0.14604853025E-01  0.10093776288E+00  0.88975562289E+00  0.88000000000E+00 0.  1.
        -11    1    4    4    0    0  0.44339768852E-01  0.89319334217E-03 -0.86358477816E-01  0.97081721801E-01  0.51100000000E-03 0. -1.
         11    1    4    4    0    0  0.41574528420E-01  0.37365504728E-02 -0.18865556835E-01  0.45810190771E-01  0.51100000000E-03 0.  1.
</event>
<event>
 7    1  0.2091070E+004  0.1043930E+01  0.7957747E-01            NaN
         13   -1    0    0    0    0  0.00000000000E+00  0.00000000000E+00  0.74505805969E-08  0.10566000000E+00  0.10566000000E+00 0. -1.
     999900   -1    0    0    0    0 -0.00000000000E+00 -0.00000000000E+00 -0.74505805969E-08  0.93827000000E+00  0.93827000000E+00 0.  1.
     999902    2    1    2    0    0 -0.14250174210E-01 -0.70191230645E-03 -0.42933740153E-02  0.10290305636E+01  0.10289226927E+01 0.  0.
         14    1    1    2    0    0  0.14250174210E-01  0.70191230645E-03  0.42933740153E-02  0.14899436444E-01  0.00000000000E+00 0. -1.
     999901    1    3    3    0    0 -0.12590905317E-01  0.60629303745E-02 -0.14069516157E+00  0.89128582313E+00  0.88000000000E+00 0.  1.
        -11    1    3    3    0    0  0.22665084522E-02 -0.79605178908E-02  0.26545456331E-01  0.27810596514E-01  0.51100000000E-03 0. -1.
         11    1    3    3    0    0 -0.39257773457E-02  0.11956752099E-02  0.10985633122E+00  0.10993414391E+00  0.51100000000E-03 0.  1.
</event>
<event>
 8    1  0.2091070E+004  0.1043930E+01  0.7957747E-01            NaN
         13   -1    0    0    0    0  0.00000000000E+00  0.00000000000E+00  0.74505805969E-08  0.10566000000E+00  0.10566000000E+00 0. -1.
     999900   -1    0    0    0    0 -0.00000000000E+00 -0.00000000000E+00 -0.74505805969E-08  0.93827000000E+00  0.93827000000E+00 0. -1.
     999902    2    1    2    0    0 -0.25062881687E-02  0.11178168869E-01  0.62710371028E-02  0.10308701820E+01  0.10307874530E+01 0.  0.
     999903    2    3    3    0    0  0.11638679219E+00 -0.50475184346E-01 -0.37545304252E-01  0.13965944807E+00  0.44737924989E-01 0.  0.
         14    1    1    2    0    0  0.25062881687E-02 -0.11178168869E-01 -0.62710371028E-02  0.13059817993E-01  0.00000000000E+00 0. -1.
     999901    1    3    3    0    0 -0.11889308036E+00  0.61653353215E-01  0.43816341354E-01  0.89121073394E+00  0.88000000000E+00 0.  1.
        -11    1    4    4    0    0  0.40243851824E-01 -0.37066078584E-01 -0.25017414223E-02  0.54772087986E-01  0.51100000000E-03 0.  1.
         11    1    4    4    0    0  0.76142940366E-01 -0.13409105762E-01 -0.35043562829E-01  0.84887360082E-01  0.51100000000E-03 0. -1.
</event>
<event>
 8    1  0.2091070E+004  0.1043930E+01  0.7957747E-01            NaN
         13   -1    0    0    0    0  0.00000000000E+00  0.00000000000E+00  0.74505805969E-08  0.10566000000E+00  0.10566000000E+00 0. -1.
     999900   -1    0    0    0    0 -0.00000000000E+00 -0.00000000000E+00 -0.74505805969E-08  0.93827000000E+00  0.93827000000E+00 0. -1.
     999902    2    1    2    0    0 -0.32505202068E-02  0.12980479314E-01 -0.44519641181E-02  0.10298275637E+01  0.10297310000E+01 0.  0.
     999903    2    3    3    0    0  0.76397076815E-01  0.10094883313E+00 -0.42391701976E-01  0.14105222950E+00  0.45513677021E-01 0.  0.
         14    1    1    2    0    0  0.32505202068E-02 -0.12980479314E-01  0.44519641181E-02  0.14102436291E-01  0.00000000000E+00 0. -1.
     999901    1    3    3    0    0 -0.79647597022E-01 -0.87968353812E-01  0.37939737858E-01  0.88877533421E+00  0.88000000000E+00 0.  1.
        -11    1    4    4    0    0  0.79248282932E-01  0.80058528886E-01 -0.41133734871E-01  0.11992457488E+00  0.51100000000E-03 0. -1.
         11    1    4    4    0    0 -0.28512061176E-02  0.20890304239E-01 -0.12579671048E-02  0.21127654621E-01  0.51100000000E-03 0.  1.
</event>
<event>
 8    1  0.2091070E+004  0.1043930E+01  0.7957747E-01            NaN
         13   -1    0    0    0    0  0.00000000000E+00  0.00000000000E+00  0.74505805969E-08  0.10566000000E+00  0.10566000000E+00 0. -1.
     999900   -1    0    0    0    0 -0.00000000000E+00 -0.00000000000E+00 -0.74505805969E-08  0.93827000000E+00  0.93827000000E+00 0. -1.
     999902    2    1    2    0    0 -0.46268094119E-02 -0.77682136449E-02  0.72807080896E-02  0.10323213300E+01  0.10322560570E+01 0.  0.
     999903    2    3    3    0    0  0.14827473544E-01 -0.69827642873E-01 -0.11378886479E+00  0.14165434210E+00  0.44969914435E-01 0.  0.
         14    1    1    2    0    0  0.46268094119E-02  0.77682136449E-02 -0.72807080896E-02  0.11608669986E-01  0.00000000000E+00 0.  1.
     999901    1    3    3    0    0 -0.19454282956E-01  0.62059429228E-01  0.12106957288E+00  0.89066698791E+00  0.88000000000E+00 0.  1.
        -11    1    4    4    0    0  0.28837408020E-01 -0.61039466215E-01 -0.95984845737E-01  0.11734889974E+00  0.51100000000E-03 0. -1.
         11    1    4    4    0    0 -0.14009934476E-01 -0.87881766574E-02 -0.17804019055E-01  0.24305442364E-01  0.51100000000E-03 0.  1.
</event>
<event>
 8    1  0.2091070E+004  0.1043930E+01  0.7957747E-01            NaN
         13   -1    0    0    0    0  0.00000000000E+00  0.00000000000E+00  0.74505805969E-08  0.10566000000E+00  0.10566000000E+00 0. -1.
     999900   -1    0    0    0    0 -0.00000000000E+00 -0.00000000000E+00 -0.74505805969E-08  0.93827000000E+00  0.93827000000E+00 0. -1.
     999902    2    1    2    0    0  0.76496040074E-02  0.11029532549E-01  0.55696417585E-02  0.10293976933E+01  0.10292951098E+01 0.  0.
     999903    2    3    3    0    0 -0.11584770722E+00  0.62876935056E-01  0.58141257483E-03  0.13924904194E+00  0.44897187108E-01 0.  0.
         14    1    1    2    0    0 -0.76496040074E-02 -0.11029532549E-01 -0.55696417585E-02  0.14532306735E-01  0.00000000000E+00 0.  1.
     999901    1    3    3    0    0  0.12349731123E+00 -0.51847402507E-01  0.49882291837E-02  0.89014865133E+00  0.88000000000E+00 0.  1.
        -11    1    4    4    0    0 -0.29063010641E-01  0.29996585126E-01 -0.16451611298E-01  0.44892876295E-01  0.51100000000E-03 0.  1.
         11    1    4    4    0    0 -0.86784696579E-01  0.32880349930E-01  0.17033023872E-01  0.94356165644E-01  0.51100000000E-03 0. -1.
</event>
<event>
 8    1  0.2091070E+004  0.1043930E+01  0.7957747E-01            NaN
         13   -1    0    0    0    0  0.00000000000E+00  0.00000000000E+00  0.74505805969E-08  0.10566000000E+00  0.10566000000E+00 0. -1.
     999900   -1    0    0    0    0 -0.00000000000E+00 -0.00000000000E+00 -0.74505805969E-08  0.93827000000E+00  0.93827000000E+00 0.  1.
     999902    2    1    2    0    0  0.17398490247E-02 -0.12918548582E-01  0.42410634387E-02  0.10302222434E+01  0.10301310442E+01 0.  0.
     999903    2    3    3    0    0  0.37607540653E-01  0.65107544260E-01  0.10884361578E+00  0.13987609923E+00  0.45443052346E-01 0.  0.
         14    1    1    2    0    0 -0.17398490247E-02  0.12918548582E-01 -0.42410634387E-02  0.13707756606E-01  0.00000000000E+00 0. -1.
     999901    1    3    3    0    0 -0.35867691628E-01 -0.78026092842E-01 -0.10460255234E+00  0.89034614416E+00  0.88000000000E+00 0.  1.
        -11    1    4    4    0    0  0.76939380222E-02 -0.56019827791E-02  0.21900789782E-01  0.23884819602E-01  0.51100000000E-03 0. -1.
         11    1    4    4    0    0  0.29913602631E-01  0.70709527040E-01  0.86942825999E-01  0.11599127963E+00  0.51100000000E-03 0.  1.
</event>
<event>
 8    1  0.2091070E+004  0.1043930E+01  0.7957747E-01            NaN
         13   -1    0    0    0    0  0.00000000000E+00  0.00000000000E+00  0.74505805969E-08  0.10566000000E+00  0.10566000000E+00 0. -1.
     999900   -1    0    0    0    0 -0.00000000000E+00 -0.00000000000E+00 -0.74505805969E-08  0.93827000000E+00  0.93827000000E+00 0. -1.
     999902    2    1    2    0    0  0.14664979928E-01 -0.32548155651E-02  0.20872500110E-02  0.10287638511E+01  0.10286520545E+01 0.  0.
     999903    2    3    3    0    0  0.17284435666E-01 -0.13067158783E+00 -0.87997481078E-02  0.13951674136E+00  0.44873934191E-01 0.  0.
         14    1    1    2    0    0 -0.14664979928E-01  0.32548155651E-02 -0.20872500110E-02  0.15166148927E-01  0.00000000000E+00 0.  1.
     999901    1    3    3    0    0 -0.26194557373E-02  0.12741677227E+00  0.10886998119E-01  0.88924710971E+00  0.88000000000E+00 0.  1.
        -11    1    4    4    0    0 -0.12307666891E-01 -0.75414389667E-01 -0.79556909047E-02  0.76826837576E-01  0.51100000000E-03 0.  1.
         11    1    4    4    0    0  0.29592102556E-01 -0.55257198167E-01 -0.84405720310E-03  0.62689903785E-01  0.51100000000E-03 0. -1.
</event>
<event>
 8    1  0.2091070E+004  0.1043930E+01  0.7957747E-01            NaN
         13   -1    0    0    0    0  0.00000000000E+00  0.00000000000E+00  0.74505805969E-08  0.10566000000E+00  0.10566000000E+00 0. -1.
     999900   -1    0    0    0    0 -0.00000000000E+00 -0.00000000000E+00 -0.74505805969E-08  0.93827000000E+00  0.93827000000E+00 0. -1.
     999902    2    1    2    0    0 -0.15868465731E-02 -0.56700922033E-02  0.12319663639E-01  0.10302756183E+01  0.10301851326E+01 0.  0.
     999903    2    3    3    0    0  0.12787920423E+00  0.23277597274E-01 -0.24469871348E-01  0.13957202173E+00  0.44571708941E-01 0.  0.
         14    1    1    2    0    0  0.15868465731E-02  0.56700922033E-02 -0.12319663639E-01  0.13654381708E-01  0.00000000000E+00 0.  1.
     999901    1    3    3    0    0 -0.12946605080E+00 -0.28947689477E-01  0.36789534988E-01  0.89070359656E+00  0.88000000000E+00 0.  1.
        -11    1    4    4    0    0  0.11818597851E+00  0.33845379232E-01 -0.20083521315E-01  0.12456742817E+00  0.51100000000E-03 0. -1.
         11    1    4    4    0    0  0.96932257182E-02 -0.10567781958E-01 -0.43863500333E-02  0.15004593562E-01  0.51100000000E-03 0.  1.
</event>
<event>
 8    1  0.2091070E+004  0.1043930E+01  0.7957747E-01            NaN
         13   -1    0    0    0    0  0.00000000000E+00  0.00000000000E+00  0.74505805969E-08  0.10566000000E+00  0.10566000000E+00 0. -1.
     999900   -1    0    0    0    0 -0.00000000000E+00 -0.00000000000E+00 -0.74505805969E-08  0.93827000000E+00  0.93827000000E+00 0.  1.
     999902    2    1    2    0    0 -0.56609004049E-02 -0.12096548804E-01  0.32780789004E-02  0.10301779788E+01  0.10300861857E+01 0.  0.
     999903    2    3    3    0    0 -0.35341872762E-01  0.82829022990E-01 -0.95828719507E-01  0.13904724662E+00  0.45180729207E-01 0.  0.
         14    1    1    2    0    0  0.56609004049E-02  0.12096548804E-01 -0.32780789004E-02  0.13752021220E-01  0.00000000000E+00 0.  1.
     999901    1    3    3    0    0  0.29680972357E-01 -0.94925571794E-01  0.99106798408E-01  0.89113073216E+00  0.88000000000E+00 0. -1.
        -11    1    4    4    0    0 -0.16091921905E-01  0.71159793618E-01 -0.89868537667E-01  0.11575526494E+00  0.51100000000E-03 0. -1.
         11    1    4    4    0    0 -0.19249950857E-01  0.11669229372E-01 -0.59601818399E-02  0.23291981683E-01  0.51100000000E-03 0.  1.
</event>
<event>
 8    1  0.2091070E+004  0.1043930E+01  0.7957747E-01            NaN
         13   -1    0    0    0    0  0.00000000000E+00  0.00000000000E+00  0.74505805969E-08  0.10566000000E+00  0.10566000000E+00 0.  1.
     999900   -1    0    0    0    0 -0.00000000000E+00 -0.00000000000E+00 -0.74505805969E-08  0.93827000000E+00  0.93827000000E+00 0. -1.
     999902    2    1    2    0    0  0.23559597530E-02 -0.19823419013E-02 -0.14035803536E-01  0.10295604486E+01  0.10294601660E+01 0.  0.
     999903    2    3    3    0    0 -0.49759475401E-01 -0.70060362647E-01  0.97712894977E-01  0.13835990604E+00  0.47023334075E-01 0.  0.
         14    1    1    2    0    0 -0.23559597530E-02  0.19823419013E-02  0.14035803536E-01  0.14369551374E-01  0.00000000000E+00 0.  1.
     999901    1    3    3    0    0  0.52115435154E-01  0.68078020746E-01 -0.11174869851E+00  0.89120054259E+00  0.88000000000E+00 0. -1.
        -11    1    4    4    0    0 -0.16077353233E-01 -0.21466911451E-01  0.66047521623E-01  0.71287066203E-01  0.51100000000E-03 0.  1.
         11    1    4    4    0    0 -0.33682122168E-01 -0.48593451196E-01  0.31665373354E-01  0.67072839835E-01  0.51100000000E-03 0. -1.
</event>
<event>
 8    1  0.2091070E+004  0.1043930E+01  0.7957747E-01            NaN
         13   -1    0    0    0    0  0.00000000000E+00  0.00000000000E+00  0.74505805969E-08  0.10566000000E+00  0.10566000000E+00 0. -1.
     999900   -1    0    0    0    0 -0.00000000000E+00 -0.00000000000E+00 -0.74505805969E-08  0.93827000000E+00  0.93827000000E+00 0. -1.
     999902    2    1    2    0    0 -0.80723775352E-02 -0.10243671641E-01 -0.51311433682E-02  0.10299148396E+01  0.10298194755E+01 0.  0.
     999903    2    3    3    0    0  0.11508185067E-02 -0.93800486057E-01  0.94388614684E-01  0.14032448963E+00  0.44518493239E-01 0.  0.
         14    1    1    2    0    0  0.80723775352E-02  0.10243671641E-01  0.51311433682E-02  0.14015160364E-01  0.00000000000E+00 0. -1.
     999901    1    3    3    0    0 -0.92231960419E-02  0.83556814416E-01 -0.99519758053E-01  0.88959035001E+00  0.88000000000E+00 0.  1.
        -11    1    4    4    0    0 -0.20496604009E-01 -0.62308185022E-01  0.61030977942E-01  0.89596105307E-01  0.51100000000E-03 0. -1.
         11    1    4    4    0    0  0.21647422516E-01 -0.31492301035E-01  0.33357636742E-01  0.50728384324E-01  0.51100000000E-03 0.  1.
</event>
<event>
 8    1  0.2091070E+004  0.1043930E+01  0.7957747E-01            NaN
         13   -1    0    0    0    0  0.00000000000E+00  0.00000000000E+00  0.74505805969E-08  0.10566000000E+00  0.10566000000E+00 0.  1.
     999900   -1    0    0    0    0 -0.00000000000E+00 -0.00000000000E+00 -0.74505805969E-08  0.93827000000E+00  0.93827000000E+00 0.  1.
     999902    2    1    2    0    0  0.71985832068E-03  0.13457006378E-01  0.34632320205E-03  0.10304493043E+01  0.10303611210E+01 0.  0.
     999903    2    3    3    0    0  0.90964754105E-01 -0.31131707142E-01  0.91519341943E-01  0.14003096783E+00  0.44599465490E-01 0.  0.
         14    1    1    2    0    0 -0.71985832068E-03 -0.13457006378E-01 -0.34632320205E-03  0.13480695695E-01  0.00000000000E+00 0. -1.
     999901    1    3    3    0    0 -0.90244895784E-01  0.44588713520E-01 -0.91173018741E-01  0.89041833648E+00  0.88000000000E+00 0.  1.
        -11    1    4    4    0    0  0.16083181541E-01  0.67694254226E-02  0.34196635270E-01  0.38394854262E-01  0.51100000000E-03 0.  1.
         11    1    4    4    0    0  0.74881572564E-01 -0.37901132565E-01  0.57322706674E-01  0.10163611357E+00  0.51100000000E-03 0. -1.
</event>
<event>
 8    1  0.2091070E+004  0.1043930E+01  0.7957747E-01            NaN
         13   -1    0    0    0    0  0.00000000000E+00  0.00000000000E+00  0.74505805969E-08  0.10566000000E+00  0.10566000000E+00 0. -1.
     999900   -1    0    0    0    0 -0.00000000000E+00 -0.00000000000E+00 -0.74505805969E-08  0.93827000000E+00  0.93827000000E+00 0.  1.
     999902    2    1    2    0    0 -0.25387854748E-02  0.12651975761E-01 -0.45960581123E-02  0.10302317639E+01  0.10301406922E+01 0.  0.
     999903    2    3    3    0    0 -0.10797008072E+00 -0.58555686173E-01  0.48149605435E-01  0.13951946794E+00  0.45398135609E-01 0.  0.
         14    1    1    2    0    0  0.25387854748E-02 -0.12651975761E-01  0.45960581123E-02  0.13698236110E-01  0.00000000000E+00 0. -1.
     999901    1    3    3    0    0  0.10543129524E+00  0.71207661934E-01 -0.52745663548E-01  0.89071229595E+00  0.88000000000E+00 0.  1.
        -11    1    4    4    0    0 -0.72761927595E-01 -0.53300817816E-01  0.16112273149E-01  0.91625006162E-01  0.51100000000E-03 0. -1.
         11    1    4    4    0    0 -0.35208153124E-01 -0.52548683569E-02  0.32037332287E-01  0.47894461777E-01  0.51100000000E-03 0.  1.
</event>
<event>
 8    1  0.2091070E+004  0.1043930E+01  0.7957747E-01            NaN
         13   -1    0    0    0    0  0.00000000000E+00  0.00000000000E+00  0.74505805969E-08  0.10566000000E+00  0.10566000000E+00 0. -1.
     999900   -1    0    0    0    0 -0.00000000000E+00 -0.00000000000E+00 -0.74505805969E-08  0.93827000000E+00  0.93827000000E+00 0.  1.
     999902    2    1    2    0    0 -0.86665679597E-02 -0.10569858834E-01  0.38668249060E-04  0.10302613201E+01  0.10301706435E+01 0.  0.
     999903    2    3    3    0    0  0.27522378307E-01 -0.13059071677E+00 -0.11261661638E-01  0.14130555984E+00  0.45044640160E-01 0.  0.
         14    1    1    2    0    0  0.86665679597E-02  0.10569858834E-01 -0.38668249060E-04  0.13668679937E-01  0.00000000000E+00 0. -1.
     999901    1    3    3    0    0 -0.36188946267E-01  0.12002085793E+00  0.11300329887E-01  0.88895576022E+00  0.88000000000E+00 0.  1.
        -11    1    4    4    0    0  0.65439187876E-02 -0.27117835256E-01 -0.21510249583E-01  0.35229984675E-01  0.51100000000E-03 0.  1.
         11    1    4    4    0    0  0.20978459520E-01 -0.10347288151E+00  0.10248587945E-01  0.10607557517E+00  0.51100000000E-03 0. -1.
</event>
<event>
 8    1  0.2091070E+004  0.1043930E+01  0.7957747E-01            NaN
         13   -1    0    0    0    0  0.00000000000E+00  0.00000000000E+00  0.74505805969E-08  0.10566000000E+00  0.10566000000E+00 0.  1.
     999900   -1    0    0    0    0 -0.00000000000E+00 -0.00000000000E+00 -0.74505805969E-08  0.93827000000E+00  0.93827000000E+00 0. -1.
     999902    2    1    2    0    0  0.77670448142E-02 -0.75698908293E-02 -0.79344802593E-02  0.10304917632E+01  0.10304041381E+01 0.  0.
     999903    2    3    3    0    0 -0.31909053048E-01  0.79532832478E-01  0.99591303669E-01  0.13879513798E+00  0.44743753224E-01 0.  0.
         14    1    1    2    0    0 -0.77670448142E-02  0.75698908293E-02  0.79344802593E-02  0.13438236837E-01  0.00000000000E+00 0.  1.
     999901    1    3    3    0    0  0.39676097862E-01 -0.87102723307E-01 -0.10752578393E+00  0.89169662518E+00  0.88000000000E+00 0. -1.
        -11    1    4    4    0    0  0.47703904899E-03  0.31016028600E-01  0.62192620520E-01  0.69501113405E-01  0.51100000000E-03 0.  1.
         11    1    4    4    0    0 -0.32386092097E-01  0.48516803877E-01  0.37398683150E-01  0.69294024577E-01  0.51100000000E-03 0. -1.
</event>
<event>
 8    1  0.2091070E+004  0.1043930E+01  0.7957747E-01            NaN
         13   -1    0    0    0    0  0.00000000000E+00  0.00000000000E+00  0.74505805969E-08  0.10566000000E+00  0.10566000000E+00 0.  1.
     999900   -1    0    0    0    0 -0.00000000000E+00 -0.00000000000E+00 -0.74505805969E-08  0.93827000000E+00  0.93827000000E+00 0. -1.
     999902    2    1    2    0    0 -0.14099749698E-01  0.30144193145E-02  0.34356079290E-02  0.10291079533E+01  0.10290012082E+01 0.  0.
     999903    2    3    3    0    0 -0.58578823688E-02 -0.63179793682E-01 -0.11485694907E+00  0.13869078636E+00  0.44911182969E-01 0.  0.
         14    1    1    2    0    0  0.14099749698E-01 -0.30144193145E-02 -0.34356079290E-02  0.14822046660E-01  0.00000000000E+00 0.  1.
     999901    1    3    3    0    0 -0.82418673290E-02  0.66194212996E-01  0.11829255700E+00  0.89041716698E+00  0.88000000000E+00 0.  1.
        -11    1    4    4    0    0  0.14841659369E-01 -0.48404593795E-01 -0.62122802424E-01  0.80142268843E-01  0.51100000000E-03 0.  1.
         11    1    4    4    0    0 -0.20699541738E-01 -0.14775199887E-01 -0.52734146648E-01  0.58548517518E-01  0.51100000000E-03 0. -1.
</event>
<event>
 8    1  0.2091070E+004  0.1043930E+01  0.7957747E-01            NaN
         13   -1    0    0    0    0  0.00000000000E+00  0.00000000000E+00  0.74505805969E-08  0.10566000000E+00  0.10566000000E+00 0. -1.
     999900   -1    0    0    0    0 -0.00000000000E+00 -0.00000000000E+00 -0.74505805969E-08  0.93827000000E+00  0.93827000000E+00 0. -1.
     999902    2    1    2    0    0 -0.28735230855E-02 -0.83527269713E-02  0.68114163452E-02  0.10327756029E+01  0.10327153651E+01 0.  0.
     999903    2    3    3    0    0  0.57314847078E-01 -0.65865017301E-01 -0.10282714458E+00  0.14207311747E+00  0.44588752470E-01 0.  0.
         14    1    1    2    0    0  0.28735230855E-02  0.83527269713E-02 -0.68114163452E-02  0.11154397133E-01  0.00000000000E+00 0.  1.
     999901    1    3    3    0    0 -0.60188370164E-01  0.57512290330E-01  0.10963856092E+00  0.89070248539E+00  0.88000000000E+00 0.  1.
        -11    1    4    4    0    0  0.40502849977E-01 -0.18628768710E-01 -0.66875381878E-01  0.80374683217E-01  0.51100000000E-03 0.  1.
         11    1    4    4    0    0  0.16811997101E-01 -0.47236248591E-01 -0.35951762702E-01  0.61698434258E-01  0.51100000000E-03 0. -1.
</event>
<event>
 7    1  0.2091070E+004  0.1043930E+01  0.7957747E-01            NaN
         13   -1    0    0    0    0  0.00000000000E+00  0.00000000000E+00  0.74505805969E-08  0.10566000000E+00  0.10566000000E+00 0. -1.
     999900   -1    0    0    0    0 -0.00000000000E+00 -0.00000000000E+00 -0.74505805969E-08  0.93827000000E+00  0.93827000000E+00 0. -1.
     999902    2    1    2    0    0  0.16975195163E-02 -0.13534054457E-01 -0.25812478289E-02  0.10300478156E+01  0.10299542647E+01 0.  0.
         14    1    1    2    0    0 -0.16975195163E-02  0.13534054457E-01  0.25812478289E-02  0.13882184371E-01  0.00000000000E+00 0.  1.
     999901    1    3    3    0    0  0.12305816647E+00 -0.32360859658E-01  0.57591974462E-01  0.89101479959E+00  0.88000000000E+00 0.  1.
        -11    1    3    3    0    0 -0.49818711978E-01  0.19436656137E-01 -0.30612219625E-01  0.61620262708E-01  0.51100000000E-03 0. -1.
         11    1    3    3    0    0 -0.71541934975E-01 -0.60985093539E-03 -0.29561002666E-01  0.77412753327E-01  0.51100000000E-03 0.  1.
</event>
<event>
 8    1  0.2091070E+004  0.1043930E+01  0.7957747E-01            NaN
         13   -1    0    0    0    0  0.00000000000E+00  0.00000000000E+00  0.74505805969E-08  0.10566000000E+00  0.10566000000E+00 0. -1.
     999900   -1    0    0    0    0 -0.00000000000E+00 -0.00000000000E+00 -0.74505805969E-08  0.93827000000E+00  0.93827000000E+00 0. -1.
     999902    2    1    2    0    0  0.66927027165E-02 -0.12066195658E-01 -0.23571154732E-02  0.10299320951E+01  0.10298369673E+01 0.  0.
     999903    2    3    3    0    0  0.10623068374E+00  0.65243901502E-01 -0.45144350683E-01  0.13992343884E+00  0.44708293261E-01 0.  0.
         14    1    1    2    0    0 -0.66927027165E-02  0.12066195658E-01  0.23571154732E-02  0.13997904867E-01  0.00000000000E+00 0. -1.
     999901    1    3    3    0    0 -0.99537981021E-01 -0.77310097159E-01  0.42787235210E-01  0.89000865630E+00  0.88000000000E+00 0.  1.
        -11    1    4    4    0    0  0.56214685258E-01  0.59767708969E-01 -0.30205912371E-01  0.87435279706E-01  0.51100000000E-03 0. -1.
         11    1    4    4    0    0  0.50015998480E-01  0.54761925323E-02 -0.14938438312E-01  0.52488159129E-01  0.51100000000E-03 0.  1.
</event>
<event>
 8    1  0.2091070E+004  0.1043930E+01  0.7957747E-01            NaN
         13   -1    0    0    0    0  0.00000000000E+00  0.00000000000E+00  0.74505805969E-08  0.10566000000E+00  0.10566000000E+00 0. -1.
     999900   -1    0    0    0    0 -0.00000000000E+00 -0.00000000000E+00 -0.74505805969E-08  0.93827000000E+00  0.93827000000E+00 0. -1.
     999902    2    1    2    0    0 -0.83366143934E-02 -0.78674558442E-02  0.82733260234E-02  0.10297933836E+01  0.10296963479E+01 0.  0.
     999903    2    3    3    0    0 -0.47349465272E-01  0.15787359157E-01 -0.12188140432E+00  0.13905110510E+00  0.44597315380E-01 0.  0.
         14    1    1    2    0    0  0.83366143934E-02  0.78674558442E-02 -0.82733260234E-02  0.14136616444E-01  0.00000000000E+00 0.  1.
     999901    1    3    3    0    0  0.39012850879E-01 -0.23654815002E-01  0.13015473034E+00  0.89074227846E+00  0.88000000000E+00 0.  1.
        -11    1    4    4    0    0  0.36589453831E-02  0.30586709974E-02 -0.48734693586E-01  0.48970142225E-01  0.51100000000E-03 0.  1.
         11    1    4    4    0    0 -0.51008410655E-01  0.12728688160E-01 -0.73146710732E-01  0.90080962871E-01  0.51100000000E-03 0. -1.
</event>
<event>
 8    1  0.2091070E+004  0.1043930E+01  0.7957747E-01            NaN
         13   -1    0    0    0    0  0.00000000000E+00  0.00000000000E+00  0.74505805969E-08  0.10566000000E+00  0.10566000000E+00 0.  1.
     999900   -1    0    0    0    0 -0.00000000000E+00 -0.00000000000E+00 -0.74505805969E-08  0.93827000000E+00  0.93827000000E+00 0. -1.
     999902    2    1    2    0    0  0.12482004598E-01  0.39179870200E-02  0.35024413364E-02  0.10303868041E+01  0.10302977957E+01 0.  0.
     999903    2    3    3    0    0  0.57308821517E-01 -0.34336136377E-01  0.11617777525E+00  0.14124758417E+00  0.44613151476E-01 0.  0.
         14    1    1    2    0    0 -0.12482004598E-01 -0.39179870200E-02 -0.35024413364E-02  0.13543195945E-01  0.00000000000E+00 0. -1.
     999901    1    3    3    0    0 -0.44826816918E-01  0.38254123397E-01 -0.11267533392E+00  0.88913921989E+00  0.88000000000E+00 0. -1.
        -11    1    4    4    0    0  0.66841431238E-02 -0.21846034911E-01  0.61885030749E-01  0.65969274382E-01  0.51100000000E-03 0.  1.
         11    1    4    4    0    0  0.50624678393E-01 -0.12490101467E-01  0.54292744505E-01  0.75278309784E-01  0.51100000000E-03 0. -1.
</event>
<event>
 8    1  0.2091070E+004  0.1043930E+01  0.7957747E-01            NaN
         13   -1    0    0    0    0  0.00000000000E+00  0.00000000000E+00  0.74505805969E-08  0.10566000000E+00  0.10566000000E+00 0. -1.
     999900   -1    0    0    0    0 -0.00000000000E+00 -0.00000000000E+00 -0.74505805969E-08  0.93827000000E+00  0.93827000000E+00 0. -1.
     999902    2    1    2    0    0  0.21986414375E-02  0.11955045600E-01  0.91286199434E-02  0.10287283935E+01  0.10286160696E+01 0.  0.
     999903    2    3    3    0    0  0.34755710915E-01 -0.11413713652E+00  0.52977311894E-01  0.13806464717E+00  0.44944475165E-01 0.  0.
         14    1    1    2    0    0 -0.21986414375E-02 -0.11955045600E-01 -0.91286199434E-02  0.15201606544E-01  0.00000000000E+00 0.  1.
     999901    1    3    3    0    0 -0.32557069478E-01  0.12609218212E+00 -0.43848691950E-01  0.89066374629E+00  0.88000000000E+00 0. -1.
        -11    1    4    4    0    0  0.34602385313E-01 -0.52096373647E-01  0.41254963163E-01  0.74923896876E-01  0.51100000000E-03 0. -1.
         11    1    4    4    0    0  0.15332560200E-03 -0.62040762874E-01  0.11722348731E-01  0.63140750292E-01  0.51100000000E-03 0.  1.
</event>
<event>
 8    1  0.2091070E+004  0.1043930E+01  0.7957747E-01            NaN
         13   -1    0    0    0    0  0.00000000000E+00  0.00000000000E+00  0.74505805969E-08  0.10566000000E+00  0.10566000000E+00 0. -1.
     999900   -1    0    0    0    0 -0.00000000000E+00 -0.00000000000E+00 -0.74505805969E-08  0.93827000000E+00  0.93827000000E+00 0.  1.
     999902    2    1    2    0    0 -0.75144543295E-02 -0.39166833857E-02  0.96753532285E-02  0.10310684335E+01  0.10309882127E+01 0.  0.
     999903    2    3    3    0    0 -0.26689374209E-02 -0.55176235291E-01  0.12348574270E+00  0.14224683979E+00  0.43976068644E-01 0.  0.
         14    1    1    2    0    0  0.75144543295E-02  0.39166833857E-02 -0.96753532285E-02  0.12861566495E-01  0.00000000000E+00 0.  1.
     999901    1    3    3    0    0 -0.48455169086E-02  0.51259551905E-01 -0.11381038947E+00  0.88882159371E+00  0.88000000000E+00 0.  1.
        -11    1    4    4    0    0 -0.16464821049E-01 -0.89388976340E-02  0.57655336645E-01  0.60625021136E-01  0.51100000000E-03 0.  1.
         11    1    4    4    0    0  0.13795883628E-01 -0.46237337657E-01  0.65830406054E-01  0.81621818657E-01  0.51100000000E-03 0. -1.
</event>
<event>
 8    1  0.2091070E+004  0.1043930E+01  0.7957747E-01            NaN
         13   -1    0    0    0    0  0.00000000000E+00  0.00000000000E+00  0.74505805969E-08  0.10566000000E+00  0.10566000000E+00 0. -1.
     999900   -1    0    0    0    0 -0.00000000000E+00 -0.00000000000E+00 -0.74505805969E-08  0.93827000000E+00  0.93827000000E+00 0.  1.
     999902    2    1    2    0    0  0.12466704161E-01 -0.56270816719E-02 -0.17875904472E-02  0.10301358621E+01  0.10300435021E+01 0.  0.
     999903    2    3    3    0    0  0.80037127368E-01  0.46436339425E-02  0.10685845509E+00  0.14082421093E+00  0.44555851104E-01 0.  0.
         14    1    1    2    0    0 -0.12466704161E-01  0.56270816719E-02  0.17875904472E-02  0.13794137899E-01  0.00000000000E+00 0. -1.
     999901    1    3    3    0    0 -0.67570423207E-01 -0.10270715614E-01 -0.10864604554E+00  0.88931165117E+00  0.88000000000E+00 0.  1.
        -11    1    4    4    0    0  0.42202196384E-01  0.10105690980E-01  0.24050025799E-01  0.49616682998E-01  0.51100000000E-03 0. -1.
         11    1    4    4    0    0  0.37834930984E-01 -0.54620570374E-02  0.82808429289E-01  0.91207527935E-01  0.51100000000E-03 0.  1.
</event>
<event>
 8    1  0.2091070E+004  0.1043930E+01  0.7957747E-01            NaN
         13   -1    0    0    0    0  0.00000000000E+00  0.00000000000E+00  0.74505805969E-08  0.10566000000E+00  0.10566000000E+00 0. -1.
     999900   -1    0    0    0    0 -0.00000000000E+00 -0.00000000000E+00 -0.74505805969E-08  0.93827000000E+00  0.93827000000E+00 0.  1.
     999902    2    1    2    0    0  0.58616393364E-02  0.11945517134E-01 -0.39955237261E-02  0.10300368936E+01  0.10299431944E+01 0.  0.
     999903    2    3    3    0    0  0.12490917833E-01  0.61789324773E-01  0.11663703495E+00  0.14038495790E+00  0.46149699877E-01 0.  0.
         14    1    1    2    0    0 -0.58616393364E-02 -0.11945517134E-01  0.39955237261E-02  0.13893106390E-01  0.00000000000E+00 0.  1.
     999901    1    3    3    0    0 -0.66292784964E-02 -0.49843807638E-01 -0.12063255868E+00  0.88965193571E+00  0.88000000000E+00 0.  1.
        -11    1    4    4    0    0  0.40209485170E-02  0.38387954851E-01  0.10690014846E+00  0.11365608636E+00  0.51100000000E-03 0.  1.
         11    1    4    4    0    0  0.84699693158E-02  0.23401369922E-01  0.97368864911E-02  0.26728871543E-01  0.51100000000E-03 0. -1.
</event>
<event>
 8    1  0.2091070E+004  0.1043930E+01  0.7957747E-01            NaN
         13   -1    0    0    0    0  0.00000000000E+00  0.00000000000E+00  0.74505805969E-08  0.10566000000E+00  0.10566000000E+00 0. -1.
     999900   -1    0    0    0    0 -0.00000000000E+00 -0.00000000000E+00 -0.74505805969E-08  0.93827000000E+00  0.93827000000E+00 0. -1.
     999902    2    1    2    0    0  0.68473583683E-02 -0.76547619087E-02 -0.80143219272E-02  0.10309026805E+01  0.10308203654E+01 0.  0.
     999903    2    3    3    0    0  0.35886379491E-01 -0.43147449346E-01 -0.12302402547E+00  0.14223501064E+00  0.44117488499E-01 0.  0.
         14    1    1    2    0    0 -0.68473583683E-02  0.76547619087E-02  0.80143219272E-02  0.13027319465E-01  0.00000000000E+00 0. -1.
     999901    1    3    3    0    0 -0.29039021123E-01  0.35492687438E-01  0.11500970354E+00  0.88866766990E+00  0.88000000000E+00 0.  1.
        -11    1    4    4    0    0  0.16249431270E-01 -0.88783495604E-02 -0.72223678013E-02  0.19881972366E-01  0.51100000000E-03 0.  1.
         11    1    4    4    0    0  0.19636948221E-01 -0.34269099786E-01 -0.11580165767E+00  0.12235303827E+00  0.51100000000E-03 0. -1.
</event>
<event>
 8    1  0.2091070E+004  0.1043930E+01  0.7957747E-01            NaN
         13   -1    0    0    0    0  0.00000000000E+00  0.00000000000E+00  0.74505805969E-08  0.10566000000E+00  0.10566000000E+00 0.  1.
     999900   -1    0    0    0    0 -0.00000000000E+00 -0.00000000000E+00 -0.74505805969E-08  0.93827000000E+00  0.93827000000E+00 0. -1.
     999902    2    1    2    0    0  0.46152322645E-02 -0.13306458669E-01  0.87525669765E-02  0.10273477915E+01  0.10272139577E+01 0.  0.
     999903    2    3    3    0    0  0.63138101810E-01  0.16647636520E-02 -0.11296892517E+00  0.13691801579E+00  0.44669605513E-01 0.  0.
         14    1    1    2    0    0 -0.46152322645E-02  0.13306458669E-01 -0.87525669765E-02  0.16582208534E-01  0.00000000000E+00 0.  1.
     999901    1    3    3    0    0 -0.58522869545E-01 -0.14971222321E-01  0.12172149214E+00  0.89042977567E+00  0.88000000000E+00 0.  1.
        -11    1    4    4    0    0  0.35064140032E-01  0.14879903906E-01 -0.91694943392E-01  0.99293147906E-01  0.51100000000E-03 0.  1.
         11    1    4    4    0    0  0.28073961777E-01 -0.13215140254E-01 -0.21273981776E-01  0.37624867886E-01  0.51100000000E-03 0. -1.
</event>
<event>
 8    1  0.2091070E+004  0.1043930E+01  0.7957747E-01            NaN
         13   -1    0    0    0    0  0.00000000000E+00  0.00000000000E+00  0.74505805969E-08  0.10566000000E+00  0.10566000000E+00 0. -1.
     999900   -1    0    0    0    0 -0.00000000000E+00 -0.00000000000E+00 -0.74505805969E-08  0.93827000000E+00  0.93827000000E+00 0.  1.
     999902    2    1    2    0    0  0.91490832776E-02 -0.49590899075E-02 -0.56862044137E-02  0.10320711966E+01  0.10320030638E+01 0.  0.
     999903    2    3    3    0    0  0.68310856785E-02 -0.11343426138E+00 -0.69576284672E-01  0.14310877990E+00  0.52204100498E-01 0.  0.
         14    1    1    2    0    0 -0.91490832776E-02  0.49590899075E-02  0.56862044137E-02  0.11858803404E-01  0.00000000000E+00 0.  1.
     999901    1    3    3    0    0  0.23179975991E-02  0.10847517148E+00  0.63890080258E-01  0.88896241669E+00  0.88000000000E+00 0. -1.
        -11    1    4    4    0    0 -0.14459376173E-01 -0.95057152636E-01 -0.46915916524E-01  0.10698738323E+00  0.51100000000E-03 0.  1.
         11    1    4    4    0    0  0.21290461851E-01 -0.18377108749E-01 -0.22660368148E-01  0.36121396670E-01  0.51100000000E-03 0. -1.
</event>
<event>
 8    1  0.2091070E+004  0.1043930E+01  0.7957747E-01            NaN
         13   -1    0    0    0    0  0.00000000000E+00  0.00000000000E+00  0.74505805969E-08  0.10566000000E+00  0.10566000000E+00 0. -1.
     999900   -1    0    0    0    0 -0.00000000000E+00 -0.00000000000E+00 -0.74505805969E-08  0.93827000000E+00  0.93827000000E+00 0. -1.
     999902    2    1    2    0    0 -0.39079503101E-02  0.10759314973E-01 -0.77458330129E-02  0.10301085361E+01  0.10300158073E+01 0.  0.
     999903    2    3    3    0    0  0.97732166708E-01  0.89907608277E-01 -0.12579873788E-01  0.14071630901E+00  0.44809284320E-01 0.  0.
         14    1    1    2    0    0  0.39079503101E-02 -0.10759314973E-01  0.77458330129E-02  0.13821463865E-01  0.00000000000E+00 0.  1.
     999901    1    3    3    0    0 -0.10164011702E+00 -0.79148293304E-01  0.48340407756E-02  0.88939222713E+00  0.88000000000E+00 0.  1.
        -11    1    4    4    0    0  0.10754391031E-01  0.25239800303E-01  0.11393570610E-01  0.29711597366E-01  0.51100000000E-03 0.  1.
         11    1    4    4    0    0  0.86977775677E-01  0.64667807974E-01 -0.23973444398E-01  0.11100471164E+00  0.51100000000E-03 0. -1.
</event>
<event>
 8    1  0.2091070E+004  0.1043930E+01  0.7957747E-01            NaN
         13   -1    0    0    0    0  0.00000000000E+00  0.00000000000E+00  0.74505805969E-08  0.10566000000E+00  0.10566000000E+00 0. -1.
     999900   -1    0    0    0    0 -0.00000000000E+00 -0.00000000000E+00 -0.74505805969E-08  0.93827000000E+00  0.93827000000E+00 0. -1.
     999902    2    1    2    0    0 -0.64069470711E-02 -0.35552388091E-02  0.11818023932E-01  0.10300248073E+01  0.10299309440E+01 0.  0.
     999903    2    3    3    0    0 -0.22419509726E-01  0.39219225623E-01  0.12668092133E+00  0.14138565549E+00  0.43601211838E-01 0.  0.
         14    1    1    2    0    0  0.64069470711E-02  0.35552388091E-02 -0.11818023932E-01  0.13905192678E-01  0.00000000000E+00 0.  1.
     999901    1    3    3    0    0  0.16012562655E-01 -0.42774464432E-01 -0.11486289740E+00  0.88863915183E+00  0.88000000000E+00 0. -1.
        -11    1    4    4    0    0 -0.76746116578E-02 -0.28223752319E-02  0.63775340088E-01  0.64299460265E-01  0.51100000000E-03 0. -1.
         11    1    4    4    0    0 -0.14744898068E-01  0.42041600855E-01  0.62905581244E-01  0.77086195224E-01  0.51100000000E-03 0.  1.
</event>
<event>
 8    1  0.2091070E+004  0.1043930E+01  0.7957747E-01            NaN
         13   -1    0    0    0    0  0.00000000000E+00  0.00000000000E+00  0.74505805969E-08  0.10566000000E+00  0.10566000000E+00 0.  1.
     999900   -1    0    0    0    0 -0.00000000000E+00 -0.00000000000E+00 -0.74505805969E-08  0.93827000000E+00  0.93827000000E+00 0.  1.
     999902    2    1    2    0    0 -0.45941413980E-03  0.13134362814E-01  0.37265968817E-02  0.10302694703E+01  0.10301789026E+01 0.  0.
     999903    2    3    3    0    0  0.67641004237E-01  0.60806747513E-01  0.98382964687E-01  0.14129806961E+00  0.44868371237E-01 0.  0.
         14    1    1    2    0    0  0.45941413980E-03 -0.13134362814E-01 -0.37265968817E-02  0.13660529719E-01  0.00000000000E+00 0.  1.
     999901    1    3    3    0    0 -0.68100418376E-01 -0.47672384699E-01 -0.94656367806E-01  0.88897140067E+00  0.88000000000E+00 0.  1.
        -11    1    4    4    0    0  0.31690976053E-01  0.37323728097E-01  0.81656182309E-01  0.95212246442E-01  0.51100000000E-03 0. -1.
         11    1    4    4    0    0  0.35950028183E-01  0.23483019416E-01  0.16726782378E-01  0.46085823167E-01  0.51100000000E-03 0.  1.
</event>
<event>
 8    1  0.2091070E+004  0.1043930E+01  0.7957747E-01            NaN
         13   -1    0    0    0    0  0.00000000000E+00  0.00000000000E+00  0.74505805969E-08  0.10566000000E+00  0.10566000000E+00 0.  1.
     999900   -1    0    0    0    0 -0.00000000000E+00 -0.00000000000E+00 -0.74505805969E-08  0.93827000000E+00  0.93827000000E+00 0.  1.
     999902    2    1    2    0    0 -0.96958065017E-02  0.15905840273E-04  0.99469285419E-02  0.10300393447E+01  0.10299456788E+01 0.  0.
     999903    2    3    3    0    0  0.64303965894E-01 -0.73902169772E-01 -0.86276990968E-01  0.13863657890E+00  0.46688875690E-01 0.  0.
         14    1    1    2    0    0  0.96958065017E-02 -0.15905840273E-04 -0.99469285419E-02  0.13890655281E-01  0.00000000000E+00 0. -1.
     999901    1    3    3    0    0 -0.73999772395E-01  0.73918075612E-01  0.96223919510E-01  0.89140276581E+00  0.88000000000E+00 0. -1.
        -11    1    4    4    0    0  0.39207326003E-01 -0.31593688661E-01 -0.71154769499E-01  0.87170166450E-01  0.51100000000E-03 0. -1.
         11    1    4    4    0    0  0.25096639890E-01 -0.42308481111E-01 -0.15122221469E-01  0.51466412454E-01  0.51100000000E-03 0.  1.
</event>
<event>
 8    1  0.2091070E+004  0.1043930E+01  0.7957747E-01            NaN
         13   -1    0    0    0    0  0.00000000000E+00  0.00000000000E+00  0.74505805969E-08  0.10566000000E+00  0.10566000000E+00 0.  1.
     999900   -1    0    0    0    0 -0.00000000000E+00 -0.00000000000E+00 -0.74505805969E-08  0.93827000000E+00  0.93827000000E+00 0. -1.
     999902    2    1    2    0    0  0.41576661392E-02 -0.12249573967E-02 -0.14204727475E-01  0.10290787041E+01  0.10289715342E+01 0.  0.
     999903    2    3    3    0    0  0.78254299514E-01 -0.96934260078E-01  0.40684020219E-01  0.13909929064E+00  0.46620134979E-01 0.  0.
         14    1    1    2    0    0 -0.41576661392E-02  0.12249573967E-02  0.14204727475E-01  0.14851295937E-01  0.00000000000E+00 0.  1.
     999901    1    3    3    0    0 -0.74096633375E-01  0.95709302681E-01 -0.54888747694E-01  0.88997941343E+00  0.88000000000E+00 0. -1.
        -11    1    4    4    0    0  0.18982532169E-01 -0.57611434084E-01  0.93681164861E-02  0.61379447637E-01  0.51100000000E-03 0. -1.
         11    1    4    4    0    0  0.59271767346E-01 -0.39322825994E-01  0.31315903733E-01  0.77719843001E-01  0.51100000000E-03 0.  1.
</event>
<event>
 8    1  0.2091070E+004  0.1043930E+01  0.7957747E-01            NaN
         13   -1    0    0    0    0  0.00000000000E+00  0.00000000000E+00  0.74505805969E-08  0.10566000000E+00  0.10566000000E+00 0. -1.
     999900   -1    0    0    0    0 -0.00000000000E+00 -0.00000000000E+00 -0.74505805969E-08  0.93827000000E+00  0.93827000000E+00 0. -1.
     999902    2    1    2    0    0  0.95576440718E-02  0.37210727739E-02 -0.89176957824E-02  0.10303388175E+01  0.10302491731E+01 0.  0.
     999903    2    3    3    0    0  0.12902059099E+00 -0.31367670307E-01 -0.18098954232E-01  0.14152673892E+00  0.45519249191E-01 0.  0.
         14    1    1    2    0    0 -0.95576440718E-02 -0.37210727739E-02  0.89176957824E-02  0.13591182467E-01  0.00000000000E+00 0. -1.
     999901    1    3    3    0    0 -0.11946294691E+00  0.35088743081E-01  0.91812584495E-02  0.88881207861E+00  0.88000000000E+00 0. -1.
        -11    1    4    4    0    0  0.11006386819E+00 -0.42825569790E-01 -0.17230610500E-01  0.11935342295E+00  0.51100000000E-03 0.  1.
         11    1    4    4    0    0  0.18956722791E-01  0.11457899483E-01 -0.86834373182E-03  0.22173315976E-01  0.51100000000E-03 0. -1.
</event>
<event>
 8    1  0.2091070E+004  0.1043930E+01  0.7957747E-01            NaN
         13   -1    0    0    0    0  0.00000000000E+00  0.00000000000E+00  0.74505805969E-08  0.10566000000E+00  0.10566000000E+00 0.  1.
     999900   -1    0    0    0    0 -0.00000000000E+00 -0.00000000000E+00 -0.74505805969E-08  0.93827000000E+00  0.93827000000E+00 0. -1.
     999902    2    1    2    0    0  0.10808557076E-01 -0.14082718891E-02  0.88186162239E-02  0.10299094391E+01  0.10298140010E+01 0.  0.
     999903    2    3    3    0    0  0.31437021742E-01 -0.84541267037E-01 -0.98600611068E-01  0.13924928010E+00  0.39150598182E-01 0.  0.
         14    1    1    2    0    0 -0.10808557076E-01  0.14082718891E-02 -0.88186162239E-02  0.14020560898E-01  0.00000000000E+00 0. -1.
     999901    1    3    3    0    0 -0.20628464666E-01  0.83132995148E-01  0.10741922729E+00  0.89066015900E+00  0.88000000000E+00 0.  1.
        -11    1    4    4    0    0  0.27026756613E-01 -0.69126177779E-01 -0.98338403388E-01  0.12320542492E+00  0.51100000000E-03 0.  1.
         11    1    4    4    0    0  0.44102651294E-02 -0.15415089258E-01 -0.26220768050E-03  0.16043855185E-01  0.51100000000E-03 0. -1.
</event>
<event>
 8    1  0.2091070E+004  0.1043930E+01  0.7957747E-01            NaN
         13   -1    0    0    0    0  0.00000000000E+00  0.00000000000E+00  0.74505805969E-08  0.10566000000E+00  0.10566000000E+00 0.  1.
     999900   -1    0    0    0    0 -0.00000000000E+00 -0.00000000000E+00 -0.74505805969E-08  0.93827000000E+00  0.93827000000E+00 0. -1.
     999902    2    1    2    0    0 -0.12113878297E-01  0.77486756616E-02 -0.26094312803E-03  0.10295475067E+01  0.10294470421E+01 0.  0.
     999903    2    3    3    0    0  0.10704482687E+00 -0.65654576844E-01 -0.36022647309E-01  0.13777077794E+00  0.43749716740E-01 0.  0.
         14    1    1    2    0    0  0.12113878297E-01 -0.77486756616E-02  0.26094312803E-03  0.14382493290E-01  0.00000000000E+00 0.  1.
     999901    1    3    3    0    0 -0.11915870516E+00  0.73403252506E-01  0.35761704181E-01  0.89177672877E+00  0.88000000000E+00 0.  1.
        -11    1    4    4    0    0  0.38164696682E-01 -0.32256741886E-01 -0.35357176365E-01  0.61216276524E-01  0.51100000000E-03 0.  1.
         11    1    4    4    0    0  0.68880130184E-01 -0.33397834959E-01 -0.66547094406E-03  0.76554501414E-01  0.51100000000E-03 0. -1.
</event>
<event>
 8    1  0.2091070E+004  0.1043930E+01  0.7957747E-01            NaN
         13   -1    0    0    0    0  0.00000000000E+00  0.00000000000E+00  0.74505805969E-08  0.10566000000E+00  0.10566000000E+00 0.  1.
     999900   -1    0    0    0    0 -0.00000000000E+00 -0.00000000000E+00 -0.74505805969E-08  0.93827000000E+00  0.93827000000E+00 0. -1.
     999902    2    1    2    0    0  0.37647545349E-02  0.84789180453E-02  0.13340096061E-01  0.10276811972E+01  0.10275527332E+01 0.  0.
     999903    2    3    3    0    0  0.27799769151E-02 -0.62024162098E-01  0.11586203834E+00  0.13892791160E+00  0.44969186531E-01 0.  0.
         14    1    1    2    0    0 -0.37647545349E-02 -0.84789180453E-02 -0.13340096061E-01  0.16248802751E-01  0.00000000000E+00 0. -1.
     999901    1    3    3    0    0  0.98477761974E-03  0.70503080144E-01 -0.10252194228E+00  0.88875328565E+00  0.88000000000E+00 0. -1.
        -11    1    4    4    0    0 -0.24683572439E-02 -0.17065216221E-01  0.78087066964E-01  0.79969778918E-01  0.51100000000E-03 0.  1.
         11    1    4    4    0    0  0.52483341590E-02 -0.44958945877E-01  0.37774971380E-01  0.58958132685E-01  0.51100000000E-03 0. -1.
</event>
<event>
 8    1  0.2091070E+004  0.1043930E+01  0.7957747E-01            NaN
         13   -1    0    0    0    0  0.00000000000E+00  0.00000000000E+00  0.74505805969E-08  0.10566000000E+00  0.10566000000E+00 0. -1.
     999900   -1    0    0    0    0 -0.00000000000E+00 -0.00000000000E+00 -0.74505805969E-08  0.93827000000E+00  0.93827000000E+00 0.  1.
     999902    2    1    2    0    0  0.49134755385E-02  0.12587358280E-01  0.23314921520E-02  0.10302179729E+01  0.10301267165E+01 0.  0.
     999903    2    3    3    0    0  0.62335235037E-01  0.11572395356E-01  0.11754903556E+00  0.14085113585E+00  0.44739969245E-01 0.  0.
         14    1    1    2    0    0 -0.49134755385E-02 -0.12587358280E-01 -0.23314921520E-02  0.13712027056E-01  0.00000000000E+00 0. -1.
     999901    1    3    3    0    0 -0.57421759499E-01  0.10149629243E-02 -0.11521754341E+00  0.88936683709E+00  0.88000000000E+00 0.  1.
        -11    1    4    4    0    0  0.45150224555E-01  0.26724129113E-01  0.95956390018E-01  0.10936458184E+00  0.51100000000E-03 0.  1.
         11    1    4    4    0    0  0.17185010482E-01 -0.15151733758E-01  0.21592645541E-01  0.31486554012E-01  0.51100000000E-03 0. -1.
</event>
<event>
 8    1  0.2091070E+004  0.1043930E+01  0.7957747E-01            NaN
         13   -1    0    0    0    0  0.00000000000E+00  0.00000000000E+00  0.74505805969E-08  0.10566000000E+00  0.10566000000E+00 0.  1.
     999900   -1    0    0    0    0 -0.00000000000E+00 -0.00000000000E+00 -0.74505805969E-08  0.93827000000E+00  0.93827000000E+00 0. -1.
     999902    2    1    2    0    0 -0.91424519766E-02  0.10071539151E-01  0.12749092124E-01  0.10252870475E+01  0.10251175396E+01 0.  0.
     999903    2    3    3    0    0 -0.80214551727E-01  0.10179541334E+00 -0.84271447538E-02  0.13741715528E+00  0.44897408710E-01 0.  0.
         14    1    1    2    0    0  0.91424519766E-02 -0.10071539151E-01 -0.12749092124E-01  0.18642952529E-01  0.00000000000E+00 0. -1.
     999901    1    3    3    0    0  0.71072099750E-01 -0.91723874191E-01  0.21176236878E-01  0.88786989220E+00  0.88000000000E+00 0. -1.
        -11    1    4    4    0    0 -0.33305057319E-01  0.32316792535E-01 -0.23846109272E-01  0.52177581116E-01  0.51100000000E-03 0. -1.
         11    1    4    4    0    0 -0.46909494408E-01  0.69478620808E-01  0.15418964518E-01  0.85239574159E-01  0.51100000000E-03 0.  1.
</event>
<event>
 8    1  0.2091070E+004  0.1043930E+01  0.7957747E-01            NaN
         13   -1    0    0    0    0  0.00000000000E+00  0.00000000000E+00  0.74505805969E-08  0.10566000000E+00  0.10566000000E+00 0. -1.
     999900   -1    0    0    0    0 -0.00000000000E+00 -0.00000000000E+00 -0.74505805969E-08  0.93827000000E+00  0.93827000000E+00 0.  1.
     999902    2    1    2    0    0 -0.66990755545E-02  0.13249785154E-01  0.23876976712E-02  0.10288921970E+01  0.10287822984E+01 0.  0.
     999903    2    3    3    0    0  0.22245135828E-01  0.12720457953E+00 -0.33840811721E-01  0.14033383230E+00  0.43272772355E-01 0.  0.
         14    1    1    2    0    0  0.66990755545E-02 -0.13249785154E-01 -0.23876976712E-02  0.15037803034E-01  0.00000000000E+00 0. -1.
     999901    1    3    3    0    0 -0.28944211383E-01 -0.11395479438E+00  0.36228509392E-01  0.88855836467E+00  0.88000000000E+00 0. -1.
        -11    1    4    4    0    0  0.34822999645E-02  0.72256317792E-01  0.15025482110E-02  0.72357588725E-01  0.51100000000E-03 0. -1.
         11    1    4    4    0    0  0.18762835864E-01  0.54948261738E-01 -0.35343359932E-01  0.67976243570E-01  0.51100000000E-03 0.  1.
</event>
<event>
 8    1  0.2091070E+004  0.1043930E+01  0.7957747E-01            NaN
         13   -1    0    0    0    0  0.00000000000E+00  0.00000000000E+00  0.74505805969E-08  0.10566000000E+00  0.10566000000E+00 0.  1.
     999900   -1    0    0    0    0 -0.00000000000E+00 -0.00000000000E+00 -0.74505805969E-08  0.93827000000E+00  0.93827000000E+00 0.  1.
     999902    2    1    2    0    0 -0.10659367817E-01  0.69401017158E-02  0.48453576903E-02  0.10303188052E+01  0.10302288948E+01 0.  0.
     999903    2    3    3    0    0 -0.97938022181E-01  0.80112607158E-01  0.42926511443E-01  0.14216231369E+00  0.48554629372E-01 0.  0.
         14    1    1    2    0    0  0.10659367817E-01 -0.69401017158E-02 -0.48453576903E-02  0.13611194849E-01  0.00000000000E+00 0.  1.
     999901    1    3    3    0    0  0.87278654365E-01 -0.73172505442E-01 -0.38081153752E-01  0.88815649147E+00  0.88000000000E+00 0.  1.
        -11    1    4    4    0    0 -0.51182721029E-01  0.31417547515E-01 -0.36110971080E-02  0.60166721426E-01  0.51100000000E-03 0.  1.
         11    1    4    4    0    0 -0.46755301152E-01  0.48695059643E-01  0.46537608551E-01  0.81995592260E-01  0.51100000000E-03 0. -1.
</event>
<event>
 8    1  0.2091070E+004  0.1043930E+01  0.7957747E-01            NaN
         13   -1    0    0    0    0  0.00000000000E+00  0.00000000000E+00  0.74505805969E-08  0.10566000000E+00  0.10566000000E+00 0.  1.
     999900   -1    0    0    0    0 -0.00000000000E+00 -0.00000000000E+00 -0.74505805969E-08  0.93827000000E+00  0.93827000000E+00 0.  1.
     999902    2    1    2    0    0  0.38828332163E-02  0.15097278223E-03  0.16700922357E-01  0.10267829888E+01  0.10266398035E+01 0.  0.
     999903    2    3    3    0    0 -0.60230132261E-01  0.94280999943E-01 -0.61233106445E-01  0.13602788932E+00  0.47302405485E-01 0.  0.
         14    1    1    2    0    0 -0.38828332163E-02 -0.15097278223E-03 -0.16700922357E-01  0.17147011230E-01  0.00000000000E+00 0. -1.
     999901    1    3    3    0    0  0.64112965477E-01 -0.94130027161E-01  0.77934028802E-01  0.89075509945E+00  0.88000000000E+00 0. -1.
        -11    1    4    4    0    0 -0.35094105472E-01  0.83451294308E-01 -0.60032167307E-01  0.10862705461E+00  0.51100000000E-03 0.  1.
         11    1    4    4    0    0 -0.25136026789E-01  0.10829705635E-01 -0.12009391386E-02  0.27400834708E-01  0.51100000000E-03 0. -1.
</event>
<event>
 8    1  0.2091070E+004  0.1043930E+01  0.7957747E-01            NaN
         13   -1    0    0    0    0  0.00000000000E+00  0.00000000000E+00  0.74505805969E-08  0.10566000000E+00  0.10566000000E+00 0.  1.
     999900   -1    0    0    0    0 -0.00000000000E+00 -0.00000000000E+00 -0.74505805969E-08  0.93827000000E+00  0.93827000000E+00 0.  1.
     999902    2    1    2    0    0  0.14147257250E-01  0.18136156342E-02  0.17581586512E-02  0.10295590150E+01  0.10294587122E+01 0.  0.
     999903    2    3    3    0    0 -0.47172934470E-01  0.12138246348E+00  0.21378762969E-01  0.13914234653E+00  0.44097085014E-01 0.  0.
         14    1    1    2    0    0 -0.14147257250E-01 -0.18136156342E-02 -0.17581586512E-02  0.14370985047E-01  0.00000000000E+00 0. -1.
     999901    1    3    3    0    0  0.61320191720E-01 -0.11956884784E+00 -0.19620604318E-01  0.89041666842E+00  0.88000000000E+00 0. -1.
        -11    1    4    4    0    0 -0.27271776277E-01  0.76481177346E-01 -0.85133107356E-02  0.81644704973E-01  0.51100000000E-03 0. -1.
         11    1    4    4    0    0 -0.19901158193E-01  0.44901286129E-01  0.29892073705E-01  0.57497641559E-01  0.51100000000E-03 0.  1.
</event>
<event>
 8    1  0.2091070E+004  0.1043930E+01  0.7957747E-01            NaN
         13   -1    0    0    0    0  0.00000000000E+00  0.00000000000E+00  0.74505805969E-08  0.10566000000E+00  0.10566000000E+00 0.  1.
     999900   -1    0    0    0    0 -0.00000000000E+00 -0.00000000000E+00 -0.74505805969E-08  0.93827000000E+00  0.93827000000E+00 0.  1.
     999902    2    1    2    0    0  0.94676463770E-03 -0.13522663626E-01  0.58319671860E-02  0.10291729462E+01  0.10290671419E+01 0.  0.
     999903    2    3    3    0    0  0.71264926851E-01  0.85370069729E-01 -0.67781632443E-01  0.13780131851E+00  0.45034598719E-01 0.  0.
         14    1    1    2    0    0 -0.94676463770E-03  0.13522663626E-01 -0.58319671860E-02  0.14757053774E-01  0.00000000000E+00 0. -1.
     999901    1    3    3    0    0 -0.70318162213E-01 -0.98892733355E-01  0.73613599629E-01  0.89137162772E+00  0.88000000000E+00 0. -1.
        -11    1    4    4    0    0  0.67164039807E-01  0.60464170314E-01 -0.36161454556E-01  0.97338769519E-01  0.51100000000E-03 0.  1.
         11    1    4    4    0    0  0.41008870442E-02  0.24905899415E-01 -0.31620177887E-01  0.40462548991E-01  0.51100000000E-03 0. -1.
</event>
<event>
 8    1  0.2091070E+004  0.1043930E+01  0.7957747E-01            NaN
         13   -1    0    0    0    0  0.00000000000E+00  0.00000000000E+00  0.74505805969E-08  0.10566000000E+00  0.10566000000E+00 0. -1.
     999900   -1    0    0    0    0 -0.00000000000E+00 -0.00000000000E+00 -0.74505805969E-08  0.93827000000E+00  0.93827000000E+00 0. -1.
     999902    2    1    2    0    0  0.56633775370E-02 -0.59973028643E-02  0.11576165096E-01  0.10297156029E+01  0.10296174890E+01 0.  0.
     999903    2    3    3    0    0 -0.86251245925E-01  0.91080676249E-01  0.39963634393E-01  0.13916617673E+00  0.45112810385E-01 0.  0.
         14    1    1    2    0    0 -0.56633775370E-02  0.59973028643E-02 -0.11576165096E-01  0.14214397107E-01  0.00000000000E+00 0.  1.
     999901    1    3    3    0    0  0.91914623462E-01 -0.97077979113E-01 -0.28387469297E-01  0.89054942617E+00  0.88000000000E+00 0.  1.
        -11    1    4    4    0    0 -0.75542504501E-01  0.58995182659E-01  0.14760273967E-01  0.96980556669E-01  0.51100000000E-03 0. -1.
         11    1    4    4    0    0 -0.10708741425E-01  0.32085493589E-01  0.25203360426E-01  0.42185620057E-01  0.51100000000E-03 0.  1.
</event>
<event>
 7    1  0.2091070E+004  0.1043930E+01  0.7957747E-01            NaN
         13   -1    0    0    0    0  0.00000000000E+00  0.00000000000E+00  0.74505805969E-08  0.10566000000E+00  0.10566000000E+00 0.  1.
     999900   -1    0    0    0    0 -0.00000000000E+00 -0.00000000000E+00 -0.74505805969E-08  0.93827000000E+00  0.93827000000E+00 0.  1.
     999903    2    1    2    0    0 -0.73545994432E-01  0.64223048667E-01 -0.64385387273E-01  0.12531269237E+00  0.44990882375E-01 0.  0.
         14    1    1    2    0    0  0.18326579900E-01  0.56073451111E-02 -0.22862582197E-01  0.29832926687E-01  0.00000000000E+00 0.  1.
     999901    1    1    2    0    0  0.55219414533E-01 -0.69830393778E-01  0.87247969470E-01  0.88878438095E+00  0.88000000000E+00 0. -1.
        -11    1    3    3    0    0 -0.89356525458E-03  0.10075442343E-03 -0.17734288908E-01  0.17764423277E-01  0.51100000000E-03 0.  1.
         11    1    3    3    0    0 -0.72652429178E-01  0.64122294243E-01 -0.46651098365E-01  0.10754826909E+00  0.51100000000E-03 0. -1.
</event>
<event>
 8    1  0.2091070E+004  0.1043930E+01  0.7957747E-01            NaN
         13   -1    0    0    0    0  0.00000000000E+00  0.00000000000E+00  0.74505805969E-08  0.10566000000E+00  0.10566000000E+00 0.  1.
     999900   -1    0    0    0    0 -0.00000000000E+00 -0.00000000000E+00 -0.74505805969E-08  0.93827000000E+00  0.93827000000E+00 0. -1.
     999902    2    1    2    0    0  0.58423658775E-02 -0.53803232800E-02 -0.13557423633E-01  0.10282174301E+01  0.10280973683E+01 0.  0.
     999903    2    3    3    0    0 -0.11034889505E+00  0.28179171459E-01 -0.64466213089E-01  0.13848805907E+00  0.45300171451E-01 0.  0.
         14    1    1    2    0    0 -0.58423658775E-02  0.53803232800E-02  0.13557423633E-01  0.15712569911E-01  0.00000000000E+00 0.  1.
     999901    1    3    3    0    0  0.11619126093E+00 -0.33559494739E-01  0.50908789456E-01  0.88972937101E+00  0.88000000000E+00 0.  1.
        -11    1    4    4    0    0 -0.55819838296E-01  0.88586247438E-02 -0.56798805764E-01  0.80129239588E-01  0.51100000000E-03 0. -1.
         11    1    4    4    0    0 -0.54529056753E-01  0.19320546715E-01 -0.76674073251E-02  0.58358819486E-01  0.51100000000E-03 0.  1.
</event>
<event>
 8    1  0.2091070E+004  0.1043930E+01  0.7957747E-01            NaN
         13   -1    0    0    0    0  0.00000000000E+00  0.00000000000E+00  0.74505805969E-08  0.10566000000E+00  0.10566000000E+00 0.  1.
     999900   -1    0    0    0    0 -0.00000000000E+00 -0.00000000000E+00 -0.74505805969E-08  0.93827000000E+00  0.93827000000E+00 0.  1.
     999902    2    1    2    0    0 -0.10344615292E-01  0.14254972384E-02  0.83889294841E-02  0.10305353277E+01  0.10304482735E+01 0.  0.
     999903    2    3    3    0    0  0.64934982433E-01 -0.11527837921E+00 -0.33717335951E-02  0.13956668303E+00  0.44292592679E-01 0.  0.
         14    1    1    2    0    0  0.10344615292E-01 -0.14254972384E-02 -0.83889294841E-02  0.13394672292E-01  0.00000000000E+00 0. -1.
     999901    1    3    3    0    0 -0.75279597725E-01  0.11670387645E+00  0.11760663079E-01  0.89096864468E+00  0.88000000000E+00 0. -1.
        -11    1    4    4    0    0  0.70914598495E-01 -0.98029122849E-01  0.19111858305E-04  0.12099111824E+00  0.51100000000E-03 0. -1.
         11    1    4    4    0    0 -0.59796160615E-02 -0.17249256362E-01 -0.33908454534E-02  0.18575564788E-01  0.51100000000E-03 0.  1.
</event>
<event>
 7    1  0.2091070E+004  0.1043930E+01  0.7957747E-01            NaN
         13   -1    0    0    0    0  0.00000000000E+00  0.00000000000E+00  0.74505805969E-08  0.10566000000E+00  0.10566000000E+00 0. -1.
     999900   -1    0    0    0    0 -0.00000000000E+00 -0.00000000000E+00 -0.74505805969E-08  0.93827000000E+00  0.93827000000E+00 0.  1.
     999902    2    1    2    0    0  0.52302158827E-02 -0.41219465770E-02 -0.11687431891E-01  0.10304785441E+01  0.10303907454E+01 0.  0.
         14    1    1    2    0    0 -0.52302158827E-02  0.41219465770E-02  0.11687431891E-01  0.13451455905E-01  0.00000000000E+00 0. -1.
     999901    1    3    3    0    0 -0.13375362039E+00 -0.88397709945E-02 -0.22690473723E-01  0.89043979590E+00  0.88000000000E+00 0. -1.
        -11    1    3    3    0    0  0.12172734938E+00  0.80076505643E-02  0.85084429386E-02  0.12228787666E+00  0.51100000000E-03 0.  1.
         11    1    3    3    0    0  0.17256486890E-01 -0.32898261468E-02  0.24945988937E-02  0.17750871542E-01  0.51100000000E-03 0. -1.
</event>
<event>
 8    1  0.2091070E+004  0.1043930E+01  0.7957747E-01            NaN
         13   -1    0    0    0    0  0.00000000000E+00  0.00000000000E+00  0.74505805969E-08  0.10566000000E+00  0.10566000000E+00 0. -1.
     999900   -1    0    0    0    0 -0.00000000000E+00 -0.00000000000E+00 -0.74505805969E-08  0.93827000000E+00  0.93827000000E+00 0.  1.
     999902    2    1    2    0    0 -0.13995482322E-01  0.17323308471E-02 -0.31195873799E-03  0.10298242631E+01  0.10297276538E+01 0.  0.
     999903    2    3    3    0    0  0.86625393062E-02 -0.64593857185E-01  0.11467953896E+00  0.13957958116E+00  0.45647090224E-01 0.  0.
         14    1    1    2    0    0  0.13995482322E-01 -0.17323308471E-02  0.31195873799E-03  0.14105736913E-01  0.00000000000E+00 0.  1.
     999901    1    3    3    0    0 -0.22658021629E-01  0.66326188032E-01 -0.11499149770E+00  0.89024468193E+00  0.88000000000E+00 0.  1.
        -11    1    4    4    0    0 -0.43880871001E-03 -0.22171309818E-01  0.82845104960E-01  0.85763232618E-01  0.51100000000E-03 0.  1.
         11    1    4    4    0    0  0.91013480162E-02 -0.42422547367E-01  0.31834434002E-01  0.53816348538E-01  0.51100000000E-03 0. -1.
</event>
<event>
 8    1  0.2091070E+004  0.1043930E+01  0.7957747E-01            NaN
         13   -1    0    0    0    0  0.00000000000E+00  0.00000000000E+00  0.74505805969E-08  0.10566000000E+00  0.10566000000E+00 0. -1.
     999900   -1    0    0    0    0 -0.00000000000E+00 -0.00000000000E+00 -0.74505805969E-08  0.93827000000E+00  0.93827000000E+00 0.  1.
     999902    2    1    2    0    0 -0.37305152270E-02  0.12920195546E-01 -0.44783059825E-02  0.10297559596E+01  0.10296584059E+01 0.  0.
     999903    2    3    3    0    0 -0.12800193475E+00 -0.29452379775E-01 -0.16811959939E-01  0.13992960583E+00  0.45229576791E-01 0.  0.
         14    1    1    2    0    0  0.37305152270E-02 -0.12920195546E-01  0.44783059825E-02  0.14174040400E-01  0.00000000000E+00 0.  1.
     999901    1    3    3    0    0  0.12427141952E+00  0.42372575321E-01  0.12333653956E-01  0.88982635377E+00  0.88000000000E+00 0.  1.
        -11    1    4    4    0    0 -0.34931581258E-01 -0.28871493511E-01  0.15713709132E-03  0.45321786371E-01  0.51100000000E-03 0. -1.
         11    1    4    4    0    0 -0.93070353488E-01 -0.58088626403E-03 -0.16969097030E-01  0.94607819456E-01  0.51100000000E-03 0.  1.
</event>
<event>
 8    1  0.2091070E+004  0.1043930E+01  0.7957747E-01            NaN
         13   -1    0    0    0    0  0.00000000000E+00  0.00000000000E+00  0.74505805969E-08  0.10566000000E+00  0.10566000000E+00 0. -1.
     999900   -1    0    0    0    0 -0.00000000000E+00 -0.00000000000E+00 -0.74505805969E-08  0.93827000000E+00  0.93827000000E+00 0. -1.
     999902    2    1    2    0    0  0.99259507999E-02  0.29695427197E-02 -0.88365795592E-02  0.10303128115E+01  0.10302228214E+01 0.  0.
     999903    2    3    3    0    0 -0.13057286269E+00  0.15429724064E-02  0.10931871700E-01  0.13894714956E+00  0.46207697581E-01 0.  0.
         14    1    1    2    0    0 -0.99259507999E-02 -0.29695427197E-02  0.88365795592E-02  0.13617188460E-01  0.00000000000E+00 0. -1.
     999901    1    3    3    0    0  0.14049881349E+00  0.14265703133E-02 -0.19768451259E-01  0.89136566198E+00  0.88000000000E+00 0.  1.
        -11    1    4    4    0    0 -0.46355489956E-01 -0.16536839958E-02  0.26230375510E-01  0.53290335336E-01  0.51100000000E-03 0.  1.
         11    1    4    4    0    0 -0.84217372737E-01  0.31966564022E-02 -0.15298503810E-01  0.85656814222E-01  0.51100000000E-03 0. -1.
</event>
<event>
 8    1  0.2091070E+004  0.1043930E+01  0.7957747E-01            NaN
         13   -1    0    0    0    0  0.00000000000E+00  0.00000000000E+00  0.74505805969E-08  0.10566000000E+00  0.10566000000E+00 0. -1.
     999900   -1    0    0    0    0 -0.00000000000E+00 -0.00000000000E+00 -0.74505805969E-08  0.93827000000E+00  0.93827000000E+00 0. -1.
     999902    2    1    2    0    0 -0.87031620151E-02  0.89293801912E-02 -0.10776278503E-01  0.10274494952E+01  0.10273173113E+01 0.  0.
     999903    2    3    3    0    0  0.10254911913E+00 -0.78066305468E-01 -0.10900740329E-01  0.13618896379E+00  0.42637282202E-01 0.  0.
         14    1    1    2    0    0  0.87031620151E-02 -0.89293801912E-02  0.10776278503E-01  0.16480504787E-01  0.00000000000E+00 0.  1.
     999901    1    3    3    0    0 -0.11125228115E+00  0.86995685660E-01  0.12446182571E-03  0.89126053142E+00  0.88000000000E+00 0.  1.
        -11    1    4    4    0    0  0.28221882205E-01 -0.40023669402E-01 -0.18481310170E-01  0.52346811691E-01  0.51100000000E-03 0.  1.
         11    1    4    4    0    0  0.74327236928E-01 -0.38042636066E-01  0.75805698416E-02  0.83842152098E-01  0.51100000000E-03 0. -1.
</event>
<event>
 8    1  0.2091070E+004  0.1043930E+01  0.7957747E-01            NaN
         13   -1    0    0    0    0  0.00000000000E+00  0.00000000000E+00  0.74505805969E-08  0.10566000000E+00  0.10566000000E+00 0.  1.
     999900   -1    0    0    0    0 -0.00000000000E+00 -0.00000000000E+00 -0.74505805969E-08  0.93827000000E+00  0.93827000000E+00 0. -1.
     999902    2    1    2    0    0  0.68019288546E-03 -0.40550334236E-02  0.13010432833E-01  0.10302853190E+01  0.10301949627E+01 0.  0.
     999903    2    3    3    0    0  0.62008338102E-01 -0.56977946977E-01  0.10496288116E+00  0.14179377204E+00  0.44684974349E-01 0.  0.
         14    1    1    2    0    0 -0.68019288546E-03  0.40550334236E-02 -0.13010432833E-01  0.13644681049E-01  0.00000000000E+00 0. -1.
     999901    1    3    3    0    0 -0.61328145217E-01  0.52922913553E-01 -0.91952448328E-01  0.88849154691E+00  0.88000000000E+00 0. -1.
        -11    1    4    4    0    0 -0.47840191794E-02 -0.16532140585E-01  0.17639657813E-01  0.24649891695E-01  0.51100000000E-03 0.  1.
         11    1    4    4    0    0  0.66792357282E-01 -0.40445806392E-01  0.87323223348E-01  0.11714388035E+00  0.51100000000E-03 0. -1.
</event>
<event>
 8    1  0.2091070E+004  0.1043930E+01  0.7957747E-01            NaN
         13   -1    0    0    0    0  0.00000000000E+00  0.00000000000E+00  0.74505805969E-08  0.10566000000E+00  0.10566000000E+00 0. -1.
     999900   -1    0    0    0    0 -0.00000000000E+00 -0.00000000000E+00 -0.74505805969E-08  0.93827000000E+00  0.93827000000E+00 0. -1.
     999902    2    1    2    0    0  0.86746959737E-02 -0.59444078061E-02  0.90919073335E-02  0.10300285931E+01  0.10299347812E+01 0.  0.
     999903    2    3    3    0    0  0.76959097856E-01 -0.52592413036E-01  0.96891678398E-01  0.14180137234E+00  0.45066253477E-01 0.  0.
         14    1    1    2    0    0 -0.86746959737E-02  0.59444078061E-02 -0.90919073335E-02  0.13901406884E-01  0.00000000000E+00 0.  1.
     999901    1    3    3    0    0 -0.68284401882E-01  0.46648005230E-01 -0.87799771064E-01  0.88822722078E+00  0.88000000000E+00 0. -1.
        -11    1    4    4    0    0  0.76648441705E-01 -0.32879867788E-01  0.73159631114E-01  0.11094440981E+00  0.51100000000E-03 0. -1.
         11    1    4    4    0    0  0.31065615076E-03 -0.19712545248E-01  0.23732047283E-01  0.30856962531E-01  0.51100000000E-03 0.  1.
</event>
<event>
 8    1  0.2091070E+004  0.1043930E+01  0.7957747E-01            NaN
         13   -1    0    0    0    0  0.00000000000E+00  0.00000000000E+00  0.74505805969E-08  0.10566000000E+00  0.10566000000E+00 0. -1.
     999900   -1    0    0    0    0 -0.00000000000E+00 -0.00000000000E+00 -0.74505805969E-08  0.93827000000E+00  0.93827000000E+00 0. -1.
     999902    2    1    2    0    0  0.60779073960E-02  0.75579065766E-02  0.10001286125E-01  0.10299984303E+01  0.10299042081E+01 0.  0.
     999903    2    3    3    0    0 -0.46295916769E-01 -0.10076585849E+00  0.71745345098E-01  0.13966737707E+00  0.45414882215E-01 0.  0.
         14    1    1    2    0    0 -0.60779073960E-02 -0.75579065766E-02 -0.10001286125E-01  0.13931569699E-01  0.00000000000E+00 0.  1.
     999901    1    3    3    0    0  0.52373824165E-01  0.10832376507E+00 -0.61744058973E-01  0.89033105323E+00  0.88000000000E+00 0. -1.
        -11    1    4    4    0    0 -0.21202483464E-02 -0.71077034978E-03  0.17372510681E-01  0.17523295806E-01  0.51100000000E-03 0. -1.
         11    1    4    4    0    0 -0.44175668423E-01 -0.10005508814E+00  0.54372834416E-01  0.12214408126E+00  0.51100000000E-03 0.  1.
</event>
<event>
 8    1  0.2091070E+004  0.1043930E+01  0.7957747E-01            NaN
         13   -1    0    0    0    0  0.00000000000E+00  0.00000000000E+00  0.74505805969E-08  0.10566000000E+00  0.10566000000E+00 0.  1.
     999900   -1    0    0    0    0 -0.00000000000E+00 -0.00000000000E+00 -0.74505805969E-08  0.93827000000E+00  0.93827000000E+00 0.  1.
     999902    2    1    2    0    0  0.72758469228E-02  0.61850859990E-02 -0.99103207073E-02  0.10301674532E+01  0.10300755186E+01 0.  0.
     999903    2    3    3    0    0  0.10391982058E+00 -0.54652004273E-01 -0.64583766687E-01  0.14110592842E+00  0.44200106727E-01 0.  0.
         14    1    1    2    0    0 -0.72758469228E-02 -0.61850859990E-02  0.99103207073E-02  0.13762546777E-01  0.00000000000E+00 0.  1.
     999901    1    3    3    0    0 -0.96643973655E-01  0.60837090272E-01  0.54673445980E-01  0.88906152481E+00  0.88000000000E+00 0. -1.
        -11    1    4    4    0    0  0.90704869099E-01 -0.28935115515E-01 -0.40472564210E-01  0.10345483924E+00  0.51100000000E-03 0. -1.
         11    1    4    4    0    0  0.13214951479E-01 -0.25716888759E-01 -0.24111202477E-01  0.37651089173E-01  0.51100000000E-03 0.  1.
</event>
<event>
 8    1  0.2091070E+004  0.1043930E+01  0.7957747E-01            NaN
         13   -1    0    0    0    0  0.00000000000E+00  0.00000000000E+00  0.74505805969E-08  0.10566000000E+00  0.10566000000E+00 0.  1.
     999900   -1    0    0    0    0 -0.00000000000E+00 -0.00000000000E+00 -0.74505805969E-08  0.93827000000E+00  0.93827000000E+00 0.  1.
     999902    2    1    2    0    0 -0.11924907480E-01  0.67495235169E-02  0.29958139251E-02  0.10299037964E+01  0.10298082809E+01 0.  0.
     999903    2    3    3    0    0  0.90552168429E-01  0.47567375309E-02  0.95797187230E-01  0.13910773828E+00  0.44176238072E-01 0.  0.
         14    1    1    2    0    0  0.11924907480E-01 -0.67495235169E-02 -0.29958139251E-02  0.14026203592E-01  0.00000000000E+00 0.  1.
     999901    1    3    3    0    0 -0.10247707591E+00  0.19927859860E-02 -0.92801373304E-01  0.89079605812E+00  0.88000000000E+00 0.  1.
        -11    1    4    4    0    0  0.10705249895E-01  0.16912287398E-01  0.16934211432E-01  0.26223204956E-01  0.51100000000E-03 0. -1.
         11    1    4    4    0    0  0.79846918534E-01 -0.12155549867E-01  0.78862975797E-01  0.11288453333E+00  0.51100000000E-03 0.  1.
</event>
<event>
 8    1  0.2207208E+004  0.1043930E+01  0.7957747E-01            NaN
         13   -1    0    0    0    0  0.00000000000E+00  0.00000000000E+00  0.74505805969E-08  0.10566000000E+00  0.10566000000E+00 0.  1.
     999900   -1    0    0    0    0 -0.00000000000E+00 -0.00000000000E+00 -0.74505805969E-08  0.93827000000E+00  0.93827000000E+00 0.  1.
     999902    2    1    2    0    0 -0.89904717797E-02 -0.80814132287E-02 -0.10259103484E-01  0.10280748107E+01  0.10279525424E+01 0.  0.
     999903    2    3    3    0    0 -0.10480387809E+00  0.14466735863E-01 -0.80239574263E-01  0.13982603130E+00  0.43815413304E-01 0.  0.
         14    1    1    2    0    0  0.89904717797E-02  0.80814132287E-02  0.10259103484E-01  0.15855189273E-01  0.00000000000E+00 0.  1.
     999901    1    3    3    0    0  0.95813406310E-01 -0.22548149092E-01  0.69980470779E-01  0.88824877942E+00  0.88000000000E+00 0. -1.
        -11    1    4    4    0    0 -0.65199362505E-01 -0.12622339707E-01 -0.43485410373E-01  0.79382128763E-01  0.51100000000E-03 0. -1.
         11    1    4    4    0    0 -0.39604515585E-01  0.27089075571E-01 -0.36754163891E-01  0.60443902540E-01  0.51100000000E-03 0.  1.
</event>
<event>
 8    1  0.2199182E+004  0.1043930E+01  0.7957747E-01            NaN
         13   -1    0    0    0    0  0.00000000000E+00  0.00000000000E+00  0.74505805969E-08  0.10566000000E+00  0.10566000000E+00 0.  1.
     999900   -1    0    0    0    0 -0.00000000000E+00 -0.00000000000E+00 -0.74505805969E-08  0.93827000000E+00  0.93827000000E+00 0.  1.
     999902    2    1    2    0    0  0.15170950060E-01  0.28821435293E-02  0.93478085163E-03  0.10284594379E+01  0.10283430736E+01 0.  0.
     999903    2    3    3    0    0  0.56364544921E-01 -0.77543727405E-01 -0.90518808817E-01  0.13911755084E+00  0.44385207212E-01 0.  0.
         14    1    1    2    0    0 -0.15170950060E-01 -0.28821435293E-02 -0.93478085163E-03  0.15470562120E-01  0.00000000000E+00 0.  1.
     999901    1    3    3    0    0 -0.41193594861E-01  0.80425870934E-01  0.91453589668E-01  0.88934188704E+00  0.88000000000E+00 0. -1.
        -11    1    4    4    0    0  0.32696551112E-02 -0.38084459177E-01 -0.43763911241E-01  0.58109015854E-01  0.51100000000E-03 0. -1.
         11    1    4    4    0    0  0.53094889810E-01 -0.39459268228E-01 -0.46754897576E-01  0.81008534991E-01  0.51100000000E-03 0.  1.
</event>
<event>
 7    1  0.2091070E+004  0.1043930E+01  0.7957747E-01            NaN
         13   -1    0    0    0    0  0.00000000000E+00  0.00000000000E+00  0.74505805969E-08  0.10566000000E+00  0.10566000000E+00 0.  1.
     999900   -1    0    0    0    0 -0.00000000000E+00 -0.00000000000E+00 -0.74505805969E-08  0.93827000000E+00  0.93827000000E+00 0.  1.
     999903    2    1    2    0    0 -0.52818828032E-01 -0.46452732802E-01 -0.72197253734E-01  0.11054876226E+00  0.45397141008E-01 0.  0.
         14    1    1    2    0    0 -0.48520999593E-02  0.21874700637E-01 -0.38184074078E-01  0.44272665553E-01  0.00000000000E+00 0. -1.
     999901    1    1    2    0    0  0.57670927992E-01  0.24578032165E-01  0.11038132781E+00  0.88910857218E+00  0.88000000000E+00 0. -1.
        -11    1    3    3    0    0 -0.37255183331E-01 -0.17660177336E-01 -0.65092650143E-01  0.77052869980E-01  0.51100000000E-03 0. -1.
         11    1    3    3    0    0 -0.15563644702E-01 -0.28792555466E-01 -0.71046035917E-02  0.33495892284E-01  0.51100000000E-03 0.  1.
</event>
<event>
 8    1  0.2091070E+004  0.1043930E+01  0.7957747E-01            NaN
         13   -1    0    0    0    0  0.00000000000E+00  0.00000000000E+00  0.74505805969E-08  0.10566000000E+00  0.10566000000E+00 0.  1.
     999900   -1    0    0    0    0 -0.00000000000E+00 -0.00000000000E+00 -0.74505805969E-08  0.93827000000E+00  0.93827000000E+00 0. -1.
     999902    2    1    2    0    0  0.19834571757E-02 -0.39671494576E-02 -0.13458809312E-01  0.10297591876E+01  0.10296616786E+01 0.  0.
     999903    2    3    3    0    0  0.52278579958E-01  0.63695378461E-01  0.10190370285E+00  0.13823446761E+00  0.43980134393E-01 0.  0.
         14    1    1    2    0    0 -0.19834571757E-02  0.39671494576E-02  0.13458809312E-01  0.14170812443E-01  0.00000000000E+00 0.  1.
     999901    1    3    3    0    0 -0.50295122783E-01 -0.67662527918E-01 -0.11536251216E+00  0.89152471994E+00  0.88000000000E+00 0.  1.
        -11    1    4    4    0    0  0.45044550817E-01  0.63497968707E-01  0.67398526713E-01  0.10297488098E+00  0.51100000000E-03 0.  1.
         11    1    4    4    0    0  0.72340291418E-02  0.19740975315E-03  0.34505176139E-01  0.35259586635E-01  0.51100000000E-03 0. -1.
</event>
<event>
 8    1  0.2091070E+004  0.1043930E+01  0.7957747E-01            NaN
         13   -1    0    0    0    0  0.00000000000E+00  0.00000000000E+00  0.74505805969E-08  0.10566000000E+00  0.10566000000E+00 0.  1.
     999900   -1    0    0    0    0 -0.00000000000E+00 -0.00000000000E+00 -0.74505805969E-08  0.93827000000E+00  0.93827000000E+00 0.  1.
     999902    2    1    2    0    0 -0.43666785258E-02  0.13911100528E-01  0.28591629734E-03  0.10293468471E+01  0.10292435394E+01 0.  0.
     999903    2    3    3    0    0 -0.25516474039E-01  0.13125645804E+00 -0.88601532549E-02  0.14125850842E+00  0.44677910211E-01 0.  0.
         14    1    1    2    0    0  0.43666785258E-02 -0.13911100528E-01 -0.28591629734E-03  0.14583152861E-01  0.00000000000E+00 0. -1.
     999901    1    3    3    0    0  0.21149795513E-01 -0.11734535751E+00  0.91460695522E-02  0.88808833872E+00  0.88000000000E+00 0. -1.
        -11    1    4    4    0    0 -0.38230920833E-01  0.89687031228E-01 -0.69110680657E-02  0.97741449044E-01  0.51100000000E-03 0.  1.
         11    1    4    4    0    0  0.12714446794E-01  0.41569426811E-01 -0.19490851892E-02  0.43517059376E-01  0.51100000000E-03 0. -1.
</event>
<event>
 8    1  0.2091070E+004  0.1043930E+01  0.7957747E-01            NaN
         13   -1    0    0    0    0  0.00000000000E+00  0.00000000000E+00  0.74505805969E-08  0.10566000000E+00  0.10566000000E+00 0. -1.
     999900   -1    0    0    0    0 -0.00000000000E+00 -0.00000000000E+00 -0.74505805969E-08  0.93827000000E+00  0.93827000000E+00 0.  1.
     999902    2    1    2    0    0 -0.10370939656E-01 -0.87243892755E-02  0.78913571594E-03  0.10303545040E+01  0.10302650677E+01 0.  0.
     999903    2    3    3    0    0 -0.53222097894E-01  0.25885044213E-01 -0.11918695988E+00  0.14050715853E+00  0.45101030767E-01 0.  0.
         14    1    1    2    0    0  0.10370939656E-01  0.87243892755E-02 -0.78913571594E-03  0.13575496041E-01  0.00000000000E+00 0.  1.
     999901    1    3    3    0    0  0.42851158238E-01 -0.34609433488E-01  0.11997609559E+00  0.88984734543E+00  0.88000000000E+00 0. -1.
        -11    1    4    4    0    0 -0.14896549578E-01  0.15957841104E-01 -0.93536915252E-02  0.23755263589E-01  0.51100000000E-03 0.  1.
         11    1    4    4    0    0 -0.38325548316E-01  0.99272031087E-02 -0.10983326835E+00  0.11675189494E+00  0.51100000000E-03 0. -1.
</event>
<event>
 8    1  0.2091070E+004  0.1043930E+01  0.7957747E-01            NaN
         13   -1    0    0    0    0  0.00000000000E+00  0.00000000000E+00  0.74505805969E-08  0.10566000000E+00  0.10566000000E+00 0. -1.
     999900   -1    0    0    0    0 -0.00000000000E+00 -0.00000000000E+00 -0.74505805969E-08  0.93827000000E+00  0.93827000000E+00 0.  1.
     999902    2    1    2    0    0 -0.11049703214E-01 -0.70946692881E-02  0.31391848161E-02  0.10304287128E+01  0.10303402581E+01 0.  0.
     999903    2    3    3    0    0 -0.42073043198E-01  0.12563936190E+00 -0.52446907316E-02  0.13989456975E+00  0.44582436472E-01 0.  0.
         14    1    1    2    0    0  0.11049703214E-01  0.70946692881E-02 -0.31391848161E-02  0.13501287151E-01  0.00000000000E+00 0.  1.
     999901    1    3    3    0    0  0.31023339984E-01 -0.13273403119E+00  0.83838755478E-02  0.89053414310E+00  0.88000000000E+00 0. -1.
        -11    1    4    4    0    0 -0.36979451847E-01  0.55346715882E-01  0.11254019763E-01  0.67510391050E-01  0.51100000000E-03 0. -1.
         11    1    4    4    0    0 -0.50935913512E-02  0.70292646017E-01 -0.16498710494E-01  0.72384178699E-01  0.51100000000E-03 0.  1.
</event>
<event>
 8    1  0.2091070E+004  0.1043930E+01  0.7957747E-01            NaN
         13   -1    0    0    0    0  0.00000000000E+00  0.00000000000E+00  0.74505805969E-08  0.10566000000E+00  0.10566000000E+00 0. -1.
     999900   -1    0    0    0    0 -0.00000000000E+00 -0.00000000000E+00 -0.74505805969E-08  0.93827000000E+00  0.93827000000E+00 0.  1.
     999902    2    1    2    0    0 -0.92696144840E-02 -0.59536653043E-02 -0.85162652047E-02  0.10300052502E+01  0.10299111208E+01 0.  0.
     999903    2    3    3    0    0 -0.93350940661E-01 -0.83465206827E-01  0.47276837491E-01  0.14085364404E+00  0.43861267677E-01 0.  0.
         14    1    1    2    0    0  0.92696144840E-02  0.59536653043E-02  0.85162652047E-02  0.13924749774E-01  0.00000000000E+00 0. -1.
     999901    1    3    3    0    0  0.84081326177E-01  0.77511541523E-01 -0.55793102695E-01  0.88915160619E+00  0.88000000000E+00 0.  1.
        -11    1    4    4    0    0 -0.24296978341E-01 -0.50539001248E-01  0.22705428630E-01  0.60500672839E-01  0.51100000000E-03 0. -1.
         11    1    4    4    0    0 -0.69053962320E-01 -0.32926205579E-01  0.24571408860E-01  0.80352971198E-01  0.51100000000E-03 0.  1.
</event>
<event>
 8    1  0.2091070E+004  0.1043930E+01  0.7957747E-01            NaN
         13   -1    0    0    0    0  0.00000000000E+00  0.00000000000E+00  0.74505805969E-08  0.10566000000E+00  0.10566000000E+00 0.  1.
     999900   -1    0    0    0    0 -0.00000000000E+00 -0.00000000000E+00 -0.74505805969E-08  0.93827000000E+00  0.93827000000E+00 0.  1.
     999902    2    1    2    0    0  0.80863210019E-02 -0.95498367299E-02 -0.57321343229E-02  0.10301660858E+01  0.10300741328E+01 0.  0.
     999903    2    3    3    0    0 -0.71830202879E-01  0.50412473579E-01 -0.99257513379E-01  0.13958811286E+00  0.43952152973E-01 0.  0.
         14    1    1    2    0    0 -0.80863210019E-02  0.95498367299E-02  0.57321343229E-02  0.13763914153E-01  0.00000000000E+00 0.  1.
     999901    1    3    3    0    0  0.79916523881E-01 -0.59962310309E-01  0.93525379056E-01  0.89057797299E+00  0.88000000000E+00 0.  1.
        -11    1    4    4    0    0 -0.49549958914E-01  0.34772976258E-01 -0.35299258721E-01  0.70076080752E-01  0.51100000000E-03 0. -1.
         11    1    4    4    0    0 -0.22280243964E-01  0.15639497321E-01 -0.63958254658E-01  0.69512032106E-01  0.51100000000E-03 0.  1.
</event>
<event>
 8    1  0.2091070E+004  0.1043930E+01  0.7957747E-01            NaN
         13   -1    0    0    0    0  0.00000000000E+00  0.00000000000E+00  0.74505805969E-08  0.10566000000E+00  0.10566000000E+00 0.  1.
     999900   -1    0    0    0    0 -0.00000000000E+00 -0.00000000000E+00 -0.74505805969E-08  0.93827000000E+00  0.93827000000E+00 0.  1.
     999902    2    1    2    0    0  0.42270427647E-02 -0.12048880327E-01  0.82292598111E-02  0.10287390776E+01  0.10286269127E+01 0.  0.
     999903    2    3    3    0    0 -0.52428681018E-01  0.85227734860E-01 -0.83909195100E-01  0.13679619498E+00  0.40742024457E-01 0.  0.
         14    1    1    2    0    0 -0.42270427647E-02  0.12048880327E-01 -0.82292598111E-02  0.15190922444E-01  0.00000000000E+00 0.  1.
     999901    1    3    3    0    0  0.56655723782E-01 -0.97276615186E-01  0.92138454911E-01  0.89194288257E+00  0.88000000000E+00 0. -1.
        -11    1    4    4    0    0 -0.17761058220E-01  0.65487942263E-01 -0.57591552303E-01  0.89000976335E-01  0.51100000000E-03 0.  1.
         11    1    4    4    0    0 -0.34667622798E-01  0.19739792597E-01 -0.26317642797E-01  0.47795218648E-01  0.51100000000E-03 0. -1.
</event>
<event>
 8    1  0.2091070E+004  0.1043930E+01  0.7957747E-01            NaN
         13   -1    0    0    0    0  0.00000000000E+00  0.00000000000E+00  0.74505805969E-08  0.10566000000E+00  0.10566000000E+00 0. -1.
     999900   -1    0    0    0    0 -0.00000000000E+00 -0.00000000000E+00 -0.74505805969E-08  0.93827000000E+00  0.93827000000E+00 0. -1.
     999902    2    1    2    0    0 -0.11031702986E-02  0.44239056957E-02 -0.13044059522E-01  0.10301120618E+01  0.10300193807E+01 0.  0.
     999903    2    3    3    0    0 -0.42751576173E-01  0.55689285801E-01 -0.11477538377E+00  0.14179230452E+00  0.44751257883E-01 0.  0.
         14    1    1    2    0    0  0.11031702986E-02 -0.44239056957E-02  0.13044059522E-01  0.13817938165E-01  0.00000000000E+00 0. -1.
     999901    1    3    3    0    0  0.41648405874E-01 -0.51265380106E-01  0.10173132425E+00  0.88831975732E+00  0.88000000000E+00 0.  1.
        -11    1    4    4    0    0 -0.34473798788E-01  0.20651344609E-01 -0.88563649047E-01  0.97255857873E-01  0.51100000000E-03 0.  1.
         11    1    4    4    0    0 -0.82777773844E-02  0.35037941193E-01 -0.26211734723E-01  0.44536446644E-01  0.51100000000E-03 0. -1.
</event>
<event>
 8    1  0.2091070E+004  0.1043930E+01  0.7957747E-01            NaN
         13   -1    0    0    0    0  0.00000000000E+00  0.00000000000E+00  0.74505805969E-08  0.10566000000E+00  0.10566000000E+00 0. -1.
     999900   -1    0    0    0    0 -0.00000000000E+00 -0.00000000000E+00 -0.74505805969E-08  0.93827000000E+00  0.93827000000E+00 0. -1.
     999902    2    1    2    0    0 -0.11808963591E-01 -0.73182721190E-02  0.21440137625E-02  0.10298727768E+01  0.10297768355E+01 0.  0.
     999903    2    3    3    0    0 -0.39264715825E-01  0.67076678491E-01 -0.10651583758E+00  0.13965067517E+00  0.45996616353E-01 0.  0.
         14    1    1    2    0    0  0.11808963591E-01  0.73182721190E-02 -0.21440137625E-02  0.14057223158E-01  0.00000000000E+00 0. -1.
     999901    1    3    3    0    0  0.27455752234E-01 -0.74394950610E-01  0.10865985134E+00  0.89022210167E+00  0.88000000000E+00 0.  1.
        -11    1    4    4    0    0 -0.67201993910E-02  0.40425671526E-01 -0.25237368487E-01  0.48130882885E-01  0.51100000000E-03 0. -1.
         11    1    4    4    0    0 -0.32544516434E-01  0.26651006965E-01 -0.81278469088E-01  0.91519792288E-01  0.51100000000E-03 0.  1.
</event>
<event>
 8    1  0.2091070E+004  0.1043930E+01  0.7957747E-01            NaN
         13   -1    0    0    0    0  0.00000000000E+00  0.00000000000E+00  0.74505805969E-08  0.10566000000E+00  0.10566000000E+00 0. -1.
     999900   -1    0    0    0    0 -0.00000000000E+00 -0.00000000000E+00 -0.74505805969E-08  0.93827000000E+00  0.93827000000E+00 0.  1.
     999902    2    1    2    0    0  0.12749921978E-01  0.38845375200E-02 -0.24747403192E-02  0.10303736553E+01  0.10302844729E+01 0.  0.
     999903    2    3    3    0    0  0.30810781774E-01 -0.12495797312E+00  0.34714446136E-01  0.14003123645E+00  0.42893532024E-01 0.  0.
         14    1    1    2    0    0 -0.12749921978E-01 -0.38845375200E-02  0.24747403192E-02  0.13556344708E-01  0.00000000000E+00 0.  1.
     999901    1    3    3    0    0 -0.18060859796E-01  0.12884251064E+00 -0.37189186456E-01  0.89034241885E+00  0.88000000000E+00 0. -1.
        -11    1    4    4    0    0 -0.87208512668E-02 -0.39640019510E-01  0.18510155177E-01  0.44612457444E-01  0.51100000000E-03 0. -1.
         11    1    4    4    0    0  0.39531633041E-01 -0.85317953615E-01  0.16204290959E-01  0.95418779003E-01  0.51100000000E-03 0.  1.
</event>
<event>
 8    1  0.2091070E+004  0.1043930E+01  0.7957747E-01            NaN
         13   -1    0    0    0    0  0.00000000000E+00  0.00000000000E+00  0.74505805969E-08  0.10566000000E+00  0.10566000000E+00 0.  1.
     999900   -1    0    0    0    0 -0.00000000000E+00 -0.00000000000E+00 -0.74505805969E-08  0.93827000000E+00  0.93827000000E+00 0.  1.
     999902    2    1    2    0    0 -0.10180574342E-01 -0.90752964834E-02  0.49978071432E-02  0.10294047401E+01  0.10293022567E+01 0.  0.
     999903    2    3    3    0    0  0.58866412361E-01  0.11636627671E+00  0.10319278824E-02  0.13782254931E+00  0.44582792246E-01 0.  0.
         14    1    1    2    0    0  0.10180574342E-01  0.90752964834E-02 -0.49978071432E-02  0.14525259944E-01  0.00000000000E+00 0.  1.
     999901    1    3    3    0    0 -0.69046986704E-01 -0.12544157319E+00  0.39658792608E-02  0.89158219075E+00  0.88000000000E+00 0.  1.
        -11    1    4    4    0    0  0.64496814449E-01  0.10760760891E+00 -0.53997995453E-02  0.12557330738E+00  0.51100000000E-03 0.  1.
         11    1    4    4    0    0 -0.56304020877E-02  0.87586677942E-02  0.64317274277E-02  0.12249241932E-01  0.51100000000E-03 0. -1.
</event>
<event>
 8    1  0.2091070E+004  0.1043930E+01  0.7957747E-01            NaN
         13   -1    0    0    0    0  0.00000000000E+00  0.00000000000E+00  0.74505805969E-08  0.10566000000E+00  0.10566000000E+00 0. -1.
     999900   -1    0    0    0    0 -0.00000000000E+00 -0.00000000000E+00 -0.74505805969E-08  0.93827000000E+00  0.93827000000E+00 0. -1.
     999902    2    1    2    0    0  0.67754821646E-02  0.91397919118E-02  0.80960135614E-02  0.10299661757E+01  0.10298715136E+01 0.  0.
     999903    2    3    3    0    0  0.38328101585E-01 -0.12399410661E+00 -0.19336936910E-01  0.13897079435E+00  0.45775350468E-01 0.  0.
         14    1    1    2    0    0 -0.67754821646E-02 -0.91397919118E-02 -0.80960135614E-02  0.13963824345E-01  0.00000000000E+00 0.  1.
     999901    1    3    3    0    0 -0.31552619420E-01  0.13313389852E+00  0.27432950472E-01  0.89099538130E+00  0.88000000000E+00 0.  1.
        -11    1    4    4    0    0  0.55159373734E-02 -0.53622620553E-01  0.12019144765E-01  0.55231621033E-01  0.51100000000E-03 0. -1.
         11    1    4    4    0    0  0.32812164212E-01 -0.70371486053E-01 -0.31356081676E-01  0.83739173322E-01  0.51100000000E-03 0.  1.
</event>
<event>
 8    1  0.2091070E+004  0.1043930E+01  0.7957747E-01            NaN
         13   -1    0    0    0    0  0.00000000000E+00  0.00000000000E+00  0.74505805969E-08  0.10566000000E+00  0.10566000000E+00 0. -1.
     999900   -1    0    0    0    0 -0.00000000000E+00 -0.00000000000E+00 -0.74505805969E-08  0.93827000000E+00  0.93827000000E+00 0. -1.
     999902    2    1    2    0    0 -0.13547114398E-01 -0.22226199624E-02 -0.84198152603E-02  0.10278254157E+01  0.10276992398E+01 0.  0.
     999903    2    3    3    0    0 -0.25332719903E-01  0.57407904804E-01 -0.11867854392E+00  0.13886440007E+00  0.35514934714E-01 0.  0.
         14    1    1    2    0    0  0.13547114398E-01  0.22226199624E-02  0.84198152603E-02  0.16104584349E-01  0.00000000000E+00 0. -1.
     999901    1    3    3    0    0  0.11785605505E-01 -0.59630524767E-01  0.11025872866E+00  0.88896101558E+00  0.88000000000E+00 0.  1.
        -11    1    4    4    0    0 -0.10380295705E-01  0.23882046083E-02 -0.41865430803E-01  0.43202192971E-01  0.51100000000E-03 0. -1.
         11    1    4    4    0    0 -0.14952424198E-01  0.55019700196E-01 -0.76813113116E-01  0.95662207097E-01  0.51100000000E-03 0.  1.
</event>
<event>
 8    1  0.2091070E+004  0.1043930E+01  0.7957747E-01            NaN
         13   -1    0    0    0    0  0.00000000000E+00  0.00000000000E+00  0.74505805969E-08  0.10566000000E+00  0.10566000000E+00 0.  1.
     999900   -1    0    0    0    0 -0.00000000000E+00 -0.00000000000E+00 -0.74505805969E-08  0.93827000000E+00  0.93827000000E+00 0.  1.
     999902    2    1    2    0    0 -0.10230370964E-01 -0.53886083032E-03  0.64035031353E-02  0.10318487868E+01  0.10317780590E+01 0.  0.
     999903    2    3    3    0    0  0.73137302411E-01 -0.57767420078E-01 -0.94638992211E-01  0.14031367089E+00  0.45224413374E-01 0.  0.
         14    1    1    2    0    0  0.10230370964E-01  0.53886083032E-03 -0.64035031353E-02  0.12081213244E-01  0.00000000000E+00 0.  1.
     999901    1    3    3    0    0 -0.83367673375E-01  0.57228559248E-01  0.10104249535E+00  0.89153511587E+00  0.88000000000E+00 0. -1.
        -11    1    4    4    0    0  0.51952633852E-01 -0.12837770599E-01 -0.55211012907E-01  0.76892142546E-01  0.51100000000E-03 0.  1.
         11    1    4    4    0    0  0.21184668560E-01 -0.44929649480E-01 -0.39427979304E-01  0.63421528343E-01  0.51100000000E-03 0. -1.
</event>
<event>
 8    1  0.2091070E+004  0.1043930E+01  0.7957747E-01            NaN
         13   -1    0    0    0    0  0.00000000000E+00  0.00000000000E+00  0.74505805969E-08  0.10566000000E+00  0.10566000000E+00 0.  1.
     999900   -1    0    0    0    0 -0.00000000000E+00 -0.00000000000E+00 -0.74505805969E-08  0.93827000000E+00  0.93827000000E+00 0. -1.
     999902    2    1    2    0    0  0.93365356742E-02 -0.11763203532E-01 -0.59346635917E-02  0.10277818085E+01  0.10276549430E+01 0.  0.
     999903    2    3    3    0    0  0.12968927202E+00 -0.24911714877E-01 -0.36879967388E-02  0.13948978898E+00  0.44764931523E-01 0.  0.
         14    1    1    2    0    0 -0.93365356742E-02  0.11763203532E-01  0.59346635917E-02  0.16148191468E-01  0.00000000000E+00 0.  1.
     999901    1    3    3    0    0 -0.12035273634E+00  0.13148511345E-01 -0.22466668528E-02  0.88829201956E+00  0.88000000000E+00 0.  1.
        -11    1    4    4    0    0  0.72408859534E-01 -0.27247750679E-01  0.15748837149E-01  0.78954226287E-01  0.51100000000E-03 0.  1.
         11    1    4    4    0    0  0.57280412483E-01  0.23360358021E-02 -0.19436833888E-01  0.60535562689E-01  0.51100000000E-03 0. -1.
</event>
<event>
 8    1  0.2091070E+004  0.1043930E+01  0.7957747E-01            NaN
         13   -1    0    0    0    0  0.00000000000E+00  0.00000000000E+00  0.74505805969E-08  0.10566000000E+00  0.10566000000E+00 0.  1.
     999900   -1    0    0    0    0 -0.00000000000E+00 -0.00000000000E+00 -0.74505805969E-08  0.93827000000E+00  0.93827000000E+00 0. -1.
     999902    2    1    2    0    0 -0.38434568091E-03  0.13504964267E-01 -0.10165216337E-01  0.10270225045E+01  0.10268833241E+01 0.  0.
     999903    2    3    3    0    0 -0.21334845453E-01  0.19164028867E-01  0.12548365572E+00  0.13636456512E+00  0.45019008610E-01 0.  0.
         14    1    1    2    0    0  0.38434568091E-03 -0.13504964267E-01  0.10165216337E-01  0.16907495516E-01  0.00000000000E+00 0. -1.
     999901    1    3    3    0    0  0.20950499772E-01 -0.56590645995E-02 -0.13564887206E+00  0.89065793936E+00  0.88000000000E+00 0. -1.
        -11    1    4    4    0    0  0.15691183353E-03  0.49154863168E-02  0.99949470284E-01  0.10007169609E+00  0.51100000000E-03 0. -1.
         11    1    4    4    0    0 -0.21491757286E-01  0.14248542550E-01  0.25534185435E-01  0.36292869036E-01  0.51100000000E-03 0.  1.
</event>
<event>
 7    1  0.2091070E+004  0.1043930E+01  0.7957747E-01            NaN
         13   -1    0    0    0    0  0.00000000000E+00  0.00000000000E+00  0.74505805969E-08  0.10566000000E+00  0.10566000000E+00 0. -1.
     999900   -1    0    0    0    0 -0.00000000000E+00 -0.00000000000E+00 -0.74505805969E-08  0.93827000000E+00  0.93827000000E+00 0. -1.
     999902    2    1    2    0    0  0.18402326414E-02  0.43828141929E-02  0.13588387913E-01  0.10295341741E+01  0.10294335218E+01 0.  0.
         14    1    1    2    0    0 -0.18402326414E-02 -0.43828141929E-02 -0.13588387913E-01  0.14395825871E-01  0.00000000000E+00 0.  1.
     999901    1    3    3    0    0  0.11183188249E+00  0.66479713395E-01 -0.39987908137E-01  0.89046333728E+00  0.88000000000E+00 0. -1.
        -11    1    3    3    0    0 -0.20556416192E-01 -0.32220053425E-02  0.13140205606E-01  0.24614501608E-01  0.51100000000E-03 0. -1.
         11    1    3    3    0    0 -0.89435233658E-01 -0.58874893860E-01  0.40436090444E-01  0.11445633525E+00  0.51100000000E-03 0.  1.
</event>
<event>
 8    1  0.2091070E+004  0.1043930E+01  0.7957747E-01            NaN
         13   -1    0    0    0    0  0.00000000000E+00  0.00000000000E+00  0.74505805969E-08  0.10566000000E+00  0.10566000000E+00 0. -1.
     999900   -1    0    0    0    0 -0.00000000000E+00 -0.00000000000E+00 -0.74505805969E-08  0.93827000000E+00  0.93827000000E+00 0. -1.
     999902    2    1    2    0    0  0.32808108510E-02  0.59100500901E-02 -0.10107846559E-01  0.10317701902E+01  0.10316985337E+01 0.  0.
     999903    2    3    3    0    0  0.69241403900E-01 -0.49893276939E-01 -0.10474507997E+00  0.14248901022E+00  0.45253454652E-01 0.  0.
         14    1    1    2    0    0 -0.32808108510E-02 -0.59100500901E-02  0.10107846559E-01  0.12159809783E-01  0.00000000000E+00 0. -1.
     999901    1    3    3    0    0 -0.65960593049E-01  0.55803327029E-01  0.94637233415E-01  0.88928117999E+00  0.88000000000E+00 0. -1.
        -11    1    4    4    0    0  0.44724529381E-01 -0.49566912528E-01 -0.94967801252E-01  0.11608749606E+00  0.51100000000E-03 0.  1.
         11    1    4    4    0    0  0.24516874518E-01 -0.32636441034E-03 -0.97772787223E-02  0.26401514163E-01  0.51100000000E-03 0. -1.
</event>
<event>
 8    1  0.2091070E+004  0.1043930E+01  0.7957747E-01            NaN
         13   -1    0    0    0    0  0.00000000000E+00  0.00000000000E+00  0.74505805969E-08  0.10566000000E+00  0.10566000000E+00 0.  1.
     999900   -1    0    0    0    0 -0.00000000000E+00 -0.00000000000E+00 -0.74505805969E-08  0.93827000000E+00  0.93827000000E+00 0.  1.
     999902    2    1    2    0    0  0.12139945964E-01 -0.81080982629E-02 -0.86712654057E-02  0.10269502948E+01  0.10268099131E+01 0.  0.
     999903    2    3    3    0    0  0.20118021140E-01 -0.12385812482E+00  0.36219781567E-01  0.13820009117E+00  0.45186532984E-01 0.  0.
         14    1    1    2    0    0 -0.12139945964E-01  0.81080982629E-02  0.86712654057E-02  0.16979705215E-01  0.00000000000E+00 0. -1.
     999901    1    3    3    0    0 -0.79780751765E-02  0.11575002656E+00 -0.44891046973E-01  0.88875020362E+00  0.88000000000E+00 0.  1.
        -11    1    4    4    0    0 -0.52320923430E-03 -0.45949612811E-01 -0.74126274802E-02  0.46549423547E-01  0.51100000000E-03 0.  1.
         11    1    4    4    0    0  0.20641230374E-01 -0.77908512011E-01  0.43632409047E-01  0.91650667621E-01  0.51100000000E-03 0. -1.
</event>
<event>
 8    1  0.2091070E+004  0.1043930E+01  0.7957747E-01            NaN
         13   -1    0    0    0    0  0.00000000000E+00  0.00000000000E+00  0.74505805969E-08  0.10566000000E+00  0.10566000000E+00 0. -1.
     999900   -1    0    0    0    0 -0.00000000000E+00 -0.00000000000E+00 -0.74505805969E-08  0.93827000000E+00  0.93827000000E+00 0. -1.
     999902    2    1    2    0    0  0.74041614982E-02 -0.11991453585E-01 -0.13382258498E-01  0.10244954584E+01  0.10243111064E+01 0.  0.
     999903    2    3    3    0    0  0.40114762146E-01 -0.10363532091E+00 -0.67234832659E-01  0.13749563786E+00  0.45111570854E-01 0.  0.
         14    1    1    2    0    0 -0.74041614982E-02  0.11991453585E-01  0.13382258498E-01  0.19434541648E-01  0.00000000000E+00 0. -1.
     999901    1    3    3    0    0 -0.32710600648E-01  0.91643867326E-01  0.53852574161E-01  0.88699982049E+00  0.88000000000E+00 0.  1.
        -11    1    4    4    0    0  0.21478033788E-01 -0.11345503363E-01 -0.55107980237E-02  0.24912976495E-01  0.51100000000E-03 0.  1.
         11    1    4    4    0    0  0.18636728358E-01 -0.92289817547E-01 -0.61724034635E-01  0.11258266136E+00  0.51100000000E-03 0. -1.
</event>
<event>
 8    1  0.2091070E+004  0.1043930E+01  0.7957747E-01            NaN
         13   -1    0    0    0    0  0.00000000000E+00  0.00000000000E+00  0.74505805969E-08  0.10566000000E+00  0.10566000000E+00 0. -1.
     999900   -1    0    0    0    0 -0.00000000000E+00 -0.00000000000E+00 -0.74505805969E-08  0.93827000000E+00  0.93827000000E+00 0. -1.
     999902    2    1    2    0    0  0.64598184681E-02  0.86624932586E-02  0.80839044697E-02  0.10304349062E+01  0.10303465332E+01 0.  0.
     999903    2    3    3    0    0 -0.51340977787E-02  0.36190545853E-02  0.13390091473E+00  0.14139622585E+00  0.44988678601E-01 0.  0.
         14    1    1    2    0    0 -0.64598184681E-02 -0.86624932586E-02 -0.80839044697E-02  0.13495093759E-01  0.00000000000E+00 0.  1.
     999901    1    3    3    0    0  0.11593916247E-01  0.50434386733E-02 -0.12581701026E+00  0.88903868039E+00  0.88000000000E+00 0. -1.
        -11    1    4    4    0    0  0.17511944351E-01  0.95671954599E-02  0.82989986331E-01  0.85356888275E-01  0.51100000000E-03 0. -1.
         11    1    4    4    0    0 -0.22646042130E-01 -0.59481408746E-02  0.50910928398E-01  0.56039337571E-01  0.51100000000E-03 0.  1.
</event>
<event>
 8    1  0.2091070E+004  0.1043930E+01  0.7957747E-01            NaN
         13   -1    0    0    0    0  0.00000000000E+00  0.00000000000E+00  0.74505805969E-08  0.10566000000E+00  0.10566000000E+00 0. -1.
     999900   -1    0    0    0    0 -0.00000000000E+00 -0.00000000000E+00 -0.74505805969E-08  0.93827000000E+00  0.93827000000E+00 0. -1.
     999902    2    1    2    0    0  0.80177989160E-02 -0.50345345299E-02 -0.93515508787E-02  0.10306227410E+01  0.10305368267E+01 0.  0.
     999903    2    3    3    0    0  0.89543402711E-01  0.13637841589E-01  0.97173452042E-01  0.14026177044E+00  0.45018582535E-01 0.  0.
         14    1    1    2    0    0 -0.80177989160E-02  0.50345345299E-02  0.93515508787E-02  0.13307258967E-01  0.00000000000E+00 0. -1.
     999901    1    3    3    0    0 -0.81525603795E-01 -0.18672376119E-01 -0.10652500292E+00  0.89036097059E+00  0.88000000000E+00 0. -1.
        -11    1    4    4    0    0  0.30789175691E-01 -0.14922889705E-01  0.45692528712E-01  0.57085324541E-01  0.51100000000E-03 0. -1.
         11    1    4    4    0    0  0.58754227020E-01  0.28560731294E-01  0.51480923330E-01  0.83176445901E-01  0.51100000000E-03 0.  1.
</event>
<event>
 8    1  0.2091070E+004  0.1043930E+01  0.7957747E-01            NaN
         13   -1    0    0    0    0  0.00000000000E+00  0.00000000000E+00  0.74505805969E-08  0.10566000000E+00  0.10566000000E+00 0.  1.
     999900   -1    0    0    0    0 -0.00000000000E+00 -0.00000000000E+00 -0.74505805969E-08  0.93827000000E+00  0.93827000000E+00 0. -1.
     999902    2    1    2    0    0  0.12746547021E-01  0.45823022343E-02  0.47638024657E-02  0.10295715262E+01  0.10294713993E+01 0.  0.
     999903    2    3    3    0    0 -0.63578072813E-01 -0.77738172516E-01  0.86559132959E-01  0.13867726526E+00  0.40663319996E-01 0.  0.
         14    1    1    2    0    0 -0.12746547021E-01 -0.45823022343E-02 -0.47638024657E-02  0.14358473758E-01  0.00000000000E+00 0. -1.
     999901    1    3    3    0    0  0.76324619835E-01  0.82320474751E-01 -0.81795330493E-01  0.89089426098E+00  0.88000000000E+00 0.  1.
        -11    1    4    4    0    0 -0.53957421603E-01 -0.81714806865E-01  0.78144855256E-01  0.12528205191E+00  0.51100000000E-03 0.  1.
         11    1    4    4    0    0 -0.96206512104E-02  0.39766343488E-02  0.84142777032E-02  0.13395213351E-01  0.51100000000E-03 0. -1.
</event>
<event>
 8    1  0.2091070E+004  0.1043930E+01  0.7957747E-01            NaN
         13   -1    0    0    0    0  0.00000000000E+00  0.00000000000E+00  0.74505805969E-08  0.10566000000E+00  0.10566000000E+00 0. -1.
     999900   -1    0    0    0    0 -0.00000000000E+00 -0.00000000000E+00 -0.74505805969E-08  0.93827000000E+00  0.93827000000E+00 0.  1.
     999902    2    1    2    0    0  0.32994597812E-02  0.58161657595E-02 -0.12417587072E-01  0.10298264300E+01  0.10297298506E+01 0.  0.
     999903    2    3    3    0    0  0.57405461603E-01  0.30157251180E-01  0.11412646946E+00  0.13879705553E+00  0.45110140428E-01 0.  0.
         14    1    1    2    0    0 -0.32994597812E-02 -0.58161657595E-02  0.12417587072E-01  0.14103570034E-01  0.00000000000E+00 0. -1.
     999901    1    3    3    0    0 -0.54106001822E-01 -0.24341085421E-01 -0.12654405654E+00  0.89102937444E+00  0.88000000000E+00 0.  1.
        -11    1    4    4    0    0  0.27839353518E-01 -0.83784418967E-02  0.30878487249E-01  0.42414266334E-01  0.51100000000E-03 0. -1.
         11    1    4    4    0    0  0.29566108085E-01  0.38535693077E-01  0.83247982215E-01  0.96382789191E-01  0.51100000000E-03 0.  1.
</event>
<event>
 8    1  0.2091070E+004  0.1043930E+01  0.7957747E-01            NaN
         13   -1    0    0    0    0  0.00000000000E+00  0.00000000000E+00  0.74505805969E-08  0.10566000000E+00  0.10566000000E+00 0. -1.
     999900   -1    0    0    0    0 -0.00000000000E+00 -0.00000000000E+00 -0.74505805969E-08  0.93827000000E+00  0.93827000000E+00 0. -1.
     999902    2    1    2    0    0 -0.18788711281E-02  0.93082679869E-02 -0.10165766357E-01  0.10300189679E+01  0.10299250251E+01 0.  0.
     999903    2    3    3    0    0  0.10826997056E+00  0.11585953857E-01  0.73787404045E-01  0.13918447706E+00  0.45509524359E-01 0.  0.
         14    1    1    2    0    0  0.18788711281E-02 -0.93082679869E-02  0.10165766357E-01  0.13911032142E-01  0.00000000000E+00 0. -1.
     999901    1    3    3    0    0 -0.11014884168E+00 -0.22776858704E-02 -0.83953170402E-01  0.89083449080E+00  0.88000000000E+00 0. -1.
        -11    1    4    4    0    0  0.31222807236E-01 -0.95600088869E-02  0.41982854805E-01  0.53189084220E-01  0.51100000000E-03 0. -1.
         11    1    4    4    0    0  0.77047163320E-01  0.21145962744E-01  0.31804549240E-01  0.85995392838E-01  0.51100000000E-03 0.  1.
</event>
<event>
 8    1  0.2091070E+004  0.1043930E+01  0.7957747E-01            NaN
         13   -1    0    0    0    0  0.00000000000E+00  0.00000000000E+00  0.74505805969E-08  0.10566000000E+00  0.10566000000E+00 0. -1.
     999900   -1    0    0    0    0 -0.00000000000E+00 -0.00000000000E+00 -0.74505805969E-08  0.93827000000E+00  0.93827000000E+00 0.  1.
     999902    2    1    2    0    0  0.33868913898E-02  0.12829998295E-01 -0.83224080774E-03  0.10306344175E+01  0.10305486548E+01 0.  0.
     999903    2    3    3    0    0 -0.30739110296E-01  0.89325655386E-01 -0.96571164718E-01  0.14148757298E+00  0.42056840603E-01 0.  0.
         14    1    1    2    0    0 -0.33868913898E-02 -0.12829998295E-01  0.83224080774E-03  0.13295582511E-01  0.00000000000E+00 0.  1.
     999901    1    3    3    0    0  0.34126001685E-01 -0.76495657090E-01  0.95738923911E-01  0.88914684451E+00  0.88000000000E+00 0. -1.
        -11    1    4    4    0    0  0.30940796446E-02  0.55402682673E-01 -0.52092265441E-01  0.76111075515E-01  0.51100000000E-03 0. -1.
         11    1    4    4    0    0 -0.33833189940E-01  0.33922972713E-01 -0.44478899277E-01  0.65376497468E-01  0.51100000000E-03 0.  1.
</event>
<event>
 8    1  0.2091070E+004  0.1043930E+01  0.7957747E-01            NaN
         13   -1    0    0    0    0  0.00000000000E+00  0.00000000000E+00  0.74505805969E-08  0.10566000000E+00  0.10566000000E+00 0.  1.
     999900   -1    0    0    0    0 -0.00000000000E+00 -0.00000000000E+00 -0.74505805969E-08  0.93827000000E+00  0.93827000000E+00 0.  1.
     999902    2    1    2    0    0  0.40503189879E-02  0.13628820264E-01 -0.15975801908E-02  0.10296225863E+01  0.10295231751E+01 0.  0.
     999903    2    3    3    0    0  0.92213128991E-01  0.96348331445E-01 -0.13161247603E-01  0.14128204513E+00  0.44734055338E-01 0.  0.
         14    1    1    2    0    0 -0.40503189879E-02 -0.13628820264E-01  0.15975801908E-02  0.14307413748E-01  0.00000000000E+00 0. -1.
     999901    1    3    3    0    0 -0.88162810003E-01 -0.82719511180E-01  0.11563667413E-01  0.88834054112E+00  0.88000000000E+00 0. -1.
        -11    1    4    4    0    0  0.33944454984E-01  0.58298096103E-01 -0.22385815957E-01  0.71079391602E-01  0.51100000000E-03 0.  1.
         11    1    4    4    0    0  0.58268674007E-01  0.38050235342E-01  0.92245683531E-02  0.70202653528E-01  0.51100000000E-03 0. -1.
</event>
<event>
 8    1  0.2091070E+004  0.1043930E+01  0.7957747E-01            NaN
         13   -1    0    0    0    0  0.00000000000E+00  0.00000000000E+00  0.74505805969E-08  0.10566000000E+00  0.10566000000E+00 0.  1.
     999900   -1    0    0    0    0 -0.00000000000E+00 -0.00000000000E+00 -0.74505805969E-08  0.93827000000E+00  0.93827000000E+00 0.  1.
     999902    2    1    2    0    0  0.76193365191E-02  0.69847160345E-02 -0.83084077328E-02  0.10306683943E+01  0.10305830722E+01 0.  0.
     999903    2    3    3    0    0  0.12863897708E+00 -0.35382421364E-01 -0.13950753626E-01  0.14135823253E+00  0.44582779319E-01 0.  0.
         14    1    1    2    0    0 -0.76193365191E-02 -0.69847160345E-02  0.83084077328E-02  0.13261605714E-01  0.00000000000E+00 0.  1.
     999901    1    3    3    0    0 -0.12101964056E+00  0.42367137398E-01  0.56423458929E-02  0.88931016175E+00  0.88000000000E+00 0.  1.
        -11    1    4    4    0    0  0.12178643902E+00 -0.40061710237E-01 -0.38351691670E-02  0.12826475354E+00  0.51100000000E-03 0.  1.
         11    1    4    4    0    0  0.68525380590E-02  0.46792888735E-02 -0.10115584459E-01  0.13093478993E-01  0.51100000000E-03 0. -1.
</event>
<event>
 8    1  0.2091070E+004  0.1043930E+01  0.7957747E-01            NaN
         13   -1    0    0    0    0  0.00000000000E+00  0.00000000000E+00  0.74505805969E-08  0.10566000000E+00  0.10566000000E+00 0.  1.
     999900   -1    0    0    0    0 -0.00000000000E+00 -0.00000000000E+00 -0.74505805969E-08  0.93827000000E+00  0.93827000000E+00 0.  1.
     999902    2    1    2    0    0  0.70061961747E-02 -0.11627077189E-01  0.33505879644E-02  0.10299477917E+01  0.10298528786E+01 0.  0.
     999903    2    3    3    0    0  0.56766300016E-01  0.23628403919E-01  0.11792482521E+00  0.14042754309E+00  0.45087871609E-01 0.  0.
         14    1    1    2    0    0 -0.70061961747E-02  0.11627077189E-01 -0.33505879644E-02  0.13982208284E-01  0.00000000000E+00 0.  1.
     999901    1    3    3    0    0 -0.49760103842E-01 -0.35255481108E-01 -0.11457423725E+00  0.88952024863E+00  0.88000000000E+00 0.  1.
        -11    1    4    4    0    0  0.17495867033E-01 -0.81011400597E-02  0.62708391188E-01  0.65607448357E-01  0.51100000000E-03 0.  1.
         11    1    4    4    0    0  0.39270432983E-01  0.31729543979E-01  0.55216434025E-01  0.74820094729E-01  0.51100000000E-03 0. -1.
</event>
<event>
 8    1  0.2091070E+004  0.1043930E+01  0.7957747E-01            NaN
         13   -1    0    0    0    0  0.00000000000E+00  0.00000000000E+00  0.74505805969E-08  0.10566000000E+00  0.10566000000E+00 0.  1.
     999900   -1    0    0    0    0 -0.00000000000E+00 -0.00000000000E+00 -0.74505805969E-08  0.93827000000E+00  0.93827000000E+00 0. -1.
     999902    2    1    2    0    0  0.53786757465E-02 -0.32889039975E-02 -0.12311926943E-01  0.10300977700E+01  0.10300048957E+01 0.  0.
     999903    2    3    3    0    0  0.23333427205E-02 -0.75056099617E-01  0.10839027227E+00  0.13895870939E+00  0.43843006426E-01 0.  0.
         14    1    1    2    0    0 -0.53786757465E-02  0.32889039975E-02  0.12311926943E-01  0.13832230020E-01  0.00000000000E+00 0.  1.
     999901    1    3    3    0    0  0.30453330259E-02  0.71767195619E-01 -0.12070219922E+00  0.89113906059E+00  0.88000000000E+00 0.  1.
        -11    1    4    4    0    0  0.20706169166E-01 -0.57356497233E-01  0.82671818270E-01  0.10272976138E+00  0.51100000000E-03 0. -1.
         11    1    4    4    0    0 -0.18372826445E-01 -0.17699602384E-01  0.25718454005E-01  0.36228948005E-01  0.51100000000E-03 0.  1.
</event>
<event>
 8    1  0.2091070E+004  0.1043930E+01  0.7957747E-01            NaN
         13   -1    0    0    0    0  0.00000000000E+00  0.00000000000E+00  0.74505805969E-08  0.10566000000E+00  0.10566000000E+00 0.  1.
     999900   -1    0    0    0    0 -0.00000000000E+00 -0.00000000000E+00 -0.74505805969E-08  0.93827000000E+00  0.93827000000E+00 0.  1.
     999902    2    1    2    0    0  0.10406507550E-01 -0.56943941783E-02  0.17108267794E-01  0.10231113941E+01  0.10228995603E+01 0.  0.
     999903    2    3    3    0    0 -0.85195474736E-01 -0.31306503994E-01 -0.83891410560E-01  0.13182207283E+00  0.45835837648E-01 0.  0.
         14    1    1    2    0    0 -0.10406507550E-01  0.56943941783E-02 -0.17108267794E-01  0.20818605893E-01  0.00000000000E+00 0. -1.
     999901    1    3    3    0    0  0.95601982286E-01  0.25612109816E-01  0.10099967835E+00  0.89128932127E+00  0.88000000000E+00 0. -1.
        -11    1    4    4    0    0 -0.11856445017E-01 -0.23930652118E-01 -0.31970204424E-01  0.41660610787E-01  0.51100000000E-03 0.  1.
         11    1    4    4    0    0 -0.73339029719E-01 -0.73758518762E-02 -0.51921206136E-01  0.90161462048E-01  0.51100000000E-03 0. -1.
</event>
<event>
 8    1  0.2091070E+004  0.1043930E+01  0.7957747E-01            NaN
         13   -1    0    0    0    0  0.00000000000E+00  0.00000000000E+00  0.74505805969E-08  0.10566000000E+00  0.10566000000E+00 0. -1.
     999900   -1    0    0    0    0 -0.00000000000E+00 -0.00000000000E+00 -0.74505805969E-08  0.93827000000E+00  0.93827000000E+00 0.  1.
     999902    2    1    2    0    0 -0.14913771759E-01  0.50328286436E-02  0.12034800643E-01  0.10241162074E+01  0.10239245186E+01 0.  0.
     999903    2    3    3    0    0  0.15872835878E-01 -0.88063139249E-01 -0.87754147813E-01  0.13306485717E+00  0.44703493617E-01 0.  0.
         14    1    1    2    0    0  0.14913771759E-01 -0.50328286436E-02 -0.12034800643E-01  0.19813792639E-01  0.00000000000E+00 0. -1.
     999901    1    3    3    0    0 -0.30786607637E-01  0.93095967892E-01  0.99788948456E-01  0.89105135019E+00  0.88000000000E+00 0.  1.
        -11    1    4    4    0    0  0.25179296636E-01 -0.22695276175E-01 -0.32565048507E-01  0.47008680528E-01  0.51100000000E-03 0. -1.
         11    1    4    4    0    0 -0.93064607578E-02 -0.65367863073E-01 -0.55189099306E-01  0.86056176640E-01  0.51100000000E-03 0.  1.
</event>
<event>
 8    1  0.2091070E+004  0.1043930E+01  0.7957747E-01            NaN
         13   -1    0    0    0    0  0.00000000000E+00  0.00000000000E+00  0.74505805969E-08  0.10566000000E+00  0.10566000000E+00 0. -1.
     999900   -1    0    0    0    0 -0.00000000000E+00 -0.00000000000E+00 -0.74505805969E-08  0.93827000000E+00  0.93827000000E+00 0. -1.
     999902    2    1    2    0    0  0.12842545453E-01 -0.53050779499E-02 -0.44968855120E-02  0.10293253156E+01  0.10292217004E+01 0.  0.
     999903    2    3    3    0    0 -0.12897697600E+00 -0.73565825131E-02 -0.17334975508E-01  0.13787604514E+00  0.44945776261E-01 0.  0.
         14    1    1    2    0    0 -0.12842545453E-01  0.53050779499E-02  0.44968855120E-02  0.14604684354E-01  0.00000000000E+00 0. -1.
     999901    1    3    3    0    0  0.14181952145E+00  0.20515045631E-02  0.12838089996E-01  0.89144927051E+00  0.88000000000E+00 0.  1.
        -11    1    4    4    0    0 -0.54659695570E-01 -0.24889437707E-01 -0.12606649984E-01  0.61370637718E-01  0.51100000000E-03 0.  1.
         11    1    4    4    0    0 -0.74317280426E-01  0.17532855194E-01 -0.47283255238E-02  0.76505407420E-01  0.51100000000E-03 0. -1.
</event>
<event>
 8    1  0.2091070E+004  0.1043930E+01  0.7957747E-01            NaN
         13   -1    0    0    0    0  0.00000000000E+00  0.00000000000E+00  0.74505805969E-08  0.10566000000E+00  0.10566000000E+00 0. -1.
     999900   -1    0    0    0    0 -0.00000000000E+00 -0.00000000000E+00 -0.74505805969E-08  0.93827000000E+00  0.93827000000E+00 0.  1.
     999902    2    1    2    0    0 -0.97504562177E-02 -0.38141178114E-02  0.11090013723E-01  0.10286785314E+01  0.10285654639E+01 0.  0.
     999903    2    3    3    0    0 -0.57596384086E-01 -0.51664704095E-01 -0.10507219479E+00  0.13846924692E+00  0.46335527579E-01 0.  0.
         14    1    1    2    0    0  0.97504562177E-02  0.38141178114E-02 -0.11090013723E-01  0.15251468635E-01  0.00000000000E+00 0.  1.
     999901    1    3    3    0    0  0.47845927869E-01  0.47850586284E-01  0.11616220851E+00  0.89020928444E+00  0.88000000000E+00 0.  1.
        -11    1    4    4    0    0 -0.15183895432E-01 -0.42533887674E-01 -0.40439098620E-01  0.60623956480E-01  0.51100000000E-03 0.  1.
         11    1    4    4    0    0 -0.42412488654E-01 -0.91308164216E-02 -0.64633096171E-01  0.77845290442E-01  0.51100000000E-03 0. -1.
</event>
<event>
 8    1  0.2091070E+004  0.1043930E+01  0.7957747E-01            NaN
         13   -1    0    0    0    0  0.00000000000E+00  0.00000000000E+00  0.74505805969E-08  0.10566000000E+00  0.10566000000E+00 0. -1.
     999900   -1    0    0    0    0 -0.00000000000E+00 -0.00000000000E+00 -0.74505805969E-08  0.93827000000E+00  0.93827000000E+00 0. -1.
     999902    2    1    2    0    0  0.12564949583E-01 -0.55653995789E-02  0.45313771951E-02  0.10294598580E+01  0.10293581564E+01 0.  0.
     999903    2    3    3    0    0  0.11836301202E+00  0.58762153524E-01  0.17841722603E-01  0.14069193024E+00  0.44867570335E-01 0.  0.
         14    1    1    2    0    0 -0.12564949583E-01  0.55653995789E-02 -0.45313771951E-02  0.14470142010E-01  0.00000000000E+00 0. -1.
     999901    1    3    3    0    0 -0.10579806244E+00 -0.64327553103E-01 -0.13310345408E-01  0.88876792775E+00  0.88000000000E+00 0. -1.
        -11    1    4    4    0    0  0.40515802849E-01  0.27940183411E-02  0.18921156348E-01  0.44806339926E-01  0.51100000000E-03 0. -1.
         11    1    4    4    0    0  0.77847209171E-01  0.55968135183E-01 -0.10794337453E-02  0.95885590313E-01  0.51100000000E-03 0.  1.
</event>
<event>
 8    1  0.2091070E+004  0.1043930E+01  0.7957747E-01            NaN
         13   -1    0    0    0    0  0.00000000000E+00  0.00000000000E+00  0.74505805969E-08  0.10566000000E+00  0.10566000000E+00 0. -1.
     999900   -1    0    0    0    0 -0.00000000000E+00 -0.00000000000E+00 -0.74505805969E-08  0.93827000000E+00  0.93827000000E+00 0.  1.
     999902    2    1    2    0    0  0.82758291933E-02 -0.78923873686E-02 -0.80937883779E-02  0.10299196989E+01  0.10298244013E+01 0.  0.
     999903    2    3    3    0    0 -0.77261823222E-01 -0.88874831761E-01  0.59156271723E-01  0.13952797786E+00  0.45830852845E-01 0.  0.
         14    1    1    2    0    0 -0.82758291933E-02  0.78923873686E-02  0.80937883779E-02  0.14010301122E-01  0.00000000000E+00 0. -1.
     999901    1    3    3    0    0  0.85537652415E-01  0.80982444393E-01 -0.67250060101E-01  0.89039172102E+00  0.88000000000E+00 0.  1.
        -11    1    4    4    0    0 -0.47477654451E-01 -0.23964071282E-01  0.13881415482E-01  0.54966891866E-01  0.51100000000E-03 0. -1.
         11    1    4    4    0    0 -0.29784168770E-01 -0.64910760479E-01  0.45274856241E-01  0.84561085991E-01  0.51100000000E-03 0.  1.
</event>
<event>
 8    1  0.2091070E+004  0.1043930E+01  0.7957747E-01            NaN
         13   -1    0    0    0    0  0.00000000000E+00  0.00000000000E+00  0.74505805969E-08  0.10566000000E+00  0.10566000000E+00 0.  1.
     999900   -1    0    0    0    0 -0.00000000000E+00 -0.00000000000E+00 -0.74505805969E-08  0.93827000000E+00  0.93827000000E+00 0. -1.
     999902    2    1    2    0    0  0.58789557483E-02 -0.10152696574E-01  0.61660108716E-02  0.10306763568E+01  0.10305911378E+01 0.  0.
     999903    2    3    3    0    0 -0.50542737447E-01 -0.51742874987E-01 -0.11096793904E+00  0.14015206592E+00  0.45791098097E-01 0.  0.
         14    1    1    2    0    0 -0.58789557483E-02  0.10152696574E-01 -0.61660108716E-02  0.13253643215E-01  0.00000000000E+00 0.  1.
     999901    1    3    3    0    0  0.56421693196E-01  0.41590178413E-01  0.11713394991E+00  0.89052429087E+00  0.88000000000E+00 0.  1.
        -11    1    4    4    0    0 -0.19093915480E-01  0.43851553392E-02 -0.15307744180E-01  0.24867556145E-01  0.51100000000E-03 0. -1.
         11    1    4    4    0    0 -0.31448821967E-01 -0.56128030326E-01 -0.95660194862E-01  0.11528450977E+00  0.51100000000E-03 0.  1.
</event>
<event>
 8    1  0.2091070E+004  0.1043930E+01  0.7957747E-01            NaN
         13   -1    0    0    0    0  0.00000000000E+00  0.00000000000E+00  0.74505805969E-08  0.10566000000E+00  0.10566000000E+00 0. -1.
     999900   -1    0    0    0    0 -0.00000000000E+00 -0.00000000000E+00 -0.74505805969E-08  0.93827000000E+00  0.93827000000E+00 0.  1.
     999902    2    1    2    0    0 -0.34822422520E-02  0.81202725311E-02  0.11352663616E-01  0.10295443193E+01  0.10294438099E+01 0.  0.
     999903    2    3    3    0    0 -0.40187416226E-01  0.11874019937E+00  0.46754173572E-01  0.14115403071E+00  0.44991602229E-01 0.  0.
         14    1    1    2    0    0  0.34822422520E-02 -0.81202725311E-02 -0.11352663616E-01  0.14385680667E-01  0.00000000000E+00 0.  1.
     999901    1    3    3    0    0  0.36705173974E-01 -0.11061992684E+00 -0.35401509956E-01  0.88839028862E+00  0.88000000000E+00 0.  1.
        -11    1    4    4    0    0 -0.35725941130E-01  0.68788659529E-01  0.83038726019E-02  0.77957924361E-01  0.51100000000E-03 0. -1.
         11    1    4    4    0    0 -0.44614750953E-02  0.49951539838E-01  0.38450300970E-01  0.63196106351E-01  0.51100000000E-03 0.  1.
</event>
<event>
 8    1  0.2091070E+004  0.1043930E+01  0.7957747E-01            NaN
         13   -1    0    0    0    0  0.00000000000E+00  0.00000000000E+00  0.74505805969E-08  0.10566000000E+00  0.10566000000E+00 0.  1.
     999900   -1    0    0    0    0 -0.00000000000E+00 -0.00000000000E+00 -0.74505805969E-08  0.93827000000E+00  0.93827000000E+00 0.  1.
     999902    2    1    2    0    0  0.51556216003E-02  0.14261487696E-01  0.48967215389E-02  0.10279942431E+01  0.10278707193E+01 0.  0.
     999903    2    3    3    0    0 -0.20386688735E-01  0.69729539663E-01 -0.11041941262E+00  0.13837245539E+00  0.40947087191E-01 0.  0.
         14    1    1    2    0    0 -0.51556216003E-02 -0.14261487696E-01 -0.48967215389E-02  0.15935756876E-01  0.00000000000E+00 0. -1.
     999901    1    3    3    0    0  0.25542310335E-01 -0.55468051967E-01  0.11531613416E+00  0.88962178773E+00  0.88000000000E+00 0. -1.
        -11    1    4    4    0    0 -0.25594844095E-01  0.28820376415E-01 -0.33397467879E-01  0.51003550099E-01  0.51100000000E-03 0. -1.
         11    1    4    4    0    0  0.52081553603E-02  0.40909163247E-01 -0.77021944741E-01  0.87368905295E-01  0.51100000000E-03 0.  1.
</event>
<event>
 8    1  0.2091070E+004  0.1043930E+01  0.7957747E-01            NaN
         13   -1    0    0    0    0  0.00000000000E+00  0.00000000000E+00  0.74505805969E-08  0.10566000000E+00  0.10566000000E+00 0.  1.
     999900   -1    0    0    0    0 -0.00000000000E+00 -0.00000000000E+00 -0.74505805969E-08  0.93827000000E+00  0.93827000000E+00 0.  1.
     999902    2    1    2    0    0  0.14602597569E-02 -0.45941225231E-02  0.89092779387E-03  0.10390277482E+01  0.10390161834E+01 0.  0.
     999903    2    3    3    0    0  0.63343476273E-01  0.11678089296E+00 -0.44623340840E-01  0.14738153164E+00  0.45605924758E-01 0.  0.
         14    1    1    2    0    0 -0.14602597569E-02  0.45941225231E-02 -0.89092779387E-03  0.49022517937E-02  0.00000000000E+00 0. -1.
     999901    1    3    3    0    0 -0.61883216517E-01 -0.12137501548E+00  0.45514268634E-01  0.89164621657E+00  0.88000000000E+00 0. -1.
        -11    1    4    4    0    0  0.66491604736E-02  0.42905262703E-01 -0.30804351672E-01  0.53237600487E-01  0.51100000000E-03 0.  1.
         11    1    4    4    0    0  0.56694315800E-01  0.73875630259E-01 -0.13818989168E-01  0.94143931152E-01  0.51100000000E-03 0. -1.
</event>
<event>
 8    1  0.2091070E+004  0.1043930E+01  0.7957747E-01            NaN
         13   -1    0    0    0    0  0.00000000000E+00  0.00000000000E+00  0.74505805969E-08  0.10566000000E+00  0.10566000000E+00 0.  1.
     999900   -1    0    0    0    0 -0.00000000000E+00 -0.00000000000E+00 -0.74505805969E-08  0.93827000000E+00  0.93827000000E+00 0. -1.
     999902    2    1    2    0    0 -0.48353801298E-02  0.94113825170E-02 -0.82728478718E-02  0.10304988782E+01  0.10304113464E+01 0.  0.
     999903    2    3    3    0    0  0.12634748630E+00  0.35977338695E-01  0.17489748476E-01  0.14000552847E+00  0.45139788522E-01 0.  0.
         14    1    1    2    0    0  0.48353801298E-02 -0.94113825170E-02  0.82728478718E-02  0.13431121837E-01  0.00000000000E+00 0. -1.
     999901    1    3    3    0    0 -0.13118286643E+00 -0.26565956178E-01 -0.25762596348E-01  0.89049334969E+00  0.88000000000E+00 0. -1.
        -11    1    4    4    0    0  0.90879407601E-01  0.25555995552E-01  0.32868121600E-01  0.99963744293E-01  0.51100000000E-03 0.  1.
         11    1    4    4    0    0  0.35468078698E-01  0.10421343143E-01 -0.15378373124E-01  0.40041784180E-01  0.51100000000E-03 0. -1.
</event>
<event>
 8    1  0.2091070E+004  0.1043930E+01  0.7957747E-01            NaN
         13   -1    0    0    0    0  0.00000000000E+00  0.00000000000E+00  0.74505805969E-08  0.10566000000E+00  0.10566000000E+00 0. -1.
     999900   -1    0    0    0    0 -0.00000000000E+00 -0.00000000000E+00 -0.74505805969E-08  0.93827000000E+00  0.93827000000E+00 0.  1.
     999902    2    1    2    0    0  0.79887480262E-02  0.48309685281E-02 -0.11467733186E-01  0.10291425981E+01  0.10290363550E+01 0.  0.
     999903    2    3    3    0    0 -0.92945424626E-01 -0.49415130152E-01  0.75876679388E-01  0.13742549446E+00  0.45252502757E-01 0.  0.
         14    1    1    2    0    0 -0.79887480262E-02 -0.48309685281E-02  0.11467733186E-01  0.14787401948E-01  0.00000000000E+00 0. -1.
     999901    1    3    3    0    0  0.10093417265E+00  0.54246098680E-01 -0.87344412574E-01  0.89171710359E+00  0.88000000000E+00 0.  1.
        -11    1    4    4    0    0 -0.44250356089E-01 -0.48275208079E-01  0.49001105185E-01  0.81792170526E-01  0.51100000000E-03 0. -1.
         11    1    4    4    0    0 -0.48695068537E-01 -0.11399220733E-02  0.26875574203E-01  0.55633323934E-01  0.51100000000E-03 0.  1.
</event>
<event>
 8    1  0.2091070E+004  0.1043930E+01  0.7957747E-01            NaN
         13   -1    0    0    0    0  0.00000000000E+00  0.00000000000E+00  0.74505805969E-08  0.10566000000E+00  0.10566000000E+00 0. -1.
     999900   -1    0    0    0    0 -0.00000000000E+00 -0.00000000000E+00 -0.74505805969E-08  0.93827000000E+00  0.93827000000E+00 0. -1.
     999902    2    1    2    0    0  0.50633156200E-02 -0.21538631395E-02  0.12402822844E-01  0.10303614221E+01  0.10302720776E+01 0.  0.
     999903    2    3    3    0    0 -0.10724610595E+00  0.67695423839E-01  0.38357480452E-01  0.14009967784E+00  0.45521706599E-01 0.  0.
         14    1    1    2    0    0 -0.50633156200E-02  0.21538631395E-02 -0.12402822844E-01  0.13568577891E-01  0.00000000000E+00 0.  1.
     999901    1    3    3    0    0  0.11230942157E+00 -0.69849286979E-01 -0.25954657608E-01  0.89026174427E+00  0.88000000000E+00 0.  1.
        -11    1    4    4    0    0 -0.22796403051E-01 -0.32820931225E-02 -0.76823138449E-03  0.23049933358E-01  0.51100000000E-03 0. -1.
         11    1    4    4    0    0 -0.84449702903E-01  0.70977516962E-01  0.39125711837E-01  0.11704974448E+00  0.51100000000E-03 0.  1.
</event>
<event>
 8    1  0.2091070E+004  0.1043930E+01  0.7957747E-01            NaN
         13   -1    0    0    0    0  0.00000000000E+00  0.00000000000E+00  0.74505805969E-08  0.10566000000E+00  0.10566000000E+00 0.  1.
     999900   -1    0    0    0    0 -0.00000000000E+00 -0.00000000000E+00 -0.74505805969E-08  0.93827000000E+00  0.93827000000E+00 0. -1.
     999902    2    1    2    0    0  0.72308322888E-02  0.11932659098E-01  0.17385801264E-02  0.10298695608E+01  0.10297735753E+01 0.  0.
     999903    2    3    3    0    0  0.11483197197E+00 -0.38784927924E-01 -0.54281116327E-01  0.14010077891E+00  0.44622149675E-01 0.  0.
         14    1    1    2    0    0 -0.72308322888E-02 -0.11932659098E-01 -0.17385801264E-02  0.14060439168E-01  0.00000000000E+00 0. -1.
     999901    1    3    3    0    0 -0.10760113968E+00  0.50717587023E-01  0.56019696453E-01  0.88976878192E+00  0.88000000000E+00 0. -1.
        -11    1    4    4    0    0  0.52953511844E-01 -0.90427284698E-02 -0.19220914339E-02  0.53756868503E-01  0.51100000000E-03 0.  1.
         11    1    4    4    0    0  0.61878460122E-01 -0.29742199454E-01 -0.52359024893E-01  0.86343910406E-01  0.51100000000E-03 0. -1.
</event>
<event>
 8    1  0.2091070E+004  0.1043930E+01  0.7957747E-01            NaN
         13   -1    0    0    0    0  0.00000000000E+00  0.00000000000E+00  0.74505805969E-08  0.10566000000E+00  0.10566000000E+00 0. -1.
     999900   -1    0    0    0    0 -0.00000000000E+00 -0.00000000000E+00 -0.74505805969E-08  0.93827000000E+00  0.93827000000E+00 0.  1.
     999902    2    1    2    0    0  0.32815488494E-02  0.58830765182E-02  0.12907332318E-01  0.10293705227E+01  0.10292675525E+01 0.  0.
     999903    2    3    3    0    0 -0.99054954276E-01  0.31896899316E-01 -0.79143305716E-01  0.13829095339E+00  0.45071374475E-01 0.  0.
         14    1    1    2    0    0 -0.32815488494E-02 -0.58830765182E-02 -0.12907332318E-01  0.14559477317E-01  0.00000000000E+00 0. -1.
     999901    1    3    3    0    0  0.10233650313E+00 -0.26013822798E-01  0.92050638035E-01  0.89107956929E+00  0.88000000000E+00 0. -1.
        -11    1    4    4    0    0 -0.24992905084E-01  0.16706825281E-01 -0.17816562139E-02  0.30119739962E-01  0.51100000000E-03 0. -1.
         11    1    4    4    0    0 -0.74062049192E-01  0.15190074036E-01 -0.77361649502E-01  0.10817121343E+00  0.51100000000E-03 0.  1.
</event>
<event>
 7    1  0.2091070E+004  0.1043930E+01  0.7957747E-01            NaN
         13   -1    0    0    0    0  0.00000000000E+00  0.00000000000E+00  0.74505805969E-08  0.10566000000E+00  0.10566000000E+00 0. -1.
     999900   -1    0    0    0    0 -0.00000000000E+00 -0.00000000000E+00 -0.74505805969E-08  0.93827000000E+00  0.93827000000E+00 0.  1.
     999902    2    1    2    0    0  0.69031755578E-02  0.37256086369E-02  0.11210240388E-01  0.10302477677E+01  0.10301569100E+01 0.  0.
         14    1    1    2    0    0 -0.69031755578E-02 -0.37256086369E-02 -0.11210240388E-01  0.13682232349E-01  0.00000000000E+00 0.  1.
     999901    1    3    3    0    0 -0.33808627800E-01 -0.12699805864E+00  0.41913269065E-03  0.88975935279E+00  0.88000000000E+00 0. -1.
        -11    1    3    3    0    0  0.39536104920E-01  0.90482707381E-01 -0.23383513315E-03  0.98744821267E-01  0.51100000000E-03 0.  1.
         11    1    3    3    0    0  0.11756984373E-02  0.40240959898E-01  0.11024942830E-01  0.41743593590E-01  0.51100000000E-03 0. -1.
</event>
<event>
 8    1  0.2091070E+004  0.1043930E+01  0.7957747E-01            NaN
         13   -1    0    0    0    0  0.00000000000E+00  0.00000000000E+00  0.74505805969E-08  0.10566000000E+00  0.10566000000E+00 0. -1.
     999900   -1    0    0    0    0 -0.00000000000E+00 -0.00000000000E+00 -0.74505805969E-08  0.93827000000E+00  0.93827000000E+00 0.  1.
     999902    2    1    2    0    0 -0.10682832550E-01 -0.89863404732E-02 -0.35683393035E-02  0.10295213126E+01  0.10294204791E+01 0.  0.
     999903    2    3    3    0    0  0.40817300186E-01 -0.20229661475E-01  0.12289356142E+00  0.13891966864E+00  0.46049491853E-01 0.  0.
         14    1    1    2    0    0  0.10682832550E-01  0.89863404732E-02  0.35683393035E-02  0.14408687372E-01  0.00000000000E+00 0.  1.
     999901    1    3    3    0    0 -0.51500132736E-01  0.11243321001E-01 -0.12646190072E+00  0.89060164399E+00  0.88000000000E+00 0.  1.
        -11    1    4    4    0    0  0.23425032032E-01 -0.34799145600E-01  0.83865625133E-01  0.93773220378E-01  0.51100000000E-03 0.  1.
         11    1    4    4    0    0  0.17392268153E-01  0.14569484125E-01  0.39027936284E-01  0.45146448263E-01  0.51100000000E-03 0. -1.
</event>
<event>
 8    1  0.2091070E+004  0.1043930E+01  0.7957747E-01            NaN
         13   -1    0    0    0    0  0.00000000000E+00  0.00000000000E+00  0.74505805969E-08  0.10566000000E+00  0.10566000000E+00 0. -1.
     999900   -1    0    0    0    0 -0.00000000000E+00 -0.00000000000E+00 -0.74505805969E-08  0.93827000000E+00  0.93827000000E+00 0. -1.
     999902    2    1    2    0    0  0.61138311824E-02  0.81030904280E-02  0.14844958338E-01  0.10259463465E+01  0.10257887180E+01 0.  0.
     999903    2    3    3    0    0  0.92682078915E-01  0.30177614218E-01 -0.83251680671E-01  0.13600011399E+00  0.45437127106E-01 0.  0.
         14    1    1    2    0    0 -0.61138311824E-02 -0.81030904280E-02 -0.14844958338E-01  0.17983653529E-01  0.00000000000E+00 0.  1.
     999901    1    3    3    0    0 -0.86568247733E-01 -0.22074523790E-01  0.98096639009E-01  0.88994623248E+00  0.88000000000E+00 0. -1.
        -11    1    4    4    0    0  0.83277884637E-02  0.18520369999E-01 -0.27605190077E-01  0.34273368755E-01  0.51100000000E-03 0.  1.
         11    1    4    4    0    0  0.84354290452E-01  0.11657244219E-01 -0.55646490594E-01  0.10172674524E+00  0.51100000000E-03 0. -1.
</event>
<event>
 8    1  0.2091070E+004  0.1043930E+01  0.7957747E-01            NaN
         13   -1    0    0    0    0  0.00000000000E+00  0.00000000000E+00  0.74505805969E-08  0.10566000000E+00  0.10566000000E+00 0.  1.
     999900   -1    0    0    0    0 -0.00000000000E+00 -0.00000000000E+00 -0.74505805969E-08  0.93827000000E+00  0.93827000000E+00 0.  1.
     999902    2    1    2    0    0 -0.13264734457E-01  0.70124836013E-02  0.14475912411E-03  0.10289250321E+01  0.10288156164E+01 0.  0.
     999903    2    3    3    0    0  0.42392335961E-01  0.10154344631E+00  0.74217228621E-01  0.13902585627E+00  0.41374026284E-01 0.  0.
         14    1    1    2    0    0  0.13264734457E-01 -0.70124836013E-02 -0.14475912411E-03  0.15004967900E-01  0.00000000000E+00 0. -1.
     999901    1    3    3    0    0 -0.55657070418E-01 -0.94530962712E-01 -0.74072469497E-01  0.88989917583E+00  0.88000000000E+00 0.  1.
        -11    1    4    4    0    0  0.10600996131E-01  0.67757819411E-01  0.29735578086E-01  0.74752718582E-01  0.51100000000E-03 0. -1.
         11    1    4    4    0    0  0.31791339831E-01  0.33785626903E-01  0.44481650535E-01  0.64273137692E-01  0.51100000000E-03 0.  1.
</event>
<event>
 8    1  0.2091070E+004  0.1043930E+01  0.7957747E-01            NaN
         13   -1    0    0    0    0  0.00000000000E+00  0.00000000000E+00  0.74505805969E-08  0.10566000000E+00  0.10566000000E+00 0. -1.
     999900   -1    0    0    0    0 -0.00000000000E+00 -0.00000000000E+00 -0.74505805969E-08  0.93827000000E+00  0.93827000000E+00 0. -1.
     999902    2    1    2    0    0 -0.11953229505E-02 -0.90233253748E-02  0.10369398124E-01  0.10301324055E+01  0.10300399988E+01 0.  0.
     999903    2    3    3    0    0 -0.11028209522E+00 -0.32707246940E-02  0.73106861902E-01  0.14116164910E+00  0.49083192166E-01 0.  0.
         14    1    1    2    0    0  0.11953229505E-02  0.90233253748E-02 -0.10369398124E-01  0.13797594545E-01  0.00000000000E+00 0.  1.
     999901    1    3    3    0    0  0.10908677227E+00 -0.57526006808E-02 -0.62737463778E-01  0.88897075636E+00  0.88000000000E+00 0. -1.
        -11    1    4    4    0    0 -0.88722504696E-01  0.17065088077E-01  0.61667051946E-01  0.10938915160E+00  0.51100000000E-03 0. -1.
         11    1    4    4    0    0 -0.21559590521E-01 -0.20335812771E-01  0.11439809956E-01  0.31772497499E-01  0.51100000000E-03 0.  1.
</event>
<event>
 8    1  0.2091070E+004  0.1043930E+01  0.7957747E-01            NaN
         13   -1    0    0    0    0  0.00000000000E+00  0.00000000000E+00  0.74505805969E-08  0.10566000000E+00  0.10566000000E+00 0.  1.
     999900   -1    0    0    0    0 -0.00000000000E+00 -0.00000000000E+00 -0.74505805969E-08  0.93827000000E+00  0.93827000000E+00 0.  1.
     999902    2    1    2    0    0  0.44187468911E-02 -0.20741289938E-02  0.12749812256E-01  0.10302777091E+01  0.10301872513E+01 0.  0.
     999903    2    3    3    0    0 -0.12712278561E+00 -0.17090548414E-01  0.33594836433E-01  0.14012986592E+00  0.45337366739E-01 0.  0.
         14    1    1    2    0    0 -0.44187468911E-02  0.20741289938E-02 -0.12749812256E-01  0.13652290933E-01  0.00000000000E+00 0. -1.
     999901    1    3    3    0    0  0.13154153250E+00  0.15016419420E-01 -0.20845024177E-01  0.89014784315E+00  0.88000000000E+00 0. -1.
        -11    1    4    4    0    0 -0.61236929980E-01 -0.28488475537E-01  0.27711552102E-01  0.73005109908E-01  0.51100000000E-03 0. -1.
         11    1    4    4    0    0 -0.65885855627E-01  0.11397927123E-01  0.58832843303E-02  0.67124756013E-01  0.51100000000E-03 0.  1.
</event>
<event>
 8    1  0.2091070E+004  0.1043930E+01  0.7957747E-01            NaN
         13   -1    0    0    0    0  0.00000000000E+00  0.00000000000E+00  0.74505805969E-08  0.10566000000E+00  0.10566000000E+00 0.  1.
     999900   -1    0    0    0    0 -0.00000000000E+00 -0.00000000000E+00 -0.74505805969E-08  0.93827000000E+00  0.93827000000E+00 0.  1.
     999902    2    1    2    0    0 -0.80082528653E-02  0.11315021784E-01 -0.25979531337E-04  0.10300677308E+01  0.10299744500E+01 0.  0.
     999903    2    3    3    0    0  0.29740237794E-01  0.66216861926E-01  0.11120488185E+00  0.14056704778E+00  0.46080523303E-01 0.  0.
         14    1    1    2    0    0  0.80082528653E-02 -0.11315021784E-01  0.25979531337E-04  0.13862269181E-01  0.00000000000E+00 0.  1.
     999901    1    3    3    0    0 -0.37748490660E-01 -0.54901840142E-01 -0.11123086138E+00  0.88950068304E+00  0.88000000000E+00 0.  1.
        -11    1    4    4    0    0  0.10446182428E-01  0.17520939497E-01  0.72825671911E-01  0.75630322348E-01  0.51100000000E-03 0.  1.
         11    1    4    4    0    0  0.19294055367E-01  0.48695922429E-01  0.38379209938E-01  0.64936725435E-01  0.51100000000E-03 0. -1.
</event>
<event>
 8    1  0.2091070E+004  0.1043930E+01  0.7957747E-01            NaN
         13   -1    0    0    0    0  0.00000000000E+00  0.00000000000E+00  0.74505805969E-08  0.10566000000E+00  0.10566000000E+00 0. -1.
     999900   -1    0    0    0    0 -0.00000000000E+00 -0.00000000000E+00 -0.74505805969E-08  0.93827000000E+00  0.93827000000E+00 0.  1.
     999902    2    1    2    0    0 -0.37035159210E-02  0.18963743053E-01  0.63962469676E-02  0.10235768293E+01  0.10233744544E+01 0.  0.
     999903    2    3    3    0    0  0.11752971396E+00  0.42181574087E-01  0.22983175016E-01  0.13480706731E+00  0.45301216396E-01 0.  0.
         14    1    1    2    0    0  0.37035159210E-02 -0.18963743053E-01 -0.63962469676E-02  0.20353170662E-01  0.00000000000E+00 0.  1.
     999901    1    3    3    0    0 -0.12123322988E+00 -0.23217831035E-01 -0.16586928048E-01  0.88876976202E+00  0.88000000000E+00 0.  1.
        -11    1    4    4    0    0  0.42065059378E-01  0.23492871284E-02 -0.10028691030E-01  0.43310785439E-01  0.51100000000E-03 0. -1.
         11    1    4    4    0    0  0.75464654585E-01  0.39832286959E-01  0.33011866046E-01  0.91496281875E-01  0.51100000000E-03 0.  1.
</event>
<event>
 8    1  0.2091070E+004  0.1043930E+01  0.7957747E-01            NaN
         13   -1    0    0    0    0  0.00000000000E+00  0.00000000000E+00  0.74505805969E-08  0.10566000000E+00  0.10566000000E+00 0.  1.
     999900   -1    0    0    0    0 -0.00000000000E+00 -0.00000000000E+00 -0.74505805969E-08  0.93827000000E+00  0.93827000000E+00 0.  1.
     999902    2    1    2    0    0  0.70497970754E-02 -0.30461355726E-02  0.12077208985E-01  0.10296178528E+01  0.10295183754E+01 0.  0.
     999903    2    3    3    0    0  0.11840154860E+00 -0.49405037650E-01 -0.34180780017E-01  0.14018648281E+00  0.44990441040E-01 0.  0.
         14    1    1    2    0    0 -0.70497970754E-02  0.30461355726E-02 -0.12077208985E-01  0.14312147204E-01  0.00000000000E+00 0. -1.
     999901    1    3    3    0    0 -0.11135175152E+00  0.46358902078E-01  0.46257989001E-01  0.88943136999E+00  0.88000000000E+00 0. -1.
        -11    1    4    4    0    0  0.65446897350E-01 -0.33170355987E-01 -0.41528387556E-01  0.84311547151E-01  0.51100000000E-03 0.  1.
         11    1    4    4    0    0  0.52954651246E-01 -0.16234681663E-01  0.73476075396E-02  0.55874935659E-01  0.51100000000E-03 0. -1.
</event>
<event>
 8    1  0.2091070E+004  0.1043930E+01  0.7957747E-01            NaN
         13   -1    0    0    0    0  0.00000000000E+00  0.00000000000E+00  0.74505805969E-08  0.10566000000E+00  0.10566000000E+00 0.  1.
     999900   -1    0    0    0    0 -0.00000000000E+00 -0.00000000000E+00 -0.74505805969E-08  0.93827000000E+00  0.93827000000E+00 0. -1.
     999902    2    1    2    0    0 -0.51572918145E-02  0.11771733124E-01  0.61174511615E-02  0.10296964281E+01  0.10295980476E+01 0.  0.
     999903    2    3    3    0    0  0.12667839035E+00 -0.33994614575E-01  0.19682706939E-03  0.13868000882E+00  0.45045063037E-01 0.  0.
         14    1    1    2    0    0  0.51572918145E-02 -0.11771733124E-01 -0.61174511615E-02  0.14233571874E-01  0.00000000000E+00 0. -1.
     999901    1    3    3    0    0 -0.13183568217E+00  0.45766347699E-01  0.59206240921E-02  0.89101641930E+00  0.88000000000E+00 0.  1.
        -11    1    4    4    0    0  0.71045752046E-01 -0.21694595803E-01  0.22305588432E-01  0.77562586130E-01  0.51100000000E-03 0. -1.
         11    1    4    4    0    0  0.55632638308E-01 -0.12300018772E-01 -0.22108761363E-01  0.61117422695E-01  0.51100000000E-03 0.  1.
</event>
<event>
 8    1  0.2091070E+004  0.1043930E+01  0.7957747E-01            NaN
         13   -1    0    0    0    0  0.00000000000E+00  0.00000000000E+00  0.74505805969E-08  0.10566000000E+00  0.10566000000E+00 0. -1.
     999900   -1    0    0    0    0 -0.00000000000E+00 -0.00000000000E+00 -0.74505805969E-08  0.93827000000E+00  0.93827000000E+00 0. -1.
     999902    2    1    2    0    0 -0.44340943204E-02  0.30786498529E-02 -0.12451612058E-01  0.10303586360E+01  0.10302692546E+01 0.  0.
     999903    2    3    3    0    0 -0.17150911497E-01  0.82271163641E-01 -0.10437246973E+00  0.14194284612E+00  0.46813042982E-01 0.  0.
         14    1    1    2    0    0  0.44340943204E-02 -0.30786498529E-02  0.12451612058E-01  0.13571363978E-01  0.00000000000E+00 0. -1.
     999901    1    3    3    0    0  0.12716817177E-01 -0.79192513788E-01  0.91920857675E-01  0.88841578991E+00  0.88000000000E+00 0.  1.
        -11    1    4    4    0    0 -0.19257879701E-01  0.17004647864E-01 -0.52838274421E-01  0.58755155896E-01  0.51100000000E-03 0. -1.
         11    1    4    4    0    0  0.21069682039E-02  0.65266515777E-01 -0.51534195313E-01  0.83187690220E-01  0.51100000000E-03 0.  1.
</event>
<event>
 8    1  0.2091070E+004  0.1043930E+01  0.7957747E-01            NaN
         13   -1    0    0    0    0  0.00000000000E+00  0.00000000000E+00  0.74505805969E-08  0.10566000000E+00  0.10566000000E+00 0. -1.
     999900   -1    0    0    0    0 -0.00000000000E+00 -0.00000000000E+00 -0.74505805969E-08  0.93827000000E+00  0.93827000000E+00 0.  1.
     999902    2    1    2    0    0 -0.26866371853E-02 -0.85081159944E-02  0.92220012961E-02  0.10310983452E+01  0.10310184994E+01 0.  0.
     999903    2    3    3    0    0 -0.10910887658E+00 -0.39064955790E-01 -0.66348523317E-01  0.14094649428E+00  0.45088468420E-01 0.  0.
         14    1    1    2    0    0  0.26866371853E-02  0.85081159944E-02 -0.92220012961E-02  0.12831654805E-01  0.00000000000E+00 0. -1.
     999901    1    3    3    0    0  0.10642223939E+00  0.30556839795E-01  0.75570524613E-01  0.89015185091E+00  0.88000000000E+00 0. -1.
        -11    1    4    4    0    0 -0.53787549755E-01  0.41352579740E-02 -0.24766244361E-01  0.59361846736E-01  0.51100000000E-03 0. -1.
         11    1    4    4    0    0 -0.55321326824E-01 -0.43200213764E-01 -0.41582278956E-01  0.81584647544E-01  0.51100000000E-03 0.  1.
</event>
<event>
 8    1  0.2091070E+004  0.1043930E+01  0.7957747E-01            NaN
         13   -1    0    0    0    0  0.00000000000E+00  0.00000000000E+00  0.74505805969E-08  0.10566000000E+00  0.10566000000E+00 0.  1.
     999900   -1    0    0    0    0 -0.00000000000E+00 -0.00000000000E+00 -0.74505805969E-08  0.93827000000E+00  0.93827000000E+00 0.  1.
     999902    2    1    2    0    0 -0.50551042873E-02 -0.47094584674E-02 -0.75507792677E-02  0.10336953849E+01  0.10336447172E+01 0.  0.
     999903    2    3    3    0    0 -0.11429249150E+00 -0.70073344229E-01  0.27600531967E-01  0.14384098165E+00  0.44219808359E-01 0.  0.
         14    1    1    2    0    0  0.50551042873E-02  0.47094584674E-02  0.75507792677E-02  0.10234615086E-01  0.00000000000E+00 0.  1.
     999901    1    3    3    0    0  0.10923738722E+00  0.65363885762E-01 -0.35151311235E-01  0.88985440326E+00  0.88000000000E+00 0.  1.
        -11    1    4    4    0    0 -0.26320090841E-01 -0.17242495067E-01 -0.12232309258E-01  0.33763017176E-01  0.51100000000E-03 0.  1.
         11    1    4    4    0    0 -0.87972400663E-01 -0.52830849162E-01  0.39832841225E-01  0.11007796447E+00  0.51100000000E-03 0. -1.
</event>
<event>
 8    1  0.2091070E+004  0.1043930E+01  0.7957747E-01            NaN
         13   -1    0    0    0    0  0.00000000000E+00  0.00000000000E+00  0.74505805969E-08  0.10566000000E+00  0.10566000000E+00 0. -1.
     999900   -1    0    0    0    0 -0.00000000000E+00 -0.00000000000E+00 -0.74505805969E-08  0.93827000000E+00  0.93827000000E+00 0. -1.
     999902    2    1    2    0    0 -0.70143392600E-02 -0.15156366210E-01 -0.10295312005E-01  0.10243108807E+01  0.10241229763E+01 0.  0.
     999903    2    3    3    0    0  0.46798296248E-01  0.11321927498E+00  0.23726259717E-01  0.13272040728E+00  0.45200512715E-01 0.  0.
         14    1    1    2    0    0  0.70143392600E-02  0.15156366210E-01  0.10295312005E-01  0.19619119277E-01  0.00000000000E+00 0.  1.
     999901    1    3    3    0    0 -0.53812635508E-01 -0.12837564119E+00 -0.34021571722E-01  0.89159047344E+00  0.88000000000E+00 0. -1.
        -11    1    4    4    0    0  0.39988218515E-04  0.54712200814E-01  0.18019743981E-01  0.57605544968E-01  0.51100000000E-03 0.  1.
         11    1    4    4    0    0  0.46758308030E-01  0.58507074166E-01  0.57065157360E-02  0.75114862312E-01  0.51100000000E-03 0. -1.
</event>
<event>
 8    1  0.2091070E+004  0.1043930E+01  0.7957747E-01            NaN
         13   -1    0    0    0    0  0.00000000000E+00  0.00000000000E+00  0.74505805969E-08  0.10566000000E+00  0.10566000000E+00 0.  1.
     999900   -1    0    0    0    0 -0.00000000000E+00 -0.00000000000E+00 -0.74505805969E-08  0.93827000000E+00  0.93827000000E+00 0.  1.
     999902    2    1    2    0    0  0.18074949905E-01 -0.66793584106E-02  0.35888162757E-03  0.10246570542E+01  0.10244757842E+01 0.  0.
     999903    2    3    3    0    0 -0.10680119862E+00  0.37913085042E-01  0.51484430308E-01  0.13325570791E+00  0.47566154803E-01 0.  0.
         14    1    1    2    0    0 -0.18074949905E-01  0.66793584106E-02 -0.35888162757E-03  0.19272945775E-01  0.00000000000E+00 0. -1.
     999901    1    3    3    0    0  0.12487614852E+00 -0.44592443452E-01 -0.51125548681E-01  0.89140134631E+00  0.88000000000E+00 0.  1.
        -11    1    4    4    0    0 -0.37916478774E-01 -0.23545003357E-02  0.35253209020E-01  0.51829073903E-01  0.51100000000E-03 0. -1.
         11    1    4    4    0    0 -0.68884719845E-01  0.40267585377E-01  0.16231221288E-01  0.81426634007E-01  0.51100000000E-03 0.  1.
</event>
<event>
 8    1  0.2091070E+004  0.1043930E+01  0.7957747E-01            NaN
         13   -1    0    0    0    0  0.00000000000E+00  0.00000000000E+00  0.74505805969E-08  0.10566000000E+00  0.10566000000E+00 0.  1.
     999900   -1    0    0    0    0 -0.00000000000E+00 -0.00000000000E+00 -0.74505805969E-08  0.93827000000E+00  0.93827000000E+00 0.  1.
     999902    2    1    2    0    0  0.76105849150E-02  0.97935981528E-02  0.27423633164E-02  0.10312273970E+01  0.10311491590E+01 0.  0.
     999903    2    3    3    0    0  0.71633027806E-01 -0.84526871923E-01 -0.74659119368E-01  0.14050509804E+00  0.43492708813E-01 0.  0.
         14    1    1    2    0    0 -0.76105849150E-02 -0.97935981528E-02 -0.27423633164E-02  0.12702603044E-01  0.00000000000E+00 0. -1.
     999901    1    3    3    0    0 -0.64022442891E-01  0.94320470076E-01  0.77401482685E-01  0.89072229892E+00  0.88000000000E+00 0. -1.
        -11    1    4    4    0    0  0.32583658078E-03 -0.24687341087E-01 -0.78146916748E-02  0.25901766473E-01  0.51100000000E-03 0. -1.
         11    1    4    4    0    0  0.71307191225E-01 -0.59839530836E-01 -0.66844427694E-01  0.11460333156E+00  0.51100000000E-03 0.  1.
</event>
<event>
 8    1  0.2091070E+004  0.1043930E+01  0.7957747E-01            NaN
         13   -1    0    0    0    0  0.00000000000E+00  0.00000000000E+00  0.74505805969E-08  0.10566000000E+00  0.10566000000E+00 0. -1.
     999900   -1    0    0    0    0 -0.00000000000E+00 -0.00000000000E+00 -0.74505805969E-08  0.93827000000E+00  0.93827000000E+00 0. -1.
     999902    2    1    2    0    0 -0.83156269376E-02 -0.79807064276E-02  0.83104529517E-02  0.10297206737E+01  0.10296226303E+01 0.  0.
     999903    2    3    3    0    0 -0.46141923189E-01 -0.46194353233E-01  0.11691792904E+00  0.14141515452E+00  0.45447205093E-01 0.  0.
         14    1    1    2    0    0  0.83156269376E-02  0.79807064276E-02 -0.83104529517E-02  0.14209326329E-01  0.00000000000E+00 0. -1.
     999901    1    3    3    0    0  0.37826296251E-01  0.38213646806E-01 -0.10860747609E+00  0.88830551915E+00  0.88000000000E+00 0. -1.
        -11    1    4    4    0    0 -0.48991245225E-01 -0.41077878856E-01  0.72727170105E-01  0.96835100209E-01  0.51100000000E-03 0.  1.
         11    1    4    4    0    0  0.28493220364E-02 -0.51164743772E-02  0.44190758936E-01  0.44580054312E-01  0.51100000000E-03 0. -1.
</event>
<event>
 8    1  0.2091070E+004  0.1043930E+01  0.7957747E-01            NaN
         13   -1    0    0    0    0  0.00000000000E+00  0.00000000000E+00  0.74505805969E-08  0.10566000000E+00  0.10566000000E+00 0.  1.
     999900   -1    0    0    0    0 -0.00000000000E+00 -0.00000000000E+00 -0.74505805969E-08  0.93827000000E+00  0.93827000000E+00 0. -1.
     999902    2    1    2    0    0 -0.94952232593E-02 -0.29216757785E-02 -0.11520836791E-01  0.10287173364E+01  0.10286048479E+01 0.  0.
     999903    2    3    3    0    0  0.11456861014E+00 -0.31483659060E-01 -0.55230630873E-01  0.13848244168E+00  0.44830534781E-01 0.  0.
         14    1    1    2    0    0  0.94952232593E-02  0.29216757785E-02  0.11520836791E-01  0.15212663621E-01  0.00000000000E+00 0.  1.
     999901    1    3    3    0    0 -0.12406383340E+00  0.28561983282E-01  0.43709794082E-01  0.89023489470E+00  0.88000000000E+00 0. -1.
        -11    1    4    4    0    0  0.83401297666E-01 -0.41758180206E-01 -0.33438402227E-01  0.99085366887E-01  0.51100000000E-03 0. -1.
         11    1    4    4    0    0  0.31167312475E-01  0.10274521146E-01 -0.21792228646E-01  0.39397074790E-01  0.51100000000E-03 0.  1.
</event>
<event>
 8    1  0.2091070E+004  0.1043930E+01  0.7957747E-01            NaN
         13   -1    0    0    0    0  0.00000000000E+00  0.00000000000E+00  0.74505805969E-08  0.10566000000E+00  0.10566000000E+00 0.  1.
     999900   -1    0    0    0    0 -0.00000000000E+00 -0.00000000000E+00 -0.74505805969E-08  0.93827000000E+00  0.93827000000E+00 0. -1.
     999902    2    1    2    0    0 -0.41432407998E-02  0.33692186622E-02 -0.14341342308E-01  0.10286266612E+01  0.10285128176E+01 0.  0.
     999903    2    3    3    0    0 -0.38822339720E-01 -0.12870992050E-01 -0.12683871697E+00  0.14063902411E+00  0.44927035101E-01 0.  0.
         14    1    1    2    0    0  0.41432407998E-02 -0.33692186622E-02  0.14341342308E-01  0.15303338783E-01  0.00000000000E+00 0.  1.
     999901    1    3    3    0    0  0.34679098921E-01  0.16240210713E-01  0.11249737466E+00  0.88798763711E+00  0.88000000000E+00 0.  1.
        -11    1    4    4    0    0 -0.22496058366E-01  0.14538400679E-01 -0.40173412059E-01  0.48286663726E-01  0.51100000000E-03 0.  1.
         11    1    4    4    0    0 -0.16326281355E-01 -0.27409392729E-01 -0.86665304910E-01  0.92352360386E-01  0.51100000000E-03 0. -1.
</event>
<event>
 8    1  0.2091070E+004  0.1043930E+01  0.7957747E-01            NaN
         13   -1    0    0    0    0  0.00000000000E+00  0.00000000000E+00  0.74505805969E-08  0.10566000000E+00  0.10566000000E+00 0.  1.
     999900   -1    0    0    0    0 -0.00000000000E+00 -0.00000000000E+00 -0.74505805969E-08  0.93827000000E+00  0.93827000000E+00 0.  1.
     999902    2    1    2    0    0  0.64029821429E-02  0.11520187379E-01 -0.28232618559E-02  0.10304509902E+01  0.10303628291E+01 0.  0.
     999903    2    3    3    0    0 -0.11376712363E-02 -0.30497083115E-01  0.12926917312E+00  0.13956899810E+00  0.42867467133E-01 0.  0.
         14    1    1    2    0    0 -0.64029821429E-02 -0.11520187379E-01  0.28232618559E-02  0.13479009796E-01  0.00000000000E+00 0.  1.
     999901    1    3    3    0    0  0.75406533792E-02  0.42017270494E-01 -0.13209243497E+00  0.89088199210E+00  0.88000000000E+00 0.  1.
        -11    1    4    4    0    0 -0.14874468428E-01  0.10365500536E-02  0.64811854045E-01  0.66506855231E-01  0.51100000000E-03 0. -1.
         11    1    4    4    0    0  0.13736797191E-01 -0.31533633168E-01  0.64457319073E-01  0.73062142872E-01  0.51100000000E-03 0.  1.
</event>
<event>
 8    1  0.2091070E+004  0.1043930E+01  0.7957747E-01            NaN
         13   -1    0    0    0    0  0.00000000000E+00  0.00000000000E+00  0.74505805969E-08  0.10566000000E+00  0.10566000000E+00 0.  1.
     999900   -1    0    0    0    0 -0.00000000000E+00 -0.00000000000E+00 -0.74505805969E-08  0.93827000000E+00  0.93827000000E+00 0. -1.
     999902    2    1    2    0    0  0.11250681042E-01  0.45231341389E-02 -0.53514802112E-02  0.10306757589E+01  0.10305905322E+01 0.  0.
     999903    2    3    3    0    0 -0.10168136013E+00  0.22545363114E-01 -0.81885523956E-01  0.13998170004E+00  0.45191203972E-01 0.  0.
         14    1    1    2    0    0 -0.11250681042E-01 -0.45231341389E-02  0.53514802112E-02  0.13254241088E-01  0.00000000000E+00 0. -1.
     999901    1    3    3    0    0  0.11293204117E+00 -0.18022228975E-01  0.76534043744E-01  0.89069405887E+00  0.88000000000E+00 0.  1.
        -11    1    4    4    0    0 -0.10046020313E+00  0.20910048974E-01 -0.86948944486E-01  0.13449855995E+00  0.51100000000E-03 0.  1.
         11    1    4    4    0    0 -0.12211570022E-02  0.16353141405E-02  0.50634205302E-02  0.54831400883E-02  0.51100000000E-03 0. -1.
</event>
<event>
 8    1  0.2091070E+004  0.1043930E+01  0.7957747E-01            NaN
         13   -1    0    0    0    0  0.00000000000E+00  0.00000000000E+00  0.74505805969E-08  0.10566000000E+00  0.10566000000E+00 0.  1.
     999900   -1    0    0    0    0 -0.00000000000E+00 -0.00000000000E+00 -0.74505805969E-08  0.93827000000E+00  0.93827000000E+00 0. -1.
     999902    2    1    2    0    0  0.78200443797E-03 -0.57269832088E-03  0.13653247998E-01  0.10302423890E+01  0.10301514594E+01 0.  0.
     999903    2    3    3    0    0 -0.12671114049E+00  0.34662030195E-01  0.19553584694E-01  0.14033744908E+00  0.45333072673E-01 0.  0.
         14    1    1    2    0    0 -0.78200443797E-03  0.57269832088E-03 -0.13653247998E-01  0.13687611011E-01  0.00000000000E+00 0. -1.
     999901    1    3    3    0    0  0.12749314493E+00 -0.35234728516E-01 -0.59003366966E-02  0.88990493991E+00  0.88000000000E+00 0. -1.
        -11    1    4    4    0    0 -0.11718851441E+00  0.31894949419E-01  0.35508466678E-02  0.12150434289E+00  0.51100000000E-03 0.  1.
         11    1    4    4    0    0 -0.95226260867E-02  0.27670807763E-02  0.16002738027E-01  0.18833106195E-01  0.51100000000E-03 0. -1.
</event>
<event>
 8    1  0.2091070E+004  0.1043930E+01  0.7957747E-01            NaN
         13   -1    0    0    0    0  0.00000000000E+00  0.00000000000E+00  0.74505805969E-08  0.10566000000E+00  0.10566000000E+00 0. -1.
     999900   -1    0    0    0    0 -0.00000000000E+00 -0.00000000000E+00 -0.74505805969E-08  0.93827000000E+00  0.93827000000E+00 0.  1.
     999902    2    1    2    0    0  0.38318447459E-03  0.70982251135E-02 -0.10319594169E-01  0.10313990123E+01  0.10313228868E+01 0.  0.
     999903    2    3    3    0    0  0.15853297702E-01  0.88672533320E-01 -0.10184848385E+00  0.14276453745E+00  0.43525329136E-01 0.  0.
         14    1    1    2    0    0 -0.38318447459E-03 -0.70982251135E-02  0.10319594169E-01  0.12530987747E-01  0.00000000000E+00 0. -1.
     999901    1    3    3    0    0 -0.15470113228E-01 -0.81574308206E-01  0.91528889684E-01  0.88863447480E+00  0.88000000000E+00 0. -1.
        -11    1    4    4    0    0  0.43670715132E-02  0.37335757976E-01 -0.74556065709E-01  0.83497893340E-01  0.51100000000E-03 0. -1.
         11    1    4    4    0    0  0.11486226189E-01  0.51336775344E-01 -0.27292418145E-01  0.59266644109E-01  0.51100000000E-03 0.  1.
</event>
<event>
 8    1  0.2091070E+004  0.1043930E+01  0.7957747E-01            NaN
         13   -1    0    0    0    0  0.00000000000E+00  0.00000000000E+00  0.74505805969E-08  0.10566000000E+00  0.10566000000E+00 0.  1.
     999900   -1    0    0    0    0 -0.00000000000E+00 -0.00000000000E+00 -0.74505805969E-08  0.93827000000E+00  0.93827000000E+00 0.  1.
     999902    2    1    2    0    0 -0.70096375020E-02 -0.66182988727E-02 -0.10393332744E-01  0.10297540251E+01  0.10296564447E+01 0.  0.
     999903    2    3    3    0    0  0.54343916660E-01  0.52914226728E-01  0.10637599036E+00  0.13793372091E+00  0.44234413860E-01 0.  0.
         14    1    1    2    0    0  0.70096375020E-02  0.66182988727E-02  0.10393332744E-01  0.14175974866E-01  0.00000000000E+00 0.  1.
     999901    1    3    3    0    0 -0.61353554162E-01 -0.59532525601E-01 -0.11676932311E+00  0.89182030423E+00  0.88000000000E+00 0.  1.
        -11    1    4    4    0    0  0.32528085284E-01  0.46937052464E-01  0.98718880693E-01  0.11404754163E+00  0.51100000000E-03 0.  1.
         11    1    4    4    0    0  0.21815831376E-01  0.59771742638E-02  0.76571096694E-02  0.23886179274E-01  0.51100000000E-03 0. -1.
</event>
<event>
 8    1  0.2091070E+004  0.1043930E+01  0.7957747E-01            NaN
         13   -1    0    0    0    0  0.00000000000E+00  0.00000000000E+00  0.74505805969E-08  0.10566000000E+00  0.10566000000E+00 0. -1.
     999900   -1    0    0    0    0 -0.00000000000E+00 -0.00000000000E+00 -0.74505805969E-08  0.93827000000E+00  0.93827000000E+00 0. -1.
     999902    2    1    2    0    0  0.21399147401E-02  0.13486215968E-01 -0.26578425252E-02  0.10300188037E+01  0.10299248587E+01 0.  0.
     999903    2    3    3    0    0 -0.12850529812E+00  0.32656062929E-01  0.51015317970E-02  0.14013349502E+00  0.45070397242E-01 0.  0.
         14    1    1    2    0    0 -0.21399147401E-02 -0.13486215968E-01  0.26578425252E-02  0.13911196323E-01  0.00000000000E+00 0. -1.
     999901    1    3    3    0    0  0.13064521286E+00 -0.19169846961E-01 -0.77593743222E-02  0.88988530866E+00  0.88000000000E+00 0. -1.
        -11    1    4    4    0    0 -0.34402766418E-01  0.19525666507E-01  0.19377117730E-01  0.44051513053E-01  0.51100000000E-03 0. -1.
         11    1    4    4    0    0 -0.94102531706E-01  0.13130396422E-01 -0.14275585933E-01  0.96081981965E-01  0.51100000000E-03 0.  1.
</event>
<event>
 8    1  0.2091070E+004  0.1043930E+01  0.7957747E-01            NaN
         13   -1    0    0    0    0  0.00000000000E+00  0.00000000000E+00  0.74505805969E-08  0.10566000000E+00  0.10566000000E+00 0.  1.
     999900   -1    0    0    0    0 -0.00000000000E+00 -0.00000000000E+00 -0.74505805969E-08  0.93827000000E+00  0.93827000000E+00 0. -1.
     999902    2    1    2    0    0 -0.15063103065E-02  0.72776782215E-02 -0.11258012297E-01  0.10304401367E+01  0.10303518326E+01 0.  0.
     999903    2    3    3    0    0  0.41234216044E-01 -0.12408035775E+00 -0.19831314079E-01  0.13962299064E+00  0.44778373643E-01 0.  0.
         14    1    1    2    0    0  0.15063103065E-02 -0.72776782215E-02  0.11258012297E-01  0.13489863302E-01  0.00000000000E+00 0.  1.
     999901    1    3    3    0    0 -0.42740526351E-01  0.13135803597E+00  0.85733017822E-02  0.89081714606E+00  0.88000000000E+00 0. -1.
        -11    1    4    4    0    0  0.12440413523E-01 -0.99442217773E-01 -0.12146026759E-01  0.10095199677E+00  0.51100000000E-03 0.  1.
         11    1    4    4    0    0  0.28793802521E-01 -0.24638139973E-01 -0.76852873205E-02  0.38670993873E-01  0.51100000000E-03 0. -1.
</event>
<event>
 8    1  0.2091070E+004  0.1043930E+01  0.7957747E-01            NaN
         13   -1    0    0    0    0  0.00000000000E+00  0.00000000000E+00  0.74505805969E-08  0.10566000000E+00  0.10566000000E+00 0.  1.
     999900   -1    0    0    0    0 -0.00000000000E+00 -0.00000000000E+00 -0.74505805969E-08  0.93827000000E+00  0.93827000000E+00 0. -1.
     999902    2    1    2    0    0  0.11487166910E-01 -0.57738119318E-02 -0.47693971798E-02  0.10302172666E+01  0.10301260007E+01 0.  0.
     999903    2    3    3    0    0  0.50134741124E-02 -0.13333476280E+00  0.90247289092E-02  0.14088944021E+00  0.44329389094E-01 0.  0.
         14    1    1    2    0    0 -0.11487166910E-01  0.57738119318E-02  0.47693971798E-02  0.13712733400E-01  0.00000000000E+00 0. -1.
     999901    1    3    3    0    0  0.64736927973E-02  0.12756095086E+00 -0.13794126089E-01  0.88932782639E+00  0.88000000000E+00 0. -1.
        -11    1    4    4    0    0  0.21646736523E-01 -0.41153087243E-01 -0.21624127081E-02  0.46552066994E-01  0.51100000000E-03 0. -1.
         11    1    4    4    0    0 -0.16633262410E-01 -0.92181675552E-01  0.11187141617E-01  0.94337373212E-01  0.51100000000E-03 0.  1.
</event>
<event>
 8    1  0.2091070E+004  0.1043930E+01  0.7957747E-01            NaN
         13   -1    0    0    0    0  0.00000000000E+00  0.00000000000E+00  0.74505805969E-08  0.10566000000E+00  0.10566000000E+00 0.  1.
     999900   -1    0    0    0    0 -0.00000000000E+00 -0.00000000000E+00 -0.74505805969E-08  0.93827000000E+00  0.93827000000E+00 0.  1.
     999902    2    1    2    0    0  0.11452008171E-01  0.83940327536E-02  0.71056425706E-02  0.10280523921E+01  0.10279297750E+01 0.  0.
     999903    2    3    3    0    0  0.63803868458E-01 -0.10949148155E+00  0.32668121125E-01  0.13828211157E+00  0.44670102761E-01 0.  0.
         14    1    1    2    0    0 -0.11452008171E-01 -0.83940327536E-02 -0.71056425706E-02  0.15877607923E-01  0.00000000000E+00 0. -1.
     999901    1    3    3    0    0 -0.52351860287E-01  0.11788551431E+00 -0.25562478554E-01  0.88977028050E+00  0.88000000000E+00 0.  1.
        -11    1    4    4    0    0  0.43913386989E-01 -0.46439159126E-01 -0.13428779907E-02  0.63930004689E-01  0.51100000000E-03 0. -1.
         11    1    4    4    0    0  0.19890481469E-01 -0.63052322426E-01  0.34010999116E-01  0.74352106884E-01  0.51100000000E-03 0.  1.
</event>
<event>
 8    1  0.2091070E+004  0.1043930E+01  0.7957747E-01            NaN
         13   -1    0    0    0    0  0.00000000000E+00  0.00000000000E+00  0.74505805969E-08  0.10566000000E+00  0.10566000000E+00 0. -1.
     999900   -1    0    0    0    0 -0.00000000000E+00 -0.00000000000E+00 -0.74505805969E-08  0.93827000000E+00  0.93827000000E+00 0.  1.
     999902    2    1    2    0    0  0.61156133176E-02  0.10159288368E-01  0.69946139073E-02  0.10301627748E+01  0.10300707772E+01 0.  0.
     999903    2    3    3    0    0 -0.24188033090E-01 -0.11103419230E+00 -0.58967207415E-01  0.13889562482E+00  0.53862883684E-01 0.  0.
         14    1    1    2    0    0 -0.61156133176E-02 -0.10159288368E-01 -0.69946139073E-02  0.13767225214E-01  0.00000000000E+00 0.  1.
     999901    1    3    3    0    0  0.30303646408E-01  0.12119348067E+00  0.65961821322E-01  0.89126714997E+00  0.88000000000E+00 0.  1.
        -11    1    4    4    0    0  0.13921849594E-02 -0.50302318371E-01 -0.52426057078E-01  0.72670585481E-01  0.51100000000E-03 0. -1.
         11    1    4    4    0    0 -0.25580218050E-01 -0.60731873928E-01 -0.65411503367E-02  0.66225039336E-01  0.51100000000E-03 0.  1.
</event>
<event>
 8    1  0.2091070E+004  0.1043930E+01  0.7957747E-01            NaN
         13   -1    0    0    0    0  0.00000000000E+00  0.00000000000E+00  0.74505805969E-08  0.10566000000E+00  0.10566000000E+00 0.  1.
     999900   -1    0    0    0    0 -0.00000000000E+00 -0.00000000000E+00 -0.74505805969E-08  0.93827000000E+00  0.93827000000E+00 0.  1.
     999902    2    1    2    0    0  0.54113583423E-02 -0.58053992410E-02 -0.11119140345E-01  0.10302690798E+01  0.10301785069E+01 0.  0.
     999903    2    3    3    0    0  0.12151962370E+00  0.37226917453E-01 -0.40469087640E-01  0.14111536473E+00  0.46075338117E-01 0.  0.
         14    1    1    2    0    0 -0.54113583423E-02  0.58053992410E-02  0.11119140345E-01  0.13660920227E-01  0.00000000000E+00 0.  1.
     999901    1    3    3    0    0 -0.11610826535E+00 -0.43032316694E-01  0.29349947296E-01  0.88915371504E+00  0.88000000000E+00 0.  1.
        -11    1    4    4    0    0  0.65350955250E-01  0.15737736366E-01 -0.44858131963E-01  0.80814211759E-01  0.51100000000E-03 0.  1.
         11    1    4    4    0    0  0.56168668446E-01  0.21489181087E-01  0.43890443225E-02  0.60301152973E-01  0.51100000000E-03 0. -1.
</event>
<event>
 8    1  0.2336973E+004  0.1043930E+01  0.7957747E-01            NaN
         13   -1    0    0    0    0  0.00000000000E+00  0.00000000000E+00  0.74505805969E-08  0.10566000000E+00  0.10566000000E+00 0. -1.
     999900   -1    0    0    0    0 -0.00000000000E+00 -0.00000000000E+00 -0.74505805969E-08  0.93827000000E+00  0.93827000000E+00 0.  1.
     999902    2    1    2    0    0  0.18634322027E-02 -0.15510688779E-01  0.28529828964E-02  0.10280494031E+01  0.10279267396E+01 0.  0.
     999903    2    3    3    0    0 -0.12211907561E+00  0.87790241661E-02 -0.44354830995E-01  0.13777403555E+00  0.44991042946E-01 0.  0.
         14    1    1    2    0    0 -0.18634322027E-02  0.15510688779E-01 -0.28529828964E-02  0.15880596883E-01  0.00000000000E+00 0.  1.
     999901    1    3    3    0    0  0.12398250782E+00 -0.24289712945E-01  0.47207813892E-01  0.89027536756E+00  0.88000000000E+00 0. -1.
        -11    1    4    4    0    0 -0.65945898235E-01  0.15016800544E-01 -0.29321108113E-02  0.67699513937E-01  0.51100000000E-03 0. -1.
         11    1    4    4    0    0 -0.56173177380E-01 -0.62377763775E-02 -0.41422720184E-01  0.70074521615E-01  0.51100000000E-03 0.  1.
</event>
<event>
 8    1  0.2091070E+004  0.1043930E+01  0.7957747E-01            NaN
         13   -1    0    0    0    0  0.00000000000E+00  0.00000000000E+00  0.74505805969E-08  0.10566000000E+00  0.10566000000E+00 0.  1.
     999900   -1    0    0    0    0 -0.00000000000E+00 -0.00000000000E+00 -0.74505805969E-08  0.93827000000E+00  0.93827000000E+00 0. -1.
     999902    2    1    2    0    0 -0.14031720250E-01  0.83663439051E-02  0.60732980868E-02  0.10265010060E+01  0.10263530316E+01 0.  0.
     999903    2    3    3    0    0  0.10640374152E+00  0.44903843616E-01  0.59098349728E-01  0.13596670261E+00  0.40696657079E-01 0.  0.
         14    1    1    2    0    0  0.14031720250E-01 -0.83663439051E-02 -0.60732980868E-02  0.17428994038E-01  0.00000000000E+00 0.  1.
     999901    1    3    3    0    0 -0.12043546177E+00 -0.36537499711E-01 -0.53025051641E-01  0.89053430335E+00  0.88000000000E+00 0. -1.
        -11    1    4    4    0    0  0.27760350155E-01  0.19318118386E-01 -0.82916770516E-03  0.33834529387E-01  0.51100000000E-03 0.  1.
         11    1    4    4    0    0  0.78643391369E-01  0.25585725230E-01  0.59927517433E-01  0.10213217323E+00  0.51100000000E-03 0. -1.
</event>
<event>
 8    1  0.2091070E+004  0.1043930E+01  0.7957747E-01            NaN
         13   -1    0    0    0    0  0.00000000000E+00  0.00000000000E+00  0.74505805969E-08  0.10566000000E+00  0.10566000000E+00 0.  1.
     999900   -1    0    0    0    0 -0.00000000000E+00 -0.00000000000E+00 -0.74505805969E-08  0.93827000000E+00  0.93827000000E+00 0.  1.
     999902    2    1    2    0    0 -0.86444874430E-02 -0.16999526517E-02  0.97333568734E-02  0.10308015866E+01  0.10307179807E+01 0.  0.
     999903    2    3    3    0    0 -0.34432979771E-01  0.35587258149E-01 -0.12242396158E+00  0.13977917429E+00  0.45809476750E-01 0.  0.
         14    1    1    2    0    0  0.86444874430E-02  0.16999526517E-02 -0.97333568734E-02  0.13128413392E-01  0.00000000000E+00 0. -1.
     999901    1    3    3    0    0  0.25788492328E-01 -0.37287210801E-01  0.13215731845E+00  0.89102241231E+00  0.88000000000E+00 0. -1.
        -11    1    4    4    0    0 -0.25445138568E-01  0.31048266358E-01 -0.39760502353E-01  0.56503173264E-01  0.51100000000E-03 0.  1.
         11    1    4    4    0    0 -0.89878412033E-02  0.45389917918E-02 -0.82663459222E-01  0.83276001030E-01  0.51100000000E-03 0. -1.
</event>
<event>
 8    1  0.2091070E+004  0.1043930E+01  0.7957747E-01            NaN
         13   -1    0    0    0    0  0.00000000000E+00  0.00000000000E+00  0.74505805969E-08  0.10566000000E+00  0.10566000000E+00 0.  1.
     999900   -1    0    0    0    0 -0.00000000000E+00 -0.00000000000E+00 -0.74505805969E-08  0.93827000000E+00  0.93827000000E+00 0. -1.
     999902    2    1    2    0    0 -0.11913225298E-01 -0.94823639495E-02  0.56964716522E-02  0.10276730030E+01  0.10275444083E+01 0.  0.
     999903    2    3    3    0    0 -0.36200030960E-01 -0.67658126411E-01  0.10725408102E+00  0.13959180382E+00  0.45764281789E-01 0.  0.
         14    1    1    2    0    0  0.11913225298E-01  0.94823639495E-02 -0.56964716522E-02  0.16256997028E-01  0.00000000000E+00 0. -1.
     999901    1    3    3    0    0  0.24286805662E-01  0.58175762462E-01 -0.10155760937E+00  0.88808119915E+00  0.88000000000E+00 0. -1.
        -11    1    4    4    0    0  0.86029146607E-02 -0.47674296784E-02  0.24502245878E-01  0.26407568999E-01  0.51100000000E-03 0.  1.
         11    1    4    4    0    0 -0.44802945621E-01 -0.62890696733E-01  0.82751835141E-01  0.11318423482E+00  0.51100000000E-03 0. -1.
</event>
<event>
 8    1  0.2091070E+004  0.1043930E+01  0.7957747E-01            NaN
         13   -1    0    0    0    0  0.00000000000E+00  0.00000000000E+00  0.74505805969E-08  0.10566000000E+00  0.10566000000E+00 0.  1.
     999900   -1    0    0    0    0 -0.00000000000E+00 -0.00000000000E+00 -0.74505805969E-08  0.93827000000E+00  0.93827000000E+00 0.  1.
     999902    2    1    2    0    0 -0.35719502208E-02 -0.73502319398E-02  0.10705424007E-01  0.10304618583E+01  0.10303738402E+01 0.  0.
     999903    2    3    3    0    0  0.73937101144E-01 -0.11125807802E+00 -0.32464187725E-02  0.14085568282E+00  0.44550300747E-01 0.  0.
         14    1    1    2    0    0  0.35719502208E-02  0.73502319398E-02 -0.10705424007E-01  0.13468141710E-01  0.00000000000E+00 0. -1.
     999901    1    3    3    0    0 -0.77509051365E-01  0.10390784608E+00  0.13951842779E-01  0.88960617547E+00  0.88000000000E+00 0.  1.
        -11    1    4    4    0    0  0.29769411950E-01 -0.64230838380E-01 -0.21170980388E-01  0.73893775235E-01  0.51100000000E-03 0.  1.
         11    1    4    4    0    0  0.44167689194E-01 -0.47027239642E-01  0.17924561616E-01  0.66961907583E-01  0.51100000000E-03 0. -1.
</event>
<event>
 8    1  0.2091070E+004  0.1043930E+01  0.7957747E-01            NaN
         13   -1    0    0    0    0  0.00000000000E+00  0.00000000000E+00  0.74505805969E-08  0.10566000000E+00  0.10566000000E+00 0. -1.
     999900   -1    0    0    0    0 -0.00000000000E+00 -0.00000000000E+00 -0.74505805969E-08  0.93827000000E+00  0.93827000000E+00 0.  1.
     999902    2    1    2    0    0 -0.13495990005E-01 -0.10166774111E-01  0.25634282194E-02  0.10268397628E+01  0.10266975321E+01 0.  0.
     999903    2    3    3    0    0 -0.45336845124E-01 -0.10671830671E+00  0.62419646596E-01  0.13896657066E+00  0.44398974851E-01 0.  0.
         14    1    1    2    0    0  0.13495990005E-01  0.10166774111E-01 -0.25634282194E-02  0.17090237163E-01  0.00000000000E+00 0. -1.
     999901    1    3    3    0    0  0.31840855119E-01  0.96551532600E-01 -0.59856218377E-01  0.88787319217E+00  0.88000000000E+00 0. -1.
        -11    1    4    4    0    0 -0.51560180040E-02 -0.53824046220E-01  0.11534392921E-01  0.55289382473E-01  0.51100000000E-03 0. -1.
         11    1    4    4    0    0 -0.40180827120E-01 -0.52894260491E-01  0.50885253676E-01  0.83677188191E-01  0.51100000000E-03 0.  1.
</event>
<event>
 8    1  0.2091070E+004  0.1043930E+01  0.7957747E-01            NaN
         13   -1    0    0    0    0  0.00000000000E+00  0.00000000000E+00  0.74505805969E-08  0.10566000000E+00  0.10566000000E+00 0. -1.
     999900   -1    0    0    0    0 -0.00000000000E+00 -0.00000000000E+00 -0.74505805969E-08  0.93827000000E+00  0.93827000000E+00 0.  1.
     999902    2    1    2    0    0 -0.16132079656E-02 -0.61682602076E-02 -0.12460013127E-01  0.10299335075E+01  0.10298383991E+01 0.  0.
     999903    2    3    3    0    0  0.42614993296E-01 -0.46932049250E-01  0.11484568812E+00  0.13874073275E+00  0.45175258086E-01 0.  0.
         14    1    1    2    0    0  0.16132079656E-02  0.61682602076E-02  0.12460013127E-01  0.13996492455E-01  0.00000000000E+00 0. -1.
     999901    1    3    3    0    0 -0.44228201261E-01  0.40763789042E-01 -0.12730570125E+00  0.89119277480E+00  0.88000000000E+00 0. -1.
        -11    1    4    4    0    0  0.18671007453E-02 -0.35127105504E-01  0.57463589372E-01  0.67377480146E-01  0.51100000000E-03 0.  1.
         11    1    4    4    0    0  0.40747892551E-01 -0.11804943746E-01  0.57382098747E-01  0.71363252600E-01  0.51100000000E-03 0. -1.
</event>
<event>
 8    1  0.2091070E+004  0.1043930E+01  0.7957747E-01            NaN
         13   -1    0    0    0    0  0.00000000000E+00  0.00000000000E+00  0.74505805969E-08  0.10566000000E+00  0.10566000000E+00 0.  1.
     999900   -1    0    0    0    0 -0.00000000000E+00 -0.00000000000E+00 -0.74505805969E-08  0.93827000000E+00  0.93827000000E+00 0.  1.
     999902    2    1    2    0    0  0.16527558305E-02 -0.81044973511E-02  0.11371411621E-01  0.10298685818E+01  0.10297725828E+01 0.  0.
     999903    2    3    3    0    0 -0.86016859589E-01  0.78789903218E-02 -0.98659050653E-01  0.13855038051E+00  0.44739479677E-01 0.  0.
         14    1    1    2    0    0 -0.16527558305E-02  0.81044973511E-02 -0.11371411621E-01  0.14061418186E-01  0.00000000000E+00 0. -1.
     999901    1    3    3    0    0  0.87669615420E-01 -0.15983487673E-01  0.11003046227E+00  0.89131820130E+00  0.88000000000E+00 0. -1.
        -11    1    4    4    0    0 -0.35347258018E-01 -0.14475703225E-01 -0.59552529276E-01  0.70751250854E-01  0.51100000000E-03 0. -1.
         11    1    4    4    0    0 -0.50669601571E-01  0.22354693547E-01 -0.39106521377E-01  0.67799129656E-01  0.51100000000E-03 0.  1.
</event>
<event>
 8    1  0.2091070E+004  0.1043930E+01  0.7957747E-01            NaN
         13   -1    0    0    0    0  0.00000000000E+00  0.00000000000E+00  0.74505805969E-08  0.10566000000E+00  0.10566000000E+00 0.  1.
     999900   -1    0    0    0    0 -0.00000000000E+00 -0.00000000000E+00 -0.74505805969E-08  0.93827000000E+00  0.93827000000E+00 0.  1.
     999902    2    1    2    0    0  0.31205722741E-02  0.14309615085E-01  0.29707878743E-02  0.10289858160E+01  0.10288772915E+01 0.  0.
     999903    2    3    3    0    0 -0.57602201104E-01  0.70092448011E-01 -0.95836191003E-01  0.13962548478E+00  0.45604118818E-01 0.  0.
         14    1    1    2    0    0 -0.31205722741E-02 -0.14309615085E-01 -0.29707878743E-02  0.14944184012E-01  0.00000000000E+00 0. -1.
     999901    1    3    3    0    0  0.60722773378E-01 -0.55782832926E-01  0.98806978877E-01  0.88936033121E+00  0.88000000000E+00 0. -1.
        -11    1    4    4    0    0 -0.39673265984E-03  0.32879694065E-01 -0.25426907305E-01  0.41569464932E-01  0.51100000000E-03 0. -1.
         11    1    4    4    0    0 -0.57205468444E-01  0.37212753946E-01 -0.70409283698E-01  0.98056019846E-01  0.51100000000E-03 0.  1.
</event>
<event>
 8    1  0.2091070E+004  0.1043930E+01  0.7957747E-01            NaN
         13   -1    0    0    0    0  0.00000000000E+00  0.00000000000E+00  0.74505805969E-08  0.10566000000E+00  0.10566000000E+00 0.  1.
     999900   -1    0    0    0    0 -0.00000000000E+00 -0.00000000000E+00 -0.74505805969E-08  0.93827000000E+00  0.93827000000E+00 0.  1.
     999902    2    1    2    0    0 -0.22070903578E-01 -0.12183254711E-01  0.33930047155E-02  0.10184924498E+01  0.10181747401E+01 0.  0.
     999903    2    3    3    0    0 -0.83048238911E-01  0.90130966977E-01  0.47406228411E-03  0.13046375902E+00  0.44720984888E-01 0.  0.
         14    1    1    2    0    0  0.22070903578E-01  0.12183254711E-01 -0.33930047155E-02  0.25437550218E-01  0.00000000000E+00 0. -1.
     999901    1    3    3    0    0  0.60977335333E-01 -0.10231422169E+00  0.29189424314E-02  0.88802869076E+00  0.88000000000E+00 0. -1.
        -11    1    4    4    0    0 -0.60560613364E-01  0.56135945329E-01 -0.19827930731E-01  0.84924909226E-01  0.51100000000E-03 0.  1.
         11    1    4    4    0    0 -0.22487625546E-01  0.33995021648E-01  0.20301993015E-01  0.45538849798E-01  0.51100000000E-03 0. -1.
</event>
<event>
 8    1  0.2091070E+004  0.1043930E+01  0.7957747E-01            NaN
         13   -1    0    0    0    0  0.00000000000E+00  0.00000000000E+00  0.74505805969E-08  0.10566000000E+00  0.10566000000E+00 0. -1.
     999900   -1    0    0    0    0 -0.00000000000E+00 -0.00000000000E+00 -0.74505805969E-08  0.93827000000E+00  0.93827000000E+00 0. -1.
     999902    2    1    2    0    0  0.32307123834E-02 -0.65355791414E-02 -0.10057437456E-01  0.10315081102E+01  0.10314333125E+01 0.  0.
     999903    2    3    3    0    0  0.10911950410E-03  0.60920323995E-01 -0.12021710485E+00  0.14207278626E+00  0.44958052836E-01 0.  0.
         14    1    1    2    0    0 -0.32307123834E-02  0.65355791414E-02  0.10057437456E-01  0.12421889768E-01  0.00000000000E+00 0. -1.
     999901    1    3    3    0    0  0.31215928793E-02 -0.67455903136E-01  0.11015966739E+00  0.88943532397E+00  0.88000000000E+00 0.  1.
        -11    1    4    4    0    0  0.77092700835E-02 -0.45254333116E-02 -0.83435511830E-02  0.12238805465E-01  0.51100000000E-03 0.  1.
         11    1    4    4    0    0 -0.76001505794E-02  0.65445757306E-01 -0.11187355367E+00  0.12983398079E+00  0.51100000000E-03 0. -1.
</event>
<event>
 7    1  0.2091070E+004  0.1043930E+01  0.7957747E-01            NaN
         13   -1    0    0    0    0  0.00000000000E+00  0.00000000000E+00  0.74505805969E-08  0.10566000000E+00  0.10566000000E+00 0.  1.
     999900   -1    0    0    0    0 -0.00000000000E+00 -0.00000000000E+00 -0.74505805969E-08  0.93827000000E+00  0.93827000000E+00 0. -1.
     999903    2    1    2    0    0  0.95611733466E-01  0.51767758508E-01  0.27754242441E-01  0.12094389642E+00  0.45117886821E-01 0.  0.
         14    1    1    2    0    0  0.11058711275E-01 -0.24272231954E-03 -0.33239242397E-01  0.35031432234E-01  0.00000000000E+00 0. -1.
     999901    1    1    2    0    0 -0.10667044474E+00 -0.51525036188E-01  0.54849999568E-02  0.88795467134E+00  0.88000000000E+00 0.  1.
        -11    1    3    3    0    0  0.88904870503E-01  0.30177369469E-01  0.29087151379E-01  0.98290758078E-01  0.51100000000E-03 0.  1.
         11    1    3    3    0    0  0.67068629637E-02  0.21590389039E-01 -0.13329089385E-02  0.22653138345E-01  0.51100000000E-03 0. -1.
</event>
<event>
 7    1  0.2091070E+004  0.1043930E+01  0.7957747E-01            NaN
         13   -1    0    0    0    0  0.00000000000E+00  0.00000000000E+00  0.74505805969E-08  0.10566000000E+00  0.10566000000E+00 0.  1.
     999900   -1    0    0    0    0 -0.00000000000E+00 -0.00000000000E+00 -0.74505805969E-08  0.93827000000E+00  0.93827000000E+00 0. -1.
     999903    2    1    2    0    0  0.21361719115E-01  0.55355601652E-01 -0.87788032104E-01  0.11505984932E+00  0.44849355253E-01 0.  0.
         14    1    1    2    0    0  0.27885997309E-01 -0.19111939739E-01 -0.21408704823E-01  0.40015343665E-01  0.00000000000E+00 0. -1.
     999901    1    1    2    0    0 -0.49247716423E-01 -0.36243661913E-01  0.10919673693E+00  0.88885480702E+00  0.88000000000E+00 0.  1.
        -11    1    3    3    0    0 -0.30143511491E-03  0.29301150807E-01 -0.71877684339E-01  0.77622876323E-01  0.51100000000E-03 0. -1.
         11    1    3    3    0    0  0.21663154230E-01  0.26054450845E-01 -0.15910347765E-01  0.37436972994E-01  0.51100000000E-03 0.  1.
</event>
<event>
 8    1  0.2091070E+004  0.1043930E+01  0.7957747E-01            NaN
         13   -1    0    0    0    0  0.00000000000E+00  0.00000000000E+00  0.74505805969E-08  0.10566000000E+00  0.10566000000E+00 0. -1.
     999900   -1    0    0    0    0 -0.00000000000E+00 -0.00000000000E+00 -0.74505805969E-08  0.93827000000E+00  0.93827000000E+00 0.  1.
     999902    2    1    2    0    0 -0.60834861350E-02 -0.11194773345E-01 -0.54773551675E-02  0.10300615764E+01  0.10299682121E+01 0.  0.
     999903    2    3    3    0    0 -0.11917284168E+00  0.56797409317E-01  0.17252800344E-01  0.13993304679E+00  0.43075359128E-01 0.  0.
         14    1    1    2    0    0  0.60834861350E-02  0.11194773345E-01  0.54773551675E-02  0.13868423610E-01  0.00000000000E+00 0. -1.
     999901    1    3    3    0    0  0.11308935555E+00 -0.67992182662E-01 -0.22730155512E-01  0.89012852960E+00  0.88000000000E+00 0. -1.
        -11    1    4    4    0    0 -0.16459902100E-01  0.69468418705E-02 -0.12665723708E-01  0.21905904847E-01  0.51100000000E-03 0.  1.
         11    1    4    4    0    0 -0.10271293958E+00  0.49850567447E-01  0.29918524053E-01  0.11802714194E+00  0.51100000000E-03 0. -1.
</event>
<event>
 8    1  0.2091070E+004  0.1043930E+01  0.7957747E-01            NaN
         13   -1    0    0    0    0  0.00000000000E+00  0.00000000000E+00  0.74505805969E-08  0.10566000000E+00  0.10566000000E+00 0.  1.
     999900   -1    0    0    0    0 -0.00000000000E+00 -0.00000000000E+00 -0.74505805969E-08  0.93827000000E+00  0.93827000000E+00 0. -1.
     999902    2    1    2    0    0 -0.49090134639E-02  0.88481300234E-02 -0.11059551393E-01  0.10289399535E+01  0.10288307569E+01 0.  0.
     999903    2    3    3    0    0  0.34054579829E-01  0.96017912726E-01 -0.86417014537E-01  0.14057320495E+00  0.43746675032E-01 0.  0.
         14    1    1    2    0    0  0.49090134639E-02 -0.88481300234E-02  0.11059551393E-01  0.14990046535E-01  0.00000000000E+00 0.  1.
     999901    1    3    3    0    0 -0.38963593293E-01 -0.87169782703E-01  0.75357463143E-01  0.88836674852E+00  0.88000000000E+00 0.  1.
        -11    1    4    4    0    0  0.62354246777E-02  0.76785195690E-01 -0.60909211600E-01  0.98209164423E-01  0.51100000000E-03 0.  1.
         11    1    4    4    0    0  0.27819155151E-01  0.19232717037E-01 -0.25507802937E-01  0.42364040525E-01  0.51100000000E-03 0. -1.
</event>
<event>
 8    1  0.2091070E+004  0.1043930E+01  0.7957747E-01            NaN
         13   -1    0    0    0    0  0.00000000000E+00  0.00000000000E+00  0.74505805969E-08  0.10566000000E+00  0.10566000000E+00 0.  1.
     999900   -1    0    0    0    0 -0.00000000000E+00 -0.00000000000E+00 -0.74505805969E-08  0.93827000000E+00  0.93827000000E+00 0.  1.
     999902    2    1    2    0    0 -0.66555514598E-02  0.15217633418E-01  0.23398626325E-03  0.10273189350E+01  0.10271846312E+01 0.  0.
     999903    2    3    3    0    0  0.71660607628E-01  0.73569125472E-01 -0.80942082242E-01  0.13820259190E+00  0.44728926019E-01 0.  0.
         14    1    1    2    0    0  0.66555514598E-02 -0.15217633418E-01 -0.23398626325E-03  0.16611065037E-01  0.00000000000E+00 0.  1.
     999901    1    3    3    0    0 -0.78316159088E-01 -0.58351492054E-01  0.81176068505E-01  0.88911634306E+00  0.88000000000E+00 0. -1.
        -11    1    4    4    0    0  0.54335032635E-01  0.76223167688E-01 -0.74070864738E-01  0.11936926400E+00  0.51100000000E-03 0. -1.
         11    1    4    4    0    0  0.17325574993E-01 -0.26540422163E-02 -0.68712175031E-02  0.18833327903E-01  0.51100000000E-03 0.  1.
</event>
<event>
 8    1  0.2091070E+004  0.1043930E+01  0.7957747E-01            NaN
         13   -1    0    0    0    0  0.00000000000E+00  0.00000000000E+00  0.74505805969E-08  0.10566000000E+00  0.10566000000E+00 0. -1.
     999900   -1    0    0    0    0 -0.00000000000E+00 -0.00000000000E+00 -0.74505805969E-08  0.93827000000E+00  0.93827000000E+00 0. -1.
     999902    2    1    2    0    0  0.90851185507E-02 -0.10619812217E-02 -0.98236165629E-02  0.10305072348E+01  0.10304198127E+01 0.  0.
     999903    2    3    3    0    0  0.12394325218E+00  0.31310867045E-01 -0.40902534206E-01  0.14190929913E+00  0.46075283161E-01 0.  0.
         14    1    1    2    0    0 -0.90851185507E-02  0.10619812217E-02  0.98236165629E-02  0.13422765198E-01  0.00000000000E+00 0. -1.
     999901    1    3    3    0    0 -0.11485813363E+00 -0.32372848266E-01  0.31078917644E-01  0.88859793568E+00  0.88000000000E+00 0. -1.
        -11    1    4    4    0    0  0.12594621216E-01 -0.94723724728E-02 -0.12107658778E-01  0.19879810007E-01  0.51100000000E-03 0. -1.
         11    1    4    4    0    0  0.11134863096E+00  0.40783239518E-01 -0.28794875429E-01  0.12202948912E+00  0.51100000000E-03 0.  1.
</event>
<event>
 8    1  0.2091070E+004  0.1043930E+01  0.7957747E-01            NaN
         13   -1    0    0    0    0  0.00000000000E+00  0.00000000000E+00  0.74505805969E-08  0.10566000000E+00  0.10566000000E+00 0.  1.
     999900   -1    0    0    0    0 -0.00000000000E+00 -0.00000000000E+00 -0.74505805969E-08  0.93827000000E+00  0.93827000000E+00 0.  1.
     999902    2    1    2    0    0 -0.40786238094E-02  0.12191434710E-01  0.21758731407E-02  0.10308915693E+01  0.10308091127E+01 0.  0.
     999903    2    3    3    0    0  0.95001028878E-01  0.41263486584E-01 -0.83581070531E-01  0.14071393801E+00  0.45680917088E-01 0.  0.
         14    1    1    2    0    0  0.40786238094E-02 -0.12191434710E-01 -0.21758731407E-02  0.13038430748E-01  0.00000000000E+00 0.  1.
     999901    1    3    3    0    0 -0.99079652687E-01 -0.29072051874E-01  0.85756943672E-01  0.89017763124E+00  0.88000000000E+00 0. -1.
        -11    1    4    4    0    0  0.89785172336E-01  0.21076728642E-01 -0.70608536211E-01  0.11615262446E+00  0.51100000000E-03 0.  1.
         11    1    4    4    0    0  0.52158565422E-02  0.20186757942E-01 -0.12972534320E-01  0.24561313551E-01  0.51100000000E-03 0. -1.
</event>
<event>
 8    1  0.2091070E+004  0.1043930E+01  0.7957747E-01            NaN
         13   -1    0    0    0    0  0.00000000000E+00  0.00000000000E+00  0.74505805969E-08  0.10566000000E+00  0.10566000000E+00 0.  1.
     999900   -1    0    0    0    0 -0.00000000000E+00 -0.00000000000E+00 -0.74505805969E-08  0.93827000000E+00  0.93827000000E+00 0. -1.
     999902    2    1    2    0    0 -0.96583272355E-02 -0.10352103589E-01 -0.50172354613E-02  0.10289092815E+01  0.10287996343E+01 0.  0.
     999903    2    3    3    0    0 -0.42161425134E-01 -0.98759802077E-01 -0.79425239732E-01  0.14076012528E+00  0.44429268363E-01 0.  0.
         14    1    1    2    0    0  0.96583272355E-02  0.10352103589E-01  0.50172354613E-02  0.15020718537E-01  0.00000000000E+00 0.  1.
     999901    1    3    3    0    0  0.32503097899E-01  0.88407698488E-01  0.74408004270E-01  0.88814915618E+00  0.88000000000E+00 0.  1.
        -11    1    4    4    0    0 -0.15502540147E-01 -0.22936134640E-01  0.10431130623E-03  0.27688752682E-01  0.51100000000E-03 0.  1.
         11    1    4    4    0    0 -0.26658884987E-01 -0.75823667437E-01 -0.79529551038E-01  0.11307137260E+00  0.51100000000E-03 0. -1.
</event>
<event>
 8    1  0.2091070E+004  0.1043930E+01  0.7957747E-01            NaN
         13   -1    0    0    0    0  0.00000000000E+00  0.00000000000E+00  0.74505805969E-08  0.10566000000E+00  0.10566000000E+00 0.  1.
     999900   -1    0    0    0    0 -0.00000000000E+00 -0.00000000000E+00 -0.74505805969E-08  0.93827000000E+00  0.93827000000E+00 0. -1.
     999902    2    1    2    0    0  0.33400760713E-02  0.76825243786E-02 -0.97000790206E-02  0.10311132601E+01  0.10310336010E+01 0.  0.
     999903    2    3    3    0    0 -0.12345094484E-01 -0.47485655382E-01 -0.12515658066E+00  0.14172034556E+00  0.44868673243E-01 0.  0.
         14    1    1    2    0    0 -0.33400760713E-02 -0.76825243786E-02  0.97000790206E-02  0.12816739913E-01  0.00000000000E+00 0.  1.
     999901    1    3    3    0    0  0.15685170555E-01  0.55168179761E-01  0.11545650164E+00  0.88939291452E+00  0.88000000000E+00 0.  1.
        -11    1    4    4    0    0 -0.40229686816E-02 -0.48398051489E-01 -0.65848027169E-01  0.81821632030E-01  0.51100000000E-03 0.  1.
         11    1    4    4    0    0 -0.83221258023E-02  0.91239610629E-03 -0.59308553494E-01  0.59898713534E-01  0.51100000000E-03 0. -1.
</event>
<event>
 8    1  0.2091070E+004  0.1043930E+01  0.7957747E-01            NaN
         13   -1    0    0    0    0  0.00000000000E+00  0.00000000000E+00  0.74505805969E-08  0.10566000000E+00  0.10566000000E+00 0. -1.
     999900   -1    0    0    0    0 -0.00000000000E+00 -0.00000000000E+00 -0.74505805969E-08  0.93827000000E+00  0.93827000000E+00 0.  1.
     999902    2    1    2    0    0 -0.14966962316E-02 -0.52351631859E-02 -0.12765149553E-01  0.10300521012E+01  0.10299586084E+01 0.  0.
     999903    2    3    3    0    0 -0.52083752116E-01  0.10945030124E+00  0.45405115384E-01  0.13926840929E+00  0.51400191127E-01 0.  0.
         14    1    1    2    0    0  0.14966962316E-02  0.52351631859E-02  0.12765149553E-01  0.13877898843E-01  0.00000000000E+00 0. -1.
     999901    1    3    3    0    0  0.50587055885E-01 -0.11468546442E+00 -0.58170264936E-01  0.89078369187E+00  0.88000000000E+00 0.  1.
        -11    1    4    4    0    0 -0.20540961880E-01  0.83491695666E-01  0.12657755670E-01  0.86909575190E-01  0.51100000000E-03 0.  1.
         11    1    4    4    0    0 -0.31542790237E-01  0.25958605571E-01  0.32747359714E-01  0.52358834100E-01  0.51100000000E-03 0. -1.
</event>
<event>
 8    1  0.2091070E+004  0.1043930E+01  0.7957747E-01            NaN
         13   -1    0    0    0    0  0.00000000000E+00  0.00000000000E+00  0.74505805969E-08  0.10566000000E+00  0.10566000000E+00 0. -1.
     999900   -1    0    0    0    0 -0.00000000000E+00 -0.00000000000E+00 -0.74505805969E-08  0.93827000000E+00  0.93827000000E+00 0. -1.
     999902    2    1    2    0    0  0.13203686320E-01  0.24493583253E-03  0.45963399222E-02  0.10299470223E+01  0.10298520986E+01 0.  0.
     999903    2    3    3    0    0  0.56581296665E-01 -0.34124589947E-01 -0.11517819565E+00  0.14011062114E+00  0.44710609824E-01 0.  0.
         14    1    1    2    0    0 -0.13203686320E-01 -0.24493583253E-03 -0.45963399222E-02  0.13982977748E-01  0.00000000000E+00 0. -1.
     999901    1    3    3    0    0 -0.43377610345E-01  0.34369525780E-01  0.11977453557E+00  0.88983640112E+00  0.88000000000E+00 0.  1.
        -11    1    4    4    0    0  0.22259948929E-01  0.38001001723E-02 -0.63500802986E-01  0.67398510284E-01  0.51100000000E-03 0.  1.
         11    1    4    4    0    0  0.34321347737E-01 -0.37924690120E-01 -0.51677392662E-01  0.72712110851E-01  0.51100000000E-03 0. -1.
</event>
<event>
 8    1  0.2091070E+004  0.1043930E+01  0.7957747E-01            NaN
         13   -1    0    0    0    0  0.00000000000E+00  0.00000000000E+00  0.74505805969E-08  0.10566000000E+00  0.10566000000E+00 0. -1.
     999900   -1    0    0    0    0 -0.00000000000E+00 -0.00000000000E+00 -0.74505805969E-08  0.93827000000E+00  0.93827000000E+00 0. -1.
     999902    2    1    2    0    0  0.95098267017E-02  0.72668956286E-02 -0.60865534652E-02  0.10305027624E+01  0.10304152816E+01 0.  0.
     999903    2    3    3    0    0  0.74713119657E-01 -0.71229649870E-01  0.83575558853E-01  0.14008012600E+00  0.44518023227E-01 0.  0.
         14    1    1    2    0    0 -0.95098267017E-02 -0.72668956286E-02  0.60865534652E-02  0.13427237581E-01  0.00000000000E+00 0.  1.
     999901    1    3    3    0    0 -0.65203292955E-01  0.78496545499E-01 -0.89662112319E-01  0.89042263642E+00  0.88000000000E+00 0. -1.
        -11    1    4    4    0    0  0.11096816657E-01 -0.17955639044E-01 -0.15905614147E-02  0.21173930197E-01  0.51100000000E-03 0.  1.
         11    1    4    4    0    0  0.63616303000E-01 -0.53274010827E-01  0.85166120268E-01  0.11890619580E+00  0.51100000000E-03 0. -1.
</event>
<event>
 8    1  0.2091070E+004  0.1043930E+01  0.7957747E-01            NaN
         13   -1    0    0    0    0  0.00000000000E+00  0.00000000000E+00  0.74505805969E-08  0.10566000000E+00  0.10566000000E+00 0. -1.
     999900   -1    0    0    0    0 -0.00000000000E+00 -0.00000000000E+00 -0.74505805969E-08  0.93827000000E+00  0.93827000000E+00 0. -1.
     999902    2    1    2    0    0  0.70547060012E-02 -0.26486172277E-03  0.12654080487E-01  0.10294398385E+01  0.10293378533E+01 0.  0.
     999903    2    3    3    0    0  0.11884758747E+00  0.56786028670E-01  0.16936135091E-01  0.14052432592E+00  0.45944002928E-01 0.  0.
         14    1    1    2    0    0 -0.70547060012E-02  0.26486172277E-03 -0.12654080487E-01  0.14490161540E-01  0.00000000000E+00 0.  1.
     999901    1    3    3    0    0 -0.11179288146E+00 -0.57050890393E-01 -0.42820546042E-02  0.88891551254E+00  0.88000000000E+00 0. -1.
        -11    1    4    4    0    0  0.17835185740E-01 -0.77300130759E-02 -0.20599380062E-03  0.19446092332E-01  0.51100000000E-03 0.  1.
         11    1    4    4    0    0  0.10101240173E+00  0.64516041746E-01  0.17142128892E-01  0.12107823359E+00  0.51100000000E-03 0. -1.
</event>
<event>
 8    1  0.2091070E+004  0.1043930E+01  0.7957747E-01            NaN
         13   -1    0    0    0    0  0.00000000000E+00  0.00000000000E+00  0.74505805969E-08  0.10566000000E+00  0.10566000000E+00 0. -1.
     999900   -1    0    0    0    0 -0.00000000000E+00 -0.00000000000E+00 -0.74505805969E-08  0.93827000000E+00  0.93827000000E+00 0. -1.
     999902    2    1    2    0    0  0.60138593046E-03 -0.11810621830E-01  0.46129002939E-02  0.10312362495E+01  0.10311581212E+01 0.  0.
     999903    2    3    3    0    0  0.10422673383E+00  0.15199014829E-01  0.82872014440E-01  0.14129680090E+00  0.44752576125E-01 0.  0.
         14    1    1    2    0    0 -0.60138593046E-03  0.11810621830E-01 -0.46129002939E-02  0.12693750516E-01  0.00000000000E+00 0.  1.
     999901    1    3    3    0    0 -0.10362534790E+00 -0.27009636659E-01 -0.78259114146E-01  0.88993944858E+00  0.88000000000E+00 0. -1.
        -11    1    4    4    0    0  0.98928178989E-01  0.25278757538E-01  0.79505978029E-01  0.12941121220E+00  0.51100000000E-03 0.  1.
         11    1    4    4    0    0  0.52985548433E-02 -0.10079742709E-01  0.33660364106E-02  0.11885588695E-01  0.51100000000E-03 0. -1.
</event>
<event>
 8    1  0.2091070E+004  0.1043930E+01  0.7957747E-01            NaN
         13   -1    0    0    0    0  0.00000000000E+00  0.00000000000E+00  0.74505805969E-08  0.10566000000E+00  0.10566000000E+00 0. -1.
     999900   -1    0    0    0    0 -0.00000000000E+00 -0.00000000000E+00 -0.74505805969E-08  0.93827000000E+00  0.93827000000E+00 0.  1.
     999902    2    1    2    0    0 -0.38601087014E-02 -0.90417527639E-02 -0.98135365051E-02  0.10300390234E+01  0.10299453532E+01 0.  0.
     999903    2    3    3    0    0 -0.69349727624E-01  0.24846511238E-01  0.10900388994E+00  0.13899756227E+00  0.44852429739E-01 0.  0.
         14    1    1    2    0    0  0.38601087014E-02  0.90417527639E-02  0.98135365051E-02  0.13890976602E-01  0.00000000000E+00 0. -1.
     999901    1    3    3    0    0  0.65489618923E-01 -0.33888264002E-01 -0.11881742644E+00  0.89104146113E+00  0.88000000000E+00 0.  1.
        -11    1    4    4    0    0 -0.37240058013E-01 -0.10285697655E-01  0.47743536583E-01  0.61419247012E-01  0.51100000000E-03 0. -1.
         11    1    4    4    0    0 -0.32109669611E-01  0.35132208893E-01  0.61260353353E-01  0.77578315257E-01  0.51100000000E-03 0.  1.
</event>
<event>
 8    1  0.2091070E+004  0.1043930E+01  0.7957747E-01            NaN
         13   -1    0    0    0    0  0.00000000000E+00  0.00000000000E+00  0.74505805969E-08  0.10566000000E+00  0.10566000000E+00 0.  1.
     999900   -1    0    0    0    0 -0.00000000000E+00 -0.00000000000E+00 -0.74505805969E-08  0.93827000000E+00  0.93827000000E+00 0.  1.
     999902    2    1    2    0    0  0.13940372733E-01  0.25909052057E-02 -0.14160719224E-02  0.10296803670E+01  0.10295817627E+01 0.  0.
     999903    2    3    3    0    0  0.78624466799E-01  0.75048239305E-01  0.77498812924E-01  0.14082624152E+00  0.44854423336E-01 0.  0.
         14    1    1    2    0    0 -0.13940372733E-01 -0.25909052057E-02  0.14160719224E-02  0.14249633027E-01  0.00000000000E+00 0. -1.
     999901    1    3    3    0    0 -0.64684094066E-01 -0.72457334099E-01 -0.78914884846E-01  0.88885412546E+00  0.88000000000E+00 0.  1.
        -11    1    4    4    0    0  0.34013706454E-01  0.43232032368E-01  0.63997013048E-01  0.84390874207E-01  0.51100000000E-03 0. -1.
         11    1    4    4    0    0  0.44610760345E-01  0.31816206937E-01  0.13501799876E-01  0.56435367309E-01  0.51100000000E-03 0.  1.
</event>
<event>
 8    1  0.2091070E+004  0.1043930E+01  0.7957747E-01            NaN
         13   -1    0    0    0    0  0.00000000000E+00  0.00000000000E+00  0.74505805969E-08  0.10566000000E+00  0.10566000000E+00 0.  1.
     999900   -1    0    0    0    0 -0.00000000000E+00 -0.00000000000E+00 -0.74505805969E-08  0.93827000000E+00  0.93827000000E+00 0.  1.
     999902    2    1    2    0    0  0.59660665826E-02 -0.11795521543E-01  0.52288801624E-02  0.10297148860E+01  0.10296167622E+01 0.  0.
     999903    2    3    3    0    0  0.20731780912E-01  0.12796470732E+00  0.17574957221E-01  0.13847789532E+00  0.45414483504E-01 0.  0.
         14    1    1    2    0    0 -0.59660665826E-02  0.11795521543E-01 -0.52288801624E-02  0.14215114023E-01  0.00000000000E+00 0. -1.
     999901    1    3    3    0    0 -0.14765714329E-01 -0.13976022886E+00 -0.12346077059E-01  0.89123699065E+00  0.88000000000E+00 0.  1.
        -11    1    4    4    0    0  0.35088968238E-01  0.83059862232E-01  0.99089070081E-02  0.90711763102E-01  0.51100000000E-03 0.  1.
         11    1    4    4    0    0 -0.14357187326E-01  0.44904845089E-01  0.76660502129E-02  0.47766132220E-01  0.51100000000E-03 0. -1.
</event>
<event>
 8    1  0.2091070E+004  0.1043930E+01  0.7957747E-01            NaN
         13   -1    0    0    0    0  0.00000000000E+00  0.00000000000E+00  0.74505805969E-08  0.10566000000E+00  0.10566000000E+00 0.  1.
     999900   -1    0    0    0    0 -0.00000000000E+00 -0.00000000000E+00 -0.74505805969E-08  0.93827000000E+00  0.93827000000E+00 0. -1.
     999902    2    1    2    0    0 -0.11664302802E-01 -0.69456318761E-02 -0.68445043875E-02  0.10287265464E+01  0.10286141950E+01 0.  0.
     999903    2    3    3    0    0  0.51792075054E-02  0.49420263806E-01  0.12036197921E+00  0.13763603048E+00  0.44581208837E-01 0.  0.
         14    1    1    2    0    0  0.11664302802E-01  0.69456318761E-02  0.68445043875E-02  0.15203453632E-01  0.00000000000E+00 0.  1.
     999901    1    3    3    0    0 -0.16843510307E-01 -0.56365895682E-01 -0.12720648360E+00  0.89109051589E+00  0.88000000000E+00 0. -1.
        -11    1    4    4    0    0 -0.13530163286E-01  0.24327502786E-01  0.25544366647E-01  0.37784500775E-01  0.51100000000E-03 0. -1.
         11    1    4    4    0    0  0.18709370792E-01  0.25092761020E-01  0.94817612565E-01  0.99851529706E-01  0.51100000000E-03 0.  1.
</event>
<event>
 8    1  0.2091070E+004  0.1043930E+01  0.7957747E-01            NaN
         13   -1    0    0    0    0  0.00000000000E+00  0.00000000000E+00  0.74505805969E-08  0.10566000000E+00  0.10566000000E+00 0. -1.
     999900   -1    0    0    0    0 -0.00000000000E+00 -0.00000000000E+00 -0.74505805969E-08  0.93827000000E+00  0.93827000000E+00 0. -1.
     999902    2    1    2    0    0  0.74965790196E-02 -0.77942799259E-02 -0.50631758860E-02  0.10319890936E+01  0.10319200085E+01 0.  0.
     999903    2    3    3    0    0 -0.39878661664E-01 -0.77624799353E-01  0.10183446090E+00  0.14151291778E+00  0.45163384974E-01 0.  0.
         14    1    1    2    0    0 -0.74965790196E-02  0.77942799259E-02  0.50631758860E-02  0.11940906440E-01  0.00000000000E+00 0. -1.
     999901    1    3    3    0    0  0.47375240683E-01  0.69830519427E-01 -0.10689763679E+00  0.89047617578E+00  0.88000000000E+00 0. -1.
        -11    1    4    4    0    0 -0.30082476712E-01 -0.81109956976E-01  0.97185693092E-01  0.13011187720E+00  0.51100000000E-03 0.  1.
         11    1    4    4    0    0 -0.97961849518E-02  0.34851576229E-02  0.46487678080E-02  0.11401040584E-01  0.51100000000E-03 0. -1.
</event>
<event>
 8    1  0.2091070E+004  0.1043930E+01  0.7957747E-01            NaN
         13   -1    0    0    0    0  0.00000000000E+00  0.00000000000E+00  0.74505805969E-08  0.10566000000E+00  0.10566000000E+00 0.  1.
     999900   -1    0    0    0    0 -0.00000000000E+00 -0.00000000000E+00 -0.74505805969E-08  0.93827000000E+00  0.93827000000E+00 0.  1.
     999902    2    1    2    0    0 -0.59784845509E-02  0.19181521908E-02  0.12555686476E-01  0.10298919500E+01  0.10297962720E+01 0.  0.
     999903    2    3    3    0    0 -0.57516227142E-01  0.11272240917E+00 -0.39221352626E-01  0.13993993776E+00  0.45060112811E-01 0.  0.
         14    1    1    2    0    0  0.59784845509E-02 -0.19181521908E-02 -0.12555686476E-01  0.14038050015E-01  0.00000000000E+00 0. -1.
     999901    1    3    3    0    0  0.51537742591E-01 -0.11080425698E+00  0.51777039102E-01  0.88995201222E+00  0.88000000000E+00 0. -1.
        -11    1    4    4    0    0 -0.33421171980E-01  0.99884506193E-01 -0.21835019019E-01  0.10756820390E+00  0.51100000000E-03 0. -1.
         11    1    4    4    0    0 -0.24095055163E-01  0.12837902975E-01 -0.17386333606E-01  0.32371733864E-01  0.51100000000E-03 0.  1.
</event>
<event>
 8    1  0.2091070E+004  0.1043930E+01  0.7957747E-01            NaN
         13   -1    0    0    0    0  0.00000000000E+00  0.00000000000E+00  0.74505805969E-08  0.10566000000E+00  0.10566000000E+00 0. -1.
     999900   -1    0    0    0    0 -0.00000000000E+00 -0.00000000000E+00 -0.74505805969E-08  0.93827000000E+00  0.93827000000E+00 0. -1.
     999902    2    1    2    0    0 -0.92054919917E-02  0.82533112978E-02  0.61190502109E-02  0.10301350369E+01  0.10300426658E+01 0.  0.
     999903    2    3    3    0    0 -0.60728057241E-02 -0.12155443638E+00 -0.53174475556E-01  0.13863316523E+00  0.39740026120E-01 0.  0.
         14    1    1    2    0    0  0.92054919917E-02 -0.82533112978E-02 -0.61190502109E-02  0.13794963054E-01  0.00000000000E+00 0. -1.
     999901    1    3    3    0    0 -0.31326862676E-02  0.12980774768E+00  0.59293525767E-01  0.89150187172E+00  0.88000000000E+00 0.  1.
        -11    1    4    4    0    0 -0.78257846780E-02 -0.52375478188E-01 -0.43944603713E-01  0.68817315682E-01  0.51100000000E-03 0.  1.
         11    1    4    4    0    0  0.17529789540E-02 -0.69178958196E-01 -0.92298718431E-02  0.69815849544E-01  0.51100000000E-03 0. -1.
</event>
<event>
 8    1  0.2091070E+004  0.1043930E+01  0.7957747E-01            NaN
         13   -1    0    0    0    0  0.00000000000E+00  0.00000000000E+00  0.74505805969E-08  0.10566000000E+00  0.10566000000E+00 0.  1.
     999900   -1    0    0    0    0 -0.00000000000E+00 -0.00000000000E+00 -0.74505805969E-08  0.93827000000E+00  0.93827000000E+00 0. -1.
     999902    2    1    2    0    0  0.34055132663E-03  0.61972984572E-02 -0.12617566900E-01  0.10298685108E+01  0.10297725109E+01 0.  0.
     999903    2    3    3    0    0  0.18213638152E-01  0.22382796798E-01 -0.13133080781E+00  0.14156999616E+00  0.44289462897E-01 0.  0.
         14    1    1    2    0    0 -0.34055132663E-03 -0.61972984572E-02  0.12617566900E-01  0.14061489176E-01  0.00000000000E+00 0.  1.
     999901    1    3    3    0    0 -0.17873086825E-01 -0.16185498341E-01  0.11871324091E+00  0.88829851467E+00  0.88000000000E+00 0.  1.
        -11    1    4    4    0    0  0.39537669309E-02  0.86016863403E-02 -0.11628847271E+00  0.11667429575E+00  0.51100000000E-03 0. -1.
         11    1    4    4    0    0  0.14259871221E-01  0.13781110458E-01 -0.15042335101E-01  0.24895700411E-01  0.51100000000E-03 0.  1.
</event>
<event>
 8    1  0.2091070E+004  0.1043930E+01  0.7957747E-01            NaN
         13   -1    0    0    0    0  0.00000000000E+00  0.00000000000E+00  0.74505805969E-08  0.10566000000E+00  0.10566000000E+00 0.  1.
     999900   -1    0    0    0    0 -0.00000000000E+00 -0.00000000000E+00 -0.74505805969E-08  0.93827000000E+00  0.93827000000E+00 0.  1.
     999902    2    1    2    0    0  0.11386303425E-02 -0.11818651187E-01  0.78753256916E-02  0.10296822721E+01  0.10295836944E+01 0.  0.
     999903    2    3    3    0    0  0.12327962864E+00 -0.37528304186E-01 -0.31429643468E-01  0.14000576331E+00  0.44805700750E-01 0.  0.
         14    1    1    2    0    0 -0.11386303425E-02  0.11818651187E-01 -0.78753256916E-02  0.14247727878E-01  0.00000000000E+00 0. -1.
     999901    1    3    3    0    0 -0.12214099830E+00  0.25709652999E-01  0.39304969160E-01  0.88967650881E+00  0.88000000000E+00 0. -1.
        -11    1    4    4    0    0  0.19130791826E-01 -0.31221692118E-02 -0.22873473219E-01  0.29986530886E-01  0.51100000000E-03 0. -1.
         11    1    4    4    0    0  0.10414883682E+00 -0.34406134974E-01 -0.85561702495E-02  0.11001923243E+00  0.51100000000E-03 0.  1.
</event>
<event>
 8    1  0.2091070E+004  0.1043930E+01  0.7957747E-01            NaN
         13   -1    0    0    0    0  0.00000000000E+00  0.00000000000E+00  0.74505805969E-08  0.10566000000E+00  0.10566000000E+00 0.  1.
     999900   -1    0    0    0    0 -0.00000000000E+00 -0.00000000000E+00 -0.74505805969E-08  0.93827000000E+00  0.93827000000E+00 0.  1.
     999902    2    1    2    0    0 -0.12449504715E-01  0.32182747298E-02 -0.34608137533E-02  0.10306136682E+01  0.10305276360E+01 0.  0.
     999903    2    3    3    0    0 -0.22056910537E-01  0.57955735691E-01  0.11771490091E+00  0.14057319404E+00  0.45372352637E-01 0.  0.
         14    1    1    2    0    0  0.12449504715E-01 -0.32182747298E-02  0.34608137533E-02  0.13316331767E-01  0.00000000000E+00 0. -1.
     999901    1    3    3    0    0  0.96074058222E-02 -0.54737460961E-01 -0.12117571467E+00  0.89004047419E+00  0.88000000000E+00 0.  1.
        -11    1    4    4    0    0  0.11514177860E-02  0.45934773698E-01  0.49603148635E-01  0.67617029461E-01  0.51100000000E-03 0.  1.
         11    1    4    4    0    0 -0.23208328323E-01  0.12020961993E-01  0.68111752277E-01  0.72956164579E-01  0.51100000000E-03 0. -1.
</event>
<event>
 8    1  0.2091070E+004  0.1043930E+01  0.7957747E-01            NaN
         13   -1    0    0    0    0  0.00000000000E+00  0.00000000000E+00  0.74505805969E-08  0.10566000000E+00  0.10566000000E+00 0.  1.
     999900   -1    0    0    0    0 -0.00000000000E+00 -0.00000000000E+00 -0.74505805969E-08  0.93827000000E+00  0.93827000000E+00 0.  1.
     999902    2    1    2    0    0  0.68761697008E-02 -0.93215858258E-02 -0.30128080313E-02  0.10319612622E+01  0.10318918529E+01 0.  0.
     999903    2    3    3    0    0  0.80247362741E-01 -0.10373070292E+00  0.41355401221E-01  0.14276783480E+00  0.38375610596E-01 0.  0.
         14    1    1    2    0    0 -0.68761697008E-02  0.93215858258E-02  0.30128080313E-02  0.11968737790E-01  0.00000000000E+00 0. -1.
     999901    1    3    3    0    0 -0.73371193040E-01  0.94409117091E-01 -0.44368209252E-01  0.88919342741E+00  0.88000000000E+00 0.  1.
        -11    1    4    4    0    0  0.69445629709E-01 -0.63702018475E-01  0.20879132035E-01  0.96523789394E-01  0.51100000000E-03 0.  1.
         11    1    4    4    0    0  0.10801733032E-01 -0.40028684442E-01  0.20476269186E-01  0.46244045405E-01  0.51100000000E-03 0. -1.
</event>
<event>
 8    1  0.2091070E+004  0.1043930E+01  0.7957747E-01            NaN
         13   -1    0    0    0    0  0.00000000000E+00  0.00000000000E+00  0.74505805969E-08  0.10566000000E+00  0.10566000000E+00 0.  1.
     999900   -1    0    0    0    0 -0.00000000000E+00 -0.00000000000E+00 -0.74505805969E-08  0.93827000000E+00  0.93827000000E+00 0.  1.
     999902    2    1    2    0    0  0.77627527944E-02  0.15391766080E-02 -0.95464968117E-02  0.10315297985E+01  0.10314552633E+01 0.  0.
     999903    2    3    3    0    0  0.13136607846E+00 -0.24432805226E-01 -0.21676200618E-01  0.14242943541E+00  0.44297605543E-01 0.  0.
         14    1    1    2    0    0 -0.77627527944E-02 -0.15391766080E-02  0.95464968117E-02  0.12400201488E-01  0.00000000000E+00 0.  1.
     999901    1    3    3    0    0 -0.12360332566E+00  0.25971981834E-01  0.12129703806E-01  0.88910036310E+00  0.88000000000E+00 0. -1.
        -11    1    4    4    0    0  0.14426342612E-01  0.76368961087E-02 -0.12977174593E-01  0.20859283898E-01  0.51100000000E-03 0.  1.
         11    1    4    4    0    0  0.11693973585E+00 -0.32069701334E-01 -0.86990260253E-02  0.12157015151E+00  0.51100000000E-03 0. -1.
</event>
<event>
 8    1  0.2091070E+004  0.1043930E+01  0.7957747E-01            NaN
         13   -1    0    0    0    0  0.00000000000E+00  0.00000000000E+00  0.74505805969E-08  0.10566000000E+00  0.10566000000E+00 0.  1.
     999900   -1    0    0    0    0 -0.00000000000E+00 -0.00000000000E+00 -0.74505805969E-08  0.93827000000E+00  0.93827000000E+00 0.  1.
     999902    2    1    2    0    0  0.97664141029E-02  0.36016295402E-02 -0.82164603405E-02  0.10306685973E+01  0.10305832779E+01 0.  0.
     999903    2    3    3    0    0  0.46045329788E-01  0.12162952090E+00  0.32683764998E-01  0.14110714849E+00  0.43921362810E-01 0.  0.
         14    1    1    2    0    0 -0.97664141029E-02 -0.36016295402E-02  0.82164603405E-02  0.13261402652E-01  0.00000000000E+00 0.  1.
     999901    1    3    3    0    0 -0.36278915685E-01 -0.11802789136E+00 -0.40900225338E-01  0.88956144886E+00  0.88000000000E+00 0. -1.
        -11    1    4    4    0    0  0.34326552708E-01  0.33019368676E-01  0.15468871970E-01  0.50081314375E-01  0.51100000000E-03 0.  1.
         11    1    4    4    0    0  0.11718777080E-01  0.88610152223E-01  0.17214893028E-01  0.91025834115E-01  0.51100000000E-03 0. -1.
</event>
<event>
 8    1  0.2091070E+004  0.1043930E+01  0.7957747E-01            NaN
         13   -1    0    0    0    0  0.00000000000E+00  0.00000000000E+00  0.74505805969E-08  0.10566000000E+00  0.10566000000E+00 0.  1.
     999900   -1    0    0    0    0 -0.00000000000E+00 -0.00000000000E+00 -0.74505805969E-08  0.93827000000E+00  0.93827000000E+00 0. -1.
     999902    2    1    2    0    0  0.11902687238E-01 -0.10995980885E-02 -0.92530103705E-02  0.10288137412E+01  0.10287026843E+01 0.  0.
     999903    2    3    3    0    0  0.11484124099E+00 -0.57441467719E-01 -0.34799736464E-01  0.14065644243E+00  0.45663774420E-01 0.  0.
         14    1    1    2    0    0 -0.11902687238E-01  0.10995980885E-02  0.92530103705E-02  0.15116258809E-01  0.00000000000E+00 0.  1.
     999901    1    3    3    0    0 -0.10293855375E+00  0.56341869630E-01  0.25546726094E-01  0.88815729876E+00  0.88000000000E+00 0. -1.
        -11    1    4    4    0    0  0.77309865234E-01 -0.24119134560E-01 -0.26088971685E-02  0.81028484990E-01  0.51100000000E-03 0. -1.
         11    1    4    4    0    0  0.37531375757E-01 -0.33322333159E-01 -0.32190839296E-01  0.59627957444E-01  0.51100000000E-03 0.  1.
</event>
<event>
 8    1  0.2091070E+004  0.1043930E+01  0.7957747E-01            NaN
         13   -1    0    0    0    0  0.00000000000E+00  0.00000000000E+00  0.74505805969E-08  0.10566000000E+00  0.10566000000E+00 0.  1.
     999900   -1    0    0    0    0 -0.00000000000E+00 -0.00000000000E+00 -0.74505805969E-08  0.93827000000E+00  0.93827000000E+00 0. -1.
     999902    2    1    2    0    0 -0.97481088662E-02  0.98453638679E-02  0.28296869077E-02  0.10297891392E+01  0.10296920449E+01 0.  0.
     999903    2    3    3    0    0  0.29000832123E-01 -0.11831714194E+00  0.48268599472E-01  0.13850253934E+00  0.44867598198E-01 0.  0.
         14    1    1    2    0    0  0.97481088662E-02 -0.98453638679E-02 -0.28296869077E-02  0.14140860800E-01  0.00000000000E+00 0. -1.
     999901    1    3    3    0    0 -0.38748940989E-01  0.12816250580E+00 -0.45438912564E-01  0.89128659986E+00  0.88000000000E+00 0. -1.
        -11    1    4    4    0    0 -0.38794872472E-02 -0.20871059559E-01  0.25470056577E-01  0.33160766750E-01  0.51100000000E-03 0.  1.
         11    1    4    4    0    0  0.32880319370E-01 -0.97446082377E-01  0.22798542894E-01  0.10534177259E+00  0.51100000000E-03 0. -1.
</event>
<event>
 8    1  0.2091070E+004  0.1043930E+01  0.7957747E-01            NaN
         13   -1    0    0    0    0  0.00000000000E+00  0.00000000000E+00  0.74505805969E-08  0.10566000000E+00  0.10566000000E+00 0.  1.
     999900   -1    0    0    0    0 -0.00000000000E+00 -0.00000000000E+00 -0.74505805969E-08  0.93827000000E+00  0.93827000000E+00 0. -1.
     999902    2    1    2    0    0  0.40544214393E-02 -0.86308357287E-02 -0.10624826443E-01  0.10296535650E+01  0.10295545869E+01 0.  0.
     999903    2    3    3    0    0 -0.22078988905E-03  0.36792582515E-01 -0.12811427176E+00  0.14067362480E+00  0.44967312693E-01 0.  0.
         14    1    1    2    0    0 -0.40544214393E-02  0.86308357287E-02  0.10624826443E-01  0.14276434973E-01  0.00000000000E+00 0.  1.
     999901    1    3    3    0    0  0.42752113283E-02 -0.45423418244E-01  0.11748944532E+00  0.88897994022E+00  0.88000000000E+00 0.  1.
        -11    1    4    4    0    0  0.10311330461E-01  0.19721529036E-01 -0.11397186225E+00  0.11612540096E+00  0.51100000000E-03 0. -1.
         11    1    4    4    0    0 -0.10532120350E-01  0.17071053479E-01 -0.14142409509E-01  0.24548223840E-01  0.51100000000E-03 0.  1.
</event>
<event>
 8    1  0.2091070E+004  0.1043930E+01  0.7957747E-01            NaN
         13   -1    0    0    0    0  0.00000000000E+00  0.00000000000E+00  0.74505805969E-08  0.10566000000E+00  0.10566000000E+00 0. -1.
     999900   -1    0    0    0    0 -0.00000000000E+00 -0.00000000000E+00 -0.74505805969E-08  0.93827000000E+00  0.93827000000E+00 0.  1.
     999902    2    1    2    0    0 -0.94337641366E-02 -0.83959628491E-02  0.34589810336E-02  0.10308360072E+01  0.10307528419E+01 0.  0.
     999903    2    3    3    0    0  0.99421688307E-01  0.32288358560E-01  0.81912868527E-01  0.13973571205E+00  0.43464249529E-01 0.  0.
         14    1    1    2    0    0  0.94337641366E-02  0.83959628491E-02 -0.34589810336E-02  0.13093992811E-01  0.00000000000E+00 0.  1.
     999901    1    3    3    0    0 -0.10885545244E+00 -0.40684321409E-01 -0.78453887494E-01  0.89110029514E+00  0.88000000000E+00 0.  1.
        -11    1    4    4    0    0  0.65321091555E-01  0.29613534059E-01  0.30400766882E-01  0.77899128040E-01  0.51100000000E-03 0. -1.
         11    1    4    4    0    0  0.34100596752E-01  0.26748245012E-02  0.51512101645E-01  0.61836584009E-01  0.51100000000E-03 0.  1.
</event>
<event>
 8    1  0.2091070E+004  0.1043930E+01  0.7957747E-01            NaN
         13   -1    0    0    0    0  0.00000000000E+00  0.00000000000E+00  0.74505805969E-08  0.10566000000E+00  0.10566000000E+00 0. -1.
     999900   -1    0    0    0    0 -0.00000000000E+00 -0.00000000000E+00 -0.74505805969E-08  0.93827000000E+00  0.93827000000E+00 0.  1.
     999902    2    1    2    0    0  0.14031629896E-01 -0.15040620917E-02  0.39941955993E-02  0.10292636290E+01  0.10291591303E+01 0.  0.
     999903    2    3    3    0    0  0.44094398882E-01  0.90688754173E-01 -0.85065478868E-01  0.13946875877E+00  0.45239726243E-01 0.  0.
         14    1    1    2    0    0 -0.14031629896E-01  0.15040620917E-02 -0.39941955993E-02  0.14666371016E-01  0.00000000000E+00 0.  1.
     999901    1    3    3    0    0 -0.30062768986E-01 -0.92192816264E-01  0.89059674467E-01  0.88979487022E+00  0.88000000000E+00 0. -1.
        -11    1    4    4    0    0 -0.60932116609E-03  0.46783912761E-01 -0.46074654292E-01  0.65667653032E-01  0.51100000000E-03 0. -1.
         11    1    4    4    0    0  0.44703720048E-01  0.43904841411E-01 -0.38990824576E-01  0.73801105734E-01  0.51100000000E-03 0.  1.
</event>
<event>
 8    1  0.2091070E+004  0.1043930E+01  0.7957747E-01            NaN
         13   -1    0    0    0    0  0.00000000000E+00  0.00000000000E+00  0.74505805969E-08  0.10566000000E+00  0.10566000000E+00 0.  1.
     999900   -1    0    0    0    0 -0.00000000000E+00 -0.00000000000E+00 -0.74505805969E-08  0.93827000000E+00  0.93827000000E+00 0. -1.
     999902    2    1    2    0    0  0.12262175078E-01 -0.13163752143E-01  0.13765890991E-02  0.10258872645E+01  0.10257285894E+01 0.  0.
     999903    2    3    3    0    0  0.11708558781E+00  0.46080405342E-01  0.31684134604E-01  0.13717113129E+00  0.44492653810E-01 0.  0.
         14    1    1    2    0    0 -0.12262175078E-01  0.13163752143E-01 -0.13765890991E-02  0.18042735538E-01  0.00000000000E+00 0.  1.
     999901    1    3    3    0    0 -0.10482341273E+00 -0.59244157485E-01 -0.30307545505E-01  0.88871613318E+00  0.88000000000E+00 0.  1.
        -11    1    4    4    0    0  0.31688144735E-01  0.34767921230E-01  0.70256387438E-02  0.47566454400E-01  0.51100000000E-03 0.  1.
         11    1    4    4    0    0  0.85397443077E-01  0.11312484112E-01  0.24658495860E-01  0.89604676886E-01  0.51100000000E-03 0. -1.
</event>
<event>
 8    1  0.2091070E+004  0.1043930E+01  0.7957747E-01            NaN
         13   -1    0    0    0    0  0.00000000000E+00  0.00000000000E+00  0.74505805969E-08  0.10566000000E+00  0.10566000000E+00 0. -1.
     999900   -1    0    0    0    0 -0.00000000000E+00 -0.00000000000E+00 -0.74505805969E-08  0.93827000000E+00  0.93827000000E+00 0. -1.
     999902    2    1    2    0    0 -0.58998173876E-03  0.12565205798E-01  0.82433360665E-02  0.10288905497E+01  0.10287806269E+01 0.  0.
     999903    2    3    3    0    0 -0.56913974625E-01 -0.11658995507E+00 -0.67691608211E-02  0.13755513428E+00  0.45201496632E-01 0.  0.
         14    1    1    2    0    0  0.58998173876E-03 -0.12565205798E-01 -0.82433360665E-02  0.15039450279E-01  0.00000000000E+00 0. -1.
     999901    1    3    3    0    0  0.56323992886E-01  0.12915516087E+00  0.15012496888E-01  0.89133541544E+00  0.88000000000E+00 0.  1.
        -11    1    4    4    0    0 -0.11731242047E-01 -0.55662121895E-01  0.14632712827E-01  0.58739009691E-01  0.51100000000E-03 0.  1.
         11    1    4    4    0    0 -0.45182732579E-01 -0.60927833177E-01 -0.21401873648E-01  0.78816124591E-01  0.51100000000E-03 0. -1.
</event>
<event>
 8    1  0.2091070E+004  0.1043930E+01  0.7957747E-01            NaN
         13   -1    0    0    0    0  0.00000000000E+00  0.00000000000E+00  0.74505805969E-08  0.10566000000E+00  0.10566000000E+00 0. -1.
     999900   -1    0    0    0    0 -0.00000000000E+00 -0.00000000000E+00 -0.74505805969E-08  0.93827000000E+00  0.93827000000E+00 0. -1.
     999902    2    1    2    0    0 -0.12750126197E-01 -0.46949631671E-02 -0.25402630231E-02  0.10301075063E+01  0.10300147635E+01 0.  0.
     999903    2    3    3    0    0  0.12947435157E+00 -0.19837027664E-02  0.20642143235E-01  0.13838301014E+00  0.44229137750E-01 0.  0.
         14    1    1    2    0    0  0.12750126197E-01  0.46949631671E-02  0.25402630231E-02  0.13822493748E-01  0.00000000000E+00 0.  1.
     999901    1    3    3    0    0 -0.14222447777E+00 -0.27112604006E-02 -0.23182406258E-01  0.89172449611E+00  0.88000000000E+00 0. -1.
        -11    1    4    4    0    0  0.97184202608E-01  0.67144995313E-02 -0.29374383931E-02  0.97461497042E-01  0.51100000000E-03 0.  1.
         11    1    4    4    0    0  0.32290148964E-01 -0.86982022977E-02  0.23579581628E-01  0.40921513096E-01  0.51100000000E-03 0. -1.
</event>
<event>
 8    1  0.2091070E+004  0.1043930E+01  0.7957747E-01            NaN
         13   -1    0    0    0    0  0.00000000000E+00  0.00000000000E+00  0.74505805969E-08  0.10566000000E+00  0.10566000000E+00 0. -1.
     999900   -1    0    0    0    0 -0.00000000000E+00 -0.00000000000E+00 -0.74505805969E-08  0.93827000000E+00  0.93827000000E+00 0. -1.
     999902    2    1    2    0    0 -0.77197171116E-02 -0.88249837088E-02  0.82428020602E-02  0.10295975838E+01  0.10294978224E+01 0.  0.
     999903    2    3    3    0    0 -0.48285678808E-01  0.11049832115E+00  0.53780972916E-01  0.13945300373E+00  0.44870496410E-01 0.  0.
         14    1    1    2    0    0  0.77197171116E-02  0.88249837088E-02 -0.82428020602E-02  0.14332416249E-01  0.00000000000E+00 0.  1.
     999901    1    3    3    0    0  0.40565961696E-01 -0.11932330486E+00 -0.45538170856E-01  0.89014458002E+00  0.88000000000E+00 0. -1.
        -11    1    4    4    0    0  0.69614251244E-02  0.31485792056E-01  0.13149866363E-01  0.34828101406E-01  0.51100000000E-03 0.  1.
         11    1    4    4    0    0 -0.55247103932E-01  0.79012529090E-01  0.40631106553E-01  0.10462490233E+00  0.51100000000E-03 0. -1.
</event>
<event>
 8    1  0.2091070E+004  0.1043930E+01  0.7957747E-01            NaN
         13   -1    0    0    0    0  0.00000000000E+00  0.00000000000E+00  0.74505805969E-08  0.10566000000E+00  0.10566000000E+00 0.  1.
     999900   -1    0    0    0    0 -0.00000000000E+00 -0.00000000000E+00 -0.74505805969E-08  0.93827000000E+00  0.93827000000E+00 0. -1.
     999902    2    1    2    0    0 -0.11688793264E-01 -0.85938959790E-02 -0.24287170224E-02  0.10292200849E+01  0.10291149603E+01 0.  0.
     999903    2    3    3    0    0 -0.68376611721E-01 -0.50589201072E-01  0.10242729202E+00  0.14019145935E+00  0.43905202747E-01 0.  0.
         14    1    1    2    0    0  0.11688793264E-01  0.85938959790E-02  0.24287170224E-02  0.14709915107E-01  0.00000000000E+00 0.  1.
     999901    1    3    3    0    0  0.56687818457E-01  0.41995305093E-01 -0.10485600904E+00  0.88902862555E+00  0.88000000000E+00 0. -1.
        -11    1    4    4    0    0 -0.27223781658E-01 -0.89447123863E-02  0.91949679769E-02  0.30099015341E-01  0.51100000000E-03 0.  1.
         11    1    4    4    0    0 -0.41152830063E-01 -0.41644488685E-01  0.93232324040E-01  0.11009244400E+00  0.51100000000E-03 0. -1.
</event>
<event>
 8    1  0.2091070E+004  0.1043930E+01  0.7957747E-01            NaN
         13   -1    0    0    0    0  0.00000000000E+00  0.00000000000E+00  0.74505805969E-08  0.10566000000E+00  0.10566000000E+00 0.  1.
     999900   -1    0    0    0    0 -0.00000000000E+00 -0.00000000000E+00 -0.74505805969E-08  0.93827000000E+00  0.93827000000E+00 0.  1.
     999902    2    1    2    0    0 -0.12818355409E-02 -0.27968020017E-02 -0.13202518288E-01  0.10303737582E+01  0.10302845771E+01 0.  0.
     999903    2    3    3    0    0  0.64821496551E-01 -0.54290986890E-01 -0.10445002027E+00  0.14169642177E+00  0.44930296413E-01 0.  0.
         14    1    1    2    0    0  0.12818355409E-02  0.27968020017E-02  0.13202518288E-01  0.13556241844E-01  0.00000000000E+00 0.  1.
     999901    1    3    3    0    0 -0.66103332092E-01  0.51494184888E-01  0.91247501979E-01  0.88867733639E+00  0.88000000000E+00 0. -1.
        -11    1    4    4    0    0  0.36725133429E-02 -0.77718506360E-02 -0.41452906678E-01  0.42337850792E-01  0.51100000000E-03 0.  1.
         11    1    4    4    0    0  0.61148983208E-01 -0.46519136254E-01 -0.62997113588E-01  0.99358570977E-01  0.51100000000E-03 0. -1.
</event>
<event>
 8    1  0.2091070E+004  0.1043930E+01  0.7957747E-01            NaN
         13   -1    0    0    0    0  0.00000000000E+00  0.00000000000E+00  0.74505805969E-08  0.10566000000E+00  0.10566000000E+00 0. -1.
     999900   -1    0    0    0    0 -0.00000000000E+00 -0.00000000000E+00 -0.74505805969E-08  0.93827000000E+00  0.93827000000E+00 0.  1.
     999902    2    1    2    0    0  0.12237646817E-01  0.30838761647E-02 -0.21135193112E-02  0.10311340141E+01  0.10310546143E+01 0.  0.
     999903    2    3    3    0    0 -0.10422348099E+00  0.80267240102E-01 -0.15888573461E-01  0.14000539369E+00  0.45207296661E-01 0.  0.
         14    1    1    2    0    0 -0.12237646817E-01 -0.30838761647E-02  0.21135193112E-02  0.12795985921E-01  0.00000000000E+00 0. -1.
     999901    1    3    3    0    0  0.11646112781E+00 -0.77183363937E-01  0.13775054150E-01  0.89112862039E+00  0.88000000000E+00 0. -1.
        -11    1    4    4    0    0 -0.20307578712E-01  0.38236287559E-01  0.57801175741E-02  0.43681601614E-01  0.51100000000E-03 0.  1.
         11    1    4    4    0    0 -0.83915902283E-01  0.42030952543E-01 -0.21668691035E-01  0.96323792076E-01  0.51100000000E-03 0. -1.
</event>
<event>
 8    1  0.2091070E+004  0.1043930E+01  0.7957747E-01            NaN
         13   -1    0    0    0    0  0.00000000000E+00  0.00000000000E+00  0.74505805969E-08  0.10566000000E+00  0.10566000000E+00 0.  1.
     999900   -1    0    0    0    0 -0.00000000000E+00 -0.00000000000E+00 -0.74505805969E-08  0.93827000000E+00  0.93827000000E+00 0.  1.
     999902    2    1    2    0    0  0.74759822551E-02  0.91009161374E-02  0.71434177667E-02  0.10301551896E+01  0.10300630899E+01 0.  0.
     999903    2    3    3    0    0  0.11501655971E+00 -0.28368162599E-01 -0.60455139823E-01  0.14024593989E+00  0.44503236615E-01 0.  0.
         14    1    1    2    0    0 -0.74759822551E-02 -0.91009161374E-02 -0.71434177667E-02  0.13774810438E-01  0.00000000000E+00 0. -1.
     999901    1    3    3    0    0 -0.10754057745E+00  0.37469078736E-01  0.67598557590E-01  0.88990924967E+00  0.88000000000E+00 0. -1.
        -11    1    4    4    0    0  0.29103674731E-01  0.38857858740E-02 -0.33607338981E-01  0.44630007496E-01  0.51100000000E-03 0.  1.
         11    1    4    4    0    0  0.85912884975E-01 -0.32253948473E-01 -0.26847800842E-01  0.95615932396E-01  0.51100000000E-03 0. -1.
</event>
<event>
 8    1  0.2091070E+004  0.1043930E+01  0.7957747E-01            NaN
         13   -1    0    0    0    0  0.00000000000E+00  0.00000000000E+00  0.74505805969E-08  0.10566000000E+00  0.10566000000E+00 0.  1.
     999900   -1    0    0    0    0 -0.00000000000E+00 -0.00000000000E+00 -0.74505805969E-08  0.93827000000E+00  0.93827000000E+00 0.  1.
     999902    2    1    2    0    0  0.10540340297E-01  0.78676147491E-02  0.15496770122E-02  0.10306861473E+01  0.10306010550E+01 0.  0.
     999903    2    3    3    0    0 -0.78153905463E-01  0.29002143638E-01 -0.10256266587E+00  0.13987038774E+00  0.45776278377E-01 0.  0.
         14    1    1    2    0    0 -0.10540340297E-01 -0.78676147491E-02 -0.15496770122E-02  0.13243852697E-01  0.00000000000E+00 0. -1.
     999901    1    3    3    0    0  0.88694245760E-01 -0.21134528889E-01  0.10411234288E+00  0.89081575956E+00  0.88000000000E+00 0. -1.
        -11    1    4    4    0    0 -0.40020076880E-02  0.20983348841E-02 -0.37056112548E-01  0.37334108708E-01  0.51100000000E-03 0. -1.
         11    1    4    4    0    0 -0.74151897775E-01  0.26903808754E-01 -0.65506553322E-01  0.10253627903E+00  0.51100000000E-03 0.  1.
</event>
<event>
 8    1  0.2091070E+004  0.1043930E+01  0.7957747E-01            NaN
         13   -1    0    0    0    0  0.00000000000E+00  0.00000000000E+00  0.74505805969E-08  0.10566000000E+00  0.10566000000E+00 0.  1.
     999900   -1    0    0    0    0 -0.00000000000E+00 -0.00000000000E+00 -0.74505805969E-08  0.93827000000E+00  0.93827000000E+00 0. -1.
     999902    2    1    2    0    0 -0.20530398214E-02 -0.12254784997E-01 -0.44616632420E-02  0.10307276833E+01  0.10306431273E+01 0.  0.
     999903    2    3    3    0    0  0.96398160320E-01  0.11330707973E-01  0.90234815524E-01  0.13987621565E+00  0.44744200924E-01 0.  0.
         14    1    1    2    0    0  0.20530398214E-02  0.12254784997E-01  0.44616632420E-02  0.13202316718E-01  0.00000000000E+00 0.  1.
     999901    1    3    3    0    0 -0.98451200141E-01 -0.23585492970E-01 -0.94696478766E-01  0.89085146763E+00  0.88000000000E+00 0.  1.
        -11    1    4    4    0    0  0.37953920480E-01  0.27801827976E-02  0.65673747998E-01  0.75904754747E-01  0.51100000000E-03 0.  1.
         11    1    4    4    0    0  0.58444239840E-01  0.85505251755E-02  0.24561067526E-01  0.63971460905E-01  0.51100000000E-03 0. -1.
</event>
<event>
 8    1  0.2091070E+004  0.1043930E+01  0.7957747E-01            NaN
         13   -1    0    0    0    0  0.00000000000E+00  0.00000000000E+00  0.74505805969E-08  0.10566000000E+00  0.10566000000E+00 0.  1.
     999900   -1    0    0    0    0 -0.00000000000E+00 -0.00000000000E+00 -0.74505805969E-08  0.93827000000E+00  0.93827000000E+00 0. -1.
     999902    2    1    2    0    0  0.11865788071E-01 -0.10169684158E-01 -0.20439480021E-02  0.10281693805E+01  0.10280485776E+01 0.  0.
     999903    2    3    3    0    0  0.16550621336E-02  0.92703720834E-01  0.90875665179E-01  0.13725903101E+00  0.44552620408E-01 0.  0.
         14    1    1    2    0    0 -0.11865788071E-01  0.10169684158E-01  0.20439480021E-02  0.15760619463E-01  0.00000000000E+00 0. -1.
     999901    1    3    3    0    0  0.10210725937E-01 -0.10287340499E+00 -0.92919613182E-01  0.89091034953E+00  0.88000000000E+00 0. -1.
        -11    1    4    4    0    0  0.16901061525E-01  0.51615678049E-01  0.70308948292E-01  0.88844996663E-01  0.51100000000E-03 0. -1.
         11    1    4    4    0    0 -0.15245999392E-01  0.41088042784E-01  0.20566716887E-01  0.48414034348E-01  0.51100000000E-03 0.  1.
</event>
<event>
 8    1  0.2091070E+004  0.1043930E+01  0.7957747E-01            NaN
         13   -1    0    0    0    0  0.00000000000E+00  0.00000000000E+00  0.74505805969E-08  0.10566000000E+00  0.10566000000E+00 0.  1.
     999900   -1    0    0    0    0 -0.00000000000E+00 -0.00000000000E+00 -0.74505805969E-08  0.93827000000E+00  0.93827000000E+00 0. -1.
     999902    2    1    2    0    0  0.11078235572E-01 -0.68567259189E-02 -0.48174967637E-02  0.10300393460E+01  0.10299456801E+01 0.  0.
     999903    2    3    3    0    0  0.35783390644E-01  0.55933490254E-01  0.11411197298E+00  0.13947931168E+00  0.44988105448E-01 0.  0.
         14    1    1    2    0    0 -0.11078235572E-01  0.68567259189E-02  0.48174967637E-02  0.13890654009E-01  0.00000000000E+00 0.  1.
     999901    1    3    3    0    0 -0.24705155072E-01 -0.62790216172E-01 -0.11892946975E+00  0.89056003431E+00  0.88000000000E+00 0. -1.
        -11    1    4    4    0    0  0.42276677009E-01  0.42643285499E-01  0.66409340348E-01  0.89533395018E-01  0.51100000000E-03 0.  1.
         11    1    4    4    0    0 -0.64932863654E-02  0.13290204755E-01  0.47702632634E-01  0.49945916664E-01  0.51100000000E-03 0. -1.
</event>
<event>
 8    1  0.2091070E+004  0.1043930E+01  0.7957747E-01            NaN
         13   -1    0    0    0    0  0.00000000000E+00  0.00000000000E+00  0.74505805969E-08  0.10566000000E+00  0.10566000000E+00 0. -1.
     999900   -1    0    0    0    0 -0.00000000000E+00 -0.00000000000E+00 -0.74505805969E-08  0.93827000000E+00  0.93827000000E+00 0.  1.
     999902    2    1    2    0    0  0.72413139487E-02  0.81383192649E-02  0.81938733404E-02  0.10302988435E+01  0.10302086674E+01 0.  0.
     999903    2    3    3    0    0 -0.46430012169E-01  0.76069942010E-01  0.10005121375E+00  0.14129204506E+00  0.44842106530E-01 0.  0.
         14    1    1    2    0    0 -0.72413139487E-02 -0.81383192649E-02 -0.81938733404E-02  0.13631156535E-01  0.00000000000E+00 0. -1.
     999901    1    3    3    0    0  0.53671326118E-01 -0.67931622745E-01 -0.91857340410E-01  0.88900679840E+00  0.88000000000E+00 0.  1.
        -11    1    4    4    0    0 -0.23735437382E-01  0.25896723215E-01  0.11412490023E-01  0.36939373445E-01  0.51100000000E-03 0.  1.
         11    1    4    4    0    0 -0.22694574787E-01  0.50173218795E-01  0.88638723727E-01  0.10435267162E+00  0.51100000000E-03 0. -1.
</event>
<event>
 8    1  0.2091070E+004  0.1043930E+01  0.7957747E-01            NaN
         13   -1    0    0    0    0  0.00000000000E+00  0.00000000000E+00  0.74505805969E-08  0.10566000000E+00  0.10566000000E+00 0.  1.
     999900   -1    0    0    0    0 -0.00000000000E+00 -0.00000000000E+00 -0.74505805969E-08  0.93827000000E+00  0.93827000000E+00 0.  1.
     999902    2    1    2    0    0  0.26965540561E-02  0.11384972423E-01  0.79959837455E-02  0.10297587348E+01  0.10296612196E+01 0.  0.
     999903    2    3    3    0    0  0.63763953840E-01  0.11498992672E+00  0.28199621210E-01  0.14134925668E+00  0.43541574052E-01 0.  0.
         14    1    1    2    0    0 -0.26965540561E-02 -0.11384972423E-01 -0.79959837455E-02  0.14171265184E-01  0.00000000000E+00 0.  1.
     999901    1    3    3    0    0 -0.61067399784E-01 -0.10360495430E+00 -0.20203637464E-01  0.88840947813E+00  0.88000000000E+00 0.  1.
        -11    1    4    4    0    0  0.27872403191E-01  0.63853288737E-01  0.35935603670E-01  0.78394783464E-01  0.51100000000E-03 0. -1.
         11    1    4    4    0    0  0.35891550648E-01  0.51136637986E-01 -0.77359824604E-02  0.62954473218E-01  0.51100000000E-03 0.  1.
</event>
<event>
 8    1  0.2091070E+004  0.1043930E+01  0.7957747E-01            NaN
         13   -1    0    0    0    0  0.00000000000E+00  0.00000000000E+00  0.74505805969E-08  0.10566000000E+00  0.10566000000E+00 0.  1.
     999900   -1    0    0    0    0 -0.00000000000E+00 -0.00000000000E+00 -0.74505805969E-08  0.93827000000E+00  0.93827000000E+00 0.  1.
     999902    2    1    2    0    0 -0.31877839689E-02 -0.12150601162E-01 -0.14271250443E-02  0.10312873831E+01  0.10312098869E+01 0.  0.
     999903    2    3    3    0    0  0.73765890411E-01  0.40238406900E-02  0.11091298211E+00  0.14066749775E+00  0.45033958760E-01 0.  0.
         14    1    1    2    0    0  0.31877839689E-02  0.12150601162E-01  0.14271250443E-02  0.12642616862E-01  0.00000000000E+00 0.  1.
     999901    1    3    3    0    0 -0.76953674380E-01 -0.16174441852E-01 -0.11234010715E+00  0.89061988539E+00  0.88000000000E+00 0.  1.
        -11    1    4    4    0    0  0.82892939632E-02  0.86166480754E-04  0.51495787160E-01  0.52161259909E-01  0.51100000000E-03 0.  1.
         11    1    4    4    0    0  0.65476596447E-01  0.39376742092E-02  0.59417194948E-01  0.88506237843E-01  0.51100000000E-03 0. -1.
</event>
<event>
 8    1  0.2091070E+004  0.1043930E+01  0.7957747E-01            NaN
         13   -1    0    0    0    0  0.00000000000E+00  0.00000000000E+00  0.74505805969E-08  0.10566000000E+00  0.10566000000E+00 0. -1.
     999900   -1    0    0    0    0 -0.00000000000E+00 -0.00000000000E+00 -0.74505805969E-08  0.93827000000E+00  0.93827000000E+00 0.  1.
     999902    2    1    2    0    0  0.68944154127E-02 -0.70808603089E-02 -0.10348227981E-01  0.10296206545E+01  0.10295212163E+01 0.  0.
     999903    2    3    3    0    0  0.44994367074E-01 -0.12257669997E+00 -0.31088266187E-01  0.14101441746E+00  0.43232455321E-01 0.  0.
         14    1    1    2    0    0 -0.68944154127E-02  0.70808603089E-02  0.10348227981E-01  0.14309345511E-01  0.00000000000E+00 0. -1.
     999901    1    3    3    0    0 -0.38099951662E-01  0.11549583966E+00  0.20740038205E-01  0.88860623703E+00  0.88000000000E+00 0.  1.
        -11    1    4    4    0    0  0.52174292944E-01 -0.10422008580E+00 -0.19581386168E-01  0.11818491838E+00  0.51100000000E-03 0. -1.
         11    1    4    4    0    0 -0.71799258695E-02 -0.18356614175E-01 -0.11506880019E-01  0.22829499079E-01  0.51100000000E-03 0.  1.
</event>
<event>
 8    1  0.2091070E+004  0.1043930E+01  0.7957747E-01            NaN
         13   -1    0    0    0    0  0.00000000000E+00  0.00000000000E+00  0.74505805969E-08  0.10566000000E+00  0.10566000000E+00 0.  1.
     999900   -1    0    0    0    0 -0.00000000000E+00 -0.00000000000E+00 -0.74505805969E-08  0.93827000000E+00  0.93827000000E+00 0.  1.
     999902    2    1    2    0    0 -0.77442136164E-02 -0.15420054064E-02 -0.11063774901E-01  0.10303374381E+01  0.10302477753E+01 0.  0.
     999903    2    3    3    0    0  0.74383256197E-01  0.40528554046E-01  0.10033530447E+00  0.13852770041E+00  0.44128425782E-01 0.  0.
         14    1    1    2    0    0  0.77442136164E-02  0.15420054064E-02  0.11063774901E-01  0.13592561947E-01  0.00000000000E+00 0. -1.
     999901    1    3    3    0    0 -0.82127469813E-01 -0.42070559452E-01 -0.11139907937E+00  0.89180973764E+00  0.88000000000E+00 0.  1.
        -11    1    4    4    0    0  0.22245626305E-01  0.82483755673E-02  0.36146103056E-02  0.24004793643E-01  0.51100000000E-03 0. -1.
         11    1    4    4    0    0  0.52137629892E-01  0.32280178478E-01  0.96720694165E-01  0.11452290677E+00  0.51100000000E-03 0.  1.
</event>
<event>
 8    1  0.2091070E+004  0.1043930E+01  0.7957747E-01            NaN
         13   -1    0    0    0    0  0.00000000000E+00  0.00000000000E+00  0.74505805969E-08  0.10566000000E+00  0.10566000000E+00 0.  1.
     999900   -1    0    0    0    0 -0.00000000000E+00 -0.00000000000E+00 -0.74505805969E-08  0.93827000000E+00  0.93827000000E+00 0.  1.
     999902    2    1    2    0    0  0.12152527778E-01 -0.10513262356E-01 -0.28921289356E-02  0.10276028133E+01  0.10274730969E+01 0.  0.
     999903    2    3    3    0    0 -0.57827289424E-01  0.10374721932E+00 -0.49746183910E-01  0.13622862980E+00  0.44453074651E-01 0.  0.
         14    1    1    2    0    0 -0.12152527778E-01  0.10513262356E-01  0.28921289356E-02  0.16327186730E-01  0.00000000000E+00 0. -1.
     999901    1    3    3    0    0  0.69979817202E-01 -0.11426048167E+00  0.46854054974E-01  0.89137418347E+00  0.88000000000E+00 0.  1.
        -11    1    4    4    0    0 -0.44583863424E-01  0.51240444904E-01 -0.91258085436E-02  0.68533536129E-01  0.51100000000E-03 0.  1.
         11    1    4    4    0    0 -0.13243426000E-01  0.52506774412E-01 -0.40620375366E-01  0.67695093672E-01  0.51100000000E-03 0. -1.
</event>
<event>
 7    1  0.2091070E+004  0.1043930E+01  0.7957747E-01            NaN
         13   -1    0    0    0    0  0.00000000000E+00  0.00000000000E+00  0.74505805969E-08  0.10566000000E+00  0.10566000000E+00 0. -1.
     999900   -1    0    0    0    0 -0.00000000000E+00 -0.00000000000E+00 -0.74505805969E-08  0.93827000000E+00  0.93827000000E+00 0.  1.
     999903    2    1    2    0    0  0.70816226405E-01 -0.92341557945E-01  0.21167672923E-01  0.12670539991E+00  0.45434422456E-01 0.  0.
         14    1    1    2    0    0 -0.27551261110E-03  0.44550362209E-02  0.28309719083E-01  0.28659439099E-01  0.00000000000E+00 0. -1.
     999901    1    1    2    0    0 -0.70540713794E-01  0.87886521724E-01 -0.49477392006E-01  0.88856516099E+00  0.88000000000E+00 0.  1.
        -11    1    3    3    0    0  0.73285602498E-01 -0.78047567203E-01  0.27998945951E-01  0.11066347354E+00  0.51100000000E-03 0. -1.
         11    1    3    3    0    0 -0.24693760932E-02 -0.14293990742E-01 -0.68312730288E-02  0.16041926375E-01  0.51100000000E-03 0.  1.
</event>
<event>
 8    1  0.2091070E+004  0.1043930E+01  0.7957747E-01            NaN
         13   -1    0    0    0    0  0.00000000000E+00  0.00000000000E+00  0.74505805969E-08  0.10566000000E+00  0.10566000000E+00 0. -1.
     999900   -1    0    0    0    0 -0.00000000000E+00 -0.00000000000E+00 -0.74505805969E-08  0.93827000000E+00  0.93827000000E+00 0. -1.
     999902    2    1    2    0    0  0.53128325702E-02 -0.10416192778E-01 -0.80677053153E-02  0.10297239755E+01  0.10296259780E+01 0.  0.
     999903    2    3    3    0    0 -0.12893362419E+00 -0.26760856201E-01 -0.14350100259E-01  0.13937082782E+00  0.43339120848E-01 0.  0.
         14    1    1    2    0    0 -0.53128325702E-02  0.10416192778E-01  0.80677053153E-02  0.14206024460E-01  0.00000000000E+00 0.  1.
     999901    1    3    3    0    0  0.13424645676E+00  0.16344663422E-01  0.62823949433E-02  0.89035314772E+00  0.88000000000E+00 0. -1.
        -11    1    4    4    0    0 -0.10849324220E+00 -0.38276820086E-01 -0.97821269226E-02  0.11546362928E+00  0.51100000000E-03 0. -1.
         11    1    4    4    0    0 -0.20440381996E-01  0.11515963885E-01 -0.45679733360E-02  0.23907198534E-01  0.51100000000E-03 0.  1.
</event>
<event>
 8    1  0.2091070E+004  0.1043930E+01  0.7957747E-01            NaN
         13   -1    0    0    0    0  0.00000000000E+00  0.00000000000E+00  0.74505805969E-08  0.10566000000E+00  0.10566000000E+00 0. -1.
     999900   -1    0    0    0    0 -0.00000000000E+00 -0.00000000000E+00 -0.74505805969E-08  0.93827000000E+00  0.93827000000E+00 0. -1.
     999902    2    1    2    0    0 -0.59017995447E-02  0.87596076625E-02 -0.85006961370E-02  0.10303718364E+01  0.10302826299E+01 0.  0.
     999903    2    3    3    0    0  0.10845555124E+00 -0.12291836571E-02  0.74381842294E-01  0.13905433139E+00  0.45158954023E-01 0.  0.
         14    1    1    2    0    0  0.59017995447E-02 -0.87596076625E-02  0.85006961370E-02  0.13558163559E-01  0.00000000000E+00 0. -1.
     999901    1    3    3    0    0 -0.11435735079E+00  0.99887913195E-02 -0.82882538431E-01  0.89131750505E+00  0.88000000000E+00 0. -1.
        -11    1    4    4    0    0  0.72510305394E-02  0.27786143141E-02 -0.59368715377E-02  0.97880389274E-02  0.51100000000E-03 0. -1.
         11    1    4    4    0    0  0.10120452070E+00 -0.40077979711E-02  0.80318713832E-01  0.12926629246E+00  0.51100000000E-03 0.  1.
</event>
<event>
 8    1  0.2091070E+004  0.1043930E+01  0.7957747E-01            NaN
         13   -1    0    0    0    0  0.00000000000E+00  0.00000000000E+00  0.74505805969E-08  0.10566000000E+00  0.10566000000E+00 0.  1.
     999900   -1    0    0    0    0 -0.00000000000E+00 -0.00000000000E+00 -0.74505805969E-08  0.93827000000E+00  0.93827000000E+00 0.  1.
     999902    2    1    2    0    0  0.23788444600E-02  0.11067637784E-02  0.69965151813E-02  0.10364577144E+01  0.10364307786E+01 0.  0.
     999903    2    3    3    0    0  0.11341153545E+00 -0.79449469156E-01  0.64163144801E-02  0.14582990116E+00  0.45285720247E-01 0.  0.
         14    1    1    2    0    0 -0.23788444600E-02 -0.11067637784E-02 -0.69965151813E-02  0.74722855746E-02  0.00000000000E+00 0. -1.
     999901    1    3    3    0    0 -0.11103269099E+00  0.80556232935E-01  0.58020070115E-03  0.89062781327E+00  0.88000000000E+00 0. -1.
        -11    1    4    4    0    0  0.23616407546E-01  0.15516027066E-02 -0.55266107843E-02  0.24309395799E-01  0.51100000000E-03 0. -1.
         11    1    4    4    0    0  0.89795127902E-01 -0.81001071863E-01  0.11942925264E-01  0.12152050536E+00  0.51100000000E-03 0.  1.
</event>
<event>
 8    1  0.2091070E+004  0.1043930E+01  0.7957747E-01            NaN
         13   -1    0    0    0    0  0.00000000000E+00  0.00000000000E+00  0.74505805969E-08  0.10566000000E+00  0.10566000000E+00 0. -1.
     999900   -1    0    0    0    0 -0.00000000000E+00 -0.00000000000E+00 -0.74505805969E-08  0.93827000000E+00  0.93827000000E+00 0. -1.
     999902    2    1    2    0    0 -0.55355177554E-02  0.11064813502E-01  0.69454801833E-02  0.10297415628E+01  0.10296438095E+01 0.  0.
     999903    2    3    3    0    0 -0.12032533400E+00  0.44244072561E-01  0.37031139774E-01  0.14115689490E+00  0.46024338202E-01 0.  0.
         14    1    1    2    0    0  0.55355177554E-02 -0.11064813502E-01 -0.69454801833E-02  0.14188437181E-01  0.00000000000E+00 0.  1.
     999901    1    3    3    0    0  0.11478981624E+00 -0.33179259058E-01 -0.30085659591E-01  0.88858466792E+00  0.88000000000E+00 0. -1.
        -11    1    4    4    0    0 -0.73215972523E-01  0.48376123755E-01  0.32760611666E-01  0.93671483280E-01  0.51100000000E-03 0. -1.
         11    1    4    4    0    0 -0.47109361475E-01 -0.41320511942E-02  0.42705281085E-02  0.47485411622E-01  0.51100000000E-03 0.  1.
</event>
<event>
 8    1  0.2091070E+004  0.1043930E+01  0.7957747E-01            NaN
         13   -1    0    0    0    0  0.00000000000E+00  0.00000000000E+00  0.74505805969E-08  0.10566000000E+00  0.10566000000E+00 0.  1.
     999900   -1    0    0    0    0 -0.00000000000E+00 -0.00000000000E+00 -0.74505805969E-08  0.93827000000E+00  0.93827000000E+00 0.  1.
     999902    2    1    2    0    0  0.13776617122E-01 -0.45285137646E-02 -0.12356783202E-02  0.10293756358E+01  0.10292727384E+01 0.  0.
     999903    2    3    3    0    0 -0.12865180442E+00 -0.19588095409E-01  0.74164061485E-02  0.13775491777E+00  0.44569429300E-01 0.  0.
         14    1    1    2    0    0 -0.13776617122E-01  0.45285137646E-02  0.12356783202E-02  0.14554364196E-01  0.00000000000E+00 0.  1.
     999901    1    3    3    0    0  0.14242842154E+00  0.15059581645E-01 -0.86520844687E-02  0.89162071803E+00  0.88000000000E+00 0. -1.
        -11    1    4    4    0    0 -0.14849791553E-01 -0.38965758665E-02  0.16466630827E-01  0.22519117755E-01  0.51100000000E-03 0. -1.
         11    1    4    4    0    0 -0.11380201286E+00 -0.15691519543E-01 -0.90502246784E-02  0.11523580002E+00  0.51100000000E-03 0.  1.
</event>
<event>
 8    1  0.2091070E+004  0.1043930E+01  0.7957747E-01            NaN
         13   -1    0    0    0    0  0.00000000000E+00  0.00000000000E+00  0.74505805969E-08  0.10566000000E+00  0.10566000000E+00 0.  1.
     999900   -1    0    0    0    0 -0.00000000000E+00 -0.00000000000E+00 -0.74505805969E-08  0.93827000000E+00  0.93827000000E+00 0.  1.
     999902    2    1    2    0    0  0.97918200700E-02 -0.65109809505E-02 -0.38861799960E-02  0.10315455336E+01  0.10314711886E+01 0.  0.
     999903    2    3    3    0    0  0.90286829205E-01  0.96472470153E-01 -0.27191738106E-01  0.14158587904E+00  0.42994435646E-01 0.  0.
         14    1    1    2    0    0 -0.97918200700E-02  0.65109809505E-02  0.38861799960E-02  0.12384466407E-01  0.00000000000E+00 0.  1.
     999901    1    3    3    0    0 -0.80495009135E-01 -0.10298345110E+00  0.23305558110E-01  0.88995965455E+00  0.88000000000E+00 0.  1.
        -11    1    4    4    0    0  0.24686859753E-01  0.57609637987E-01 -0.10993548828E-01  0.63635137073E-01  0.51100000000E-03 0.  1.
         11    1    4    4    0    0  0.65599969452E-01  0.38862832166E-01 -0.16198189278E-01  0.77950741965E-01  0.51100000000E-03 0. -1.
</event>
<event>
 8    1  0.2091070E+004  0.1043930E+01  0.7957747E-01            NaN
         13   -1    0    0    0    0  0.00000000000E+00  0.00000000000E+00  0.74505805969E-08  0.10566000000E+00  0.10566000000E+00 0. -1.
     999900   -1    0    0    0    0 -0.00000000000E+00 -0.00000000000E+00 -0.74505805969E-08  0.93827000000E+00  0.93827000000E+00 0.  1.
     999902    2    1    2    0    0  0.16932908921E-02  0.23944588317E-02 -0.95447154772E-02  0.10339448981E+01  0.10338966824E+01 0.  0.
     999903    2    3    3    0    0  0.48682586919E-02 -0.77510461707E-01  0.11023302420E+00  0.14223778041E+00  0.45262511363E-01 0.  0.
         14    1    1    2    0    0 -0.16932908921E-02 -0.23944588317E-02  0.95447154772E-02  0.99851019365E-02  0.00000000000E+00 0. -1.
     999901    1    3    3    0    0 -0.31749677999E-02  0.79904920539E-01 -0.11977773968E+00  0.89170711765E+00  0.88000000000E+00 0.  1.
        -11    1    4    4    0    0  0.23719825868E-01 -0.49060184741E-01  0.78991134741E-01  0.95965579010E-01  0.51100000000E-03 0.  1.
         11    1    4    4    0    0 -0.18851567176E-01 -0.28450276966E-01  0.31241889462E-01  0.46272201402E-01  0.51100000000E-03 0. -1.
</event>
<event>
 8    1  0.2091070E+004  0.1043930E+01  0.7957747E-01            NaN
         13   -1    0    0    0    0  0.00000000000E+00  0.00000000000E+00  0.74505805969E-08  0.10566000000E+00  0.10566000000E+00 0. -1.
     999900   -1    0    0    0    0 -0.00000000000E+00 -0.00000000000E+00 -0.74505805969E-08  0.93827000000E+00  0.93827000000E+00 0. -1.
     999902    2    1    2    0    0  0.66649318108E-02 -0.10990749181E-01  0.51503972199E-02  0.10300828171E+01  0.10299897405E+01 0.  0.
     999903    2    3    3    0    0  0.36767019882E-01  0.11649582223E+00  0.49510404695E-01  0.13928162047E+00  0.44999991987E-01 0.  0.
         14    1    1    2    0    0 -0.66649318108E-02  0.10990749181E-01 -0.51503972199E-02  0.13847182931E-01  0.00000000000E+00 0.  1.
     999901    1    3    3    0    0 -0.30102088071E-01 -0.12748657142E+00 -0.44360007475E-01  0.89080119660E+00  0.88000000000E+00 0. -1.
        -11    1    4    4    0    0  0.22849011341E-01  0.61603847713E-01  0.50131278371E-01  0.82646945282E-01  0.51100000000E-03 0. -1.
         11    1    4    4    0    0  0.13918008541E-01  0.54891974521E-01 -0.62087367660E-03  0.56634675189E-01  0.51100000000E-03 0.  1.
</event>
<event>
 8    1  0.2091070E+004  0.1043930E+01  0.7957747E-01            NaN
         13   -1    0    0    0    0  0.00000000000E+00  0.00000000000E+00  0.74505805969E-08  0.10566000000E+00  0.10566000000E+00 0. -1.
     999900   -1    0    0    0    0 -0.00000000000E+00 -0.00000000000E+00 -0.74505805969E-08  0.93827000000E+00  0.93827000000E+00 0. -1.
     999902    2    1    2    0    0  0.99788018448E-02 -0.11336132370E-02 -0.96868994168E-02  0.10299765923E+01  0.10298820725E+01 0.  0.
     999903    2    3    3    0    0  0.11155428000E+00  0.35119708282E-01  0.63597256340E-01  0.14036856147E+00  0.44508097470E-01 0.  0.
         14    1    1    2    0    0 -0.99788018448E-02  0.11336132370E-02  0.96868994168E-02  0.13953407668E-01  0.00000000000E+00 0. -1.
     999901    1    3    3    0    0 -0.10157547815E+00 -0.36253321519E-01 -0.73284155757E-01  0.88960803086E+00  0.88000000000E+00 0. -1.
        -11    1    4    4    0    0  0.34433100551E-01  0.33424129323E-01  0.24861650955E-01  0.54047882879E-01  0.51100000000E-03 0. -1.
         11    1    4    4    0    0  0.77121179448E-01  0.16955789586E-02  0.38735605385E-01  0.86320678594E-01  0.51100000000E-03 0.  1.
</event>
<event>
 8    1  0.2091070E+004  0.1043930E+01  0.7957747E-01            NaN
         13   -1    0    0    0    0  0.00000000000E+00  0.00000000000E+00  0.74505805969E-08  0.10566000000E+00  0.10566000000E+00 0.  1.
     999900   -1    0    0    0    0 -0.00000000000E+00 -0.00000000000E+00 -0.74505805969E-08  0.93827000000E+00  0.93827000000E+00 0. -1.
     999902    2    1    2    0    0 -0.59574213761E-02 -0.17758644221E-02 -0.13346143083E-01  0.10292070893E+01  0.10291017776E+01 0.  0.
     999903    2    3    3    0    0 -0.56573353896E-01  0.11741442098E+00 -0.22207058760E-01  0.13968653723E+00  0.45083085512E-01 0.  0.
         14    1    1    2    0    0  0.59574213761E-02  0.17758644221E-02  0.13346143083E-01  0.14722910687E-01  0.00000000000E+00 0.  1.
     999901    1    3    3    0    0  0.50615932520E-01 -0.11919028540E+00  0.88609156766E-02  0.88952055209E+00  0.88000000000E+00 0. -1.
        -11    1    4    4    0    0 -0.75372134319E-02  0.52083300435E-01  0.66594897532E-02  0.53047994262E-01  0.51100000000E-03 0.  1.
         11    1    4    4    0    0 -0.49036140464E-01  0.65331120541E-01 -0.28866548513E-01  0.86638542964E-01  0.51100000000E-03 0. -1.
</event>
<event>
 8    1  0.2091070E+004  0.1043930E+01  0.7957747E-01            NaN
         13   -1    0    0    0    0  0.00000000000E+00  0.00000000000E+00  0.74505805969E-08  0.10566000000E+00  0.10566000000E+00 0.  1.
     999900   -1    0    0    0    0 -0.00000000000E+00 -0.00000000000E+00 -0.74505805969E-08  0.93827000000E+00  0.93827000000E+00 0. -1.
     999902    2    1    2    0    0 -0.72396456174E-02 -0.70005041127E-02  0.96989516718E-02  0.10299482551E+01  0.10298533483E+01 0.  0.
     999903    2    3    3    0    0 -0.13282665273E+00 -0.93389376907E-02  0.11462057855E-01  0.14102718259E+00  0.45023905063E-01 0.  0.
         14    1    1    2    0    0  0.72396456174E-02  0.70005041127E-02 -0.96989516718E-02  0.13981744885E-01  0.00000000000E+00 0. -1.
     999901    1    3    3    0    0  0.12558700711E+00  0.23384335780E-02 -0.17631061828E-02  0.88892107252E+00  0.88000000000E+00 0.  1.
        -11    1    4    4    0    0 -0.37360150846E-01 -0.19022757074E-01  0.16210388953E-01  0.44952018742E-01  0.51100000000E-03 0.  1.
         11    1    4    4    0    0 -0.95466501886E-01  0.96838193834E-02 -0.47483310982E-02  0.96075163853E-01  0.51100000000E-03 0. -1.
</event>
<event>
 8    1  0.2091070E+004  0.1043930E+01  0.7957747E-01            NaN
         13   -1    0    0    0    0  0.00000000000E+00  0.00000000000E+00  0.74505805969E-08  0.10566000000E+00  0.10566000000E+00 0.  1.
     999900   -1    0    0    0    0 -0.00000000000E+00 -0.00000000000E+00 -0.74505805969E-08  0.93827000000E+00  0.93827000000E+00 0. -1.
     999902    2    1    2    0    0  0.80339049015E-02 -0.16800994774E-02  0.10929199020E-01  0.10302620172E+01  0.10301713500E+01 0.  0.
     999903    2    3    3    0    0 -0.11690854833E+00 -0.51780348928E-01  0.33042201657E-01  0.13975113210E+00  0.45714096575E-01 0.  0.
         14    1    1    2    0    0 -0.80339049015E-02  0.16800994774E-02 -0.10929199020E-01  0.13667982786E-01  0.00000000000E+00 0. -1.
     999901    1    3    3    0    0  0.12494245323E+00  0.50100249451E-01 -0.22113002637E-01  0.89051088511E+00  0.88000000000E+00 0. -1.
        -11    1    4    4    0    0 -0.62810733722E-01 -0.83323756308E-02  0.30489762324E-01  0.70317163494E-01  0.51100000000E-03 0.  1.
         11    1    4    4    0    0 -0.54097814610E-01 -0.43447973298E-01  0.25524393330E-02  0.69433968609E-01  0.51100000000E-03 0. -1.
</event>
<event>
 8    1  0.2091070E+004  0.1043930E+01  0.7957747E-01            NaN
         13   -1    0    0    0    0  0.00000000000E+00  0.00000000000E+00  0.74505805969E-08  0.10566000000E+00  0.10566000000E+00 0. -1.
     999900   -1    0    0    0    0 -0.00000000000E+00 -0.00000000000E+00 -0.74505805969E-08  0.93827000000E+00  0.93827000000E+00 0.  1.
     999902    2    1    2    0    0 -0.11300078726E-01  0.74202949103E-02 -0.28661686948E-05  0.10304113993E+01  0.10303227161E+01 0.  0.
     999903    2    3    3    0    0  0.51431580601E-01  0.10639867210E+00  0.61681589463E-01  0.14050300388E+00  0.44391336024E-01 0.  0.
         14    1    1    2    0    0  0.11300078726E-01 -0.74202949103E-02  0.28661686948E-05  0.13518600666E-01  0.00000000000E+00 0. -1.
     999901    1    3    3    0    0 -0.62731659326E-01 -0.98978377185E-01 -0.61684455632E-01  0.88990839545E+00  0.88000000000E+00 0.  1.
        -11    1    4    4    0    0  0.24674609548E-02  0.50054483700E-01  0.35415314877E-01  0.61368113470E-01  0.51100000000E-03 0.  1.
         11    1    4    4    0    0  0.48964119646E-01  0.56344188395E-01  0.26266274586E-01  0.79134890410E-01  0.51100000000E-03 0. -1.
</event>
<event>
 8    1  0.2091070E+004  0.1043930E+01  0.7957747E-01            NaN
         13   -1    0    0    0    0  0.00000000000E+00  0.00000000000E+00  0.74505805969E-08  0.10566000000E+00  0.10566000000E+00 0. -1.
     999900   -1    0    0    0    0 -0.00000000000E+00 -0.00000000000E+00 -0.74505805969E-08  0.93827000000E+00  0.93827000000E+00 0. -1.
     999902    2    1    2    0    0  0.12533149078E-01  0.24931338254E-02  0.14168951863E-02  0.10310729734E+01  0.10309928095E+01 0.  0.
     999903    2    3    3    0    0 -0.23429901624E-01 -0.56808801678E-01  0.11810311239E+00  0.14066535106E+00  0.45411403771E-01 0.  0.
         14    1    1    2    0    0 -0.12533149078E-01 -0.24931338254E-02 -0.14168951863E-02  0.12857026641E-01  0.00000000000E+00 0.  1.
     999901    1    3    3    0    0  0.35963050701E-01  0.59301935503E-01 -0.11668621721E+00  0.89040762230E+00  0.88000000000E+00 0. -1.
        -11    1    4    4    0    0 -0.90272858659E-02  0.65645874840E-02  0.13601601661E-01  0.17602567645E-01  0.51100000000E-03 0. -1.
         11    1    4    4    0    0 -0.14402615758E-01 -0.63373389162E-01  0.10450151073E+00  0.12306278341E+00  0.51100000000E-03 0.  1.
</event>
<event>
 8    1  0.2091070E+004  0.1043930E+01  0.7957747E-01            NaN
         13   -1    0    0    0    0  0.00000000000E+00  0.00000000000E+00  0.74505805969E-08  0.10566000000E+00  0.10566000000E+00 0. -1.
     999900   -1    0    0    0    0 -0.00000000000E+00 -0.00000000000E+00 -0.74505805969E-08  0.93827000000E+00  0.93827000000E+00 0. -1.
     999902    2    1    2    0    0 -0.94528163609E-02 -0.34106474539E-02  0.95458050595E-02  0.10300696015E+01  0.10299763460E+01 0.  0.
     999903    2    3    3    0    0 -0.10758686105E+00  0.40815116704E-01  0.69035955844E-01  0.14151724680E+00  0.44948431803E-01 0.  0.
         14    1    1    2    0    0  0.94528163609E-02  0.34106474539E-02 -0.95458050595E-02  0.13860398531E-01  0.00000000000E+00 0.  1.
     999901    1    3    3    0    0  0.98134044687E-01 -0.44225764158E-01 -0.59490150784E-01  0.88855235467E+00  0.88000000000E+00 0.  1.
        -11    1    4    4    0    0 -0.89160722765E-01  0.50740394640E-01  0.58061972282E-01  0.11787992144E+00  0.51100000000E-03 0. -1.
         11    1    4    4    0    0 -0.18426138283E-01 -0.99252779358E-02  0.10973983562E-01  0.23637325364E-01  0.51100000000E-03 0.  1.
</event>
<event>
 8    1  0.2091070E+004  0.1043930E+01  0.7957747E-01            NaN
         13   -1    0    0    0    0  0.00000000000E+00  0.00000000000E+00  0.74505805969E-08  0.10566000000E+00  0.10566000000E+00 0. -1.
     999900   -1    0    0    0    0 -0.00000000000E+00 -0.00000000000E+00 -0.74505805969E-08  0.93827000000E+00  0.93827000000E+00 0. -1.
     999902    2    1    2    0    0 -0.21471787494E-02  0.10522656181E-01 -0.82010999477E-02  0.10304172390E+01  0.10303286329E+01 0.  0.
     999903    2    3    3    0    0 -0.10198907789E+00 -0.41085435266E-01  0.72596313774E-01  0.13959737954E+00  0.46123948243E-01 0.  0.
         14    1    1    2    0    0  0.21471787494E-02 -0.10522656181E-01  0.82010999477E-02  0.13512761007E-01  0.00000000000E+00 0. -1.
     999901    1    3    3    0    0  0.99841899143E-01  0.51608091446E-01 -0.80797413721E-01  0.89081985945E+00  0.88000000000E+00 0. -1.
        -11    1    4    4    0    0 -0.53710486329E-01 -0.16528387117E-01  0.63283711469E-01  0.84635058815E-01  0.51100000000E-03 0. -1.
         11    1    4    4    0    0 -0.48278591563E-01 -0.24557048149E-01  0.93126023049E-02  0.54962320728E-01  0.51100000000E-03 0.  1.
</event>
<event>
 8    1  0.2091070E+004  0.1043930E+01  0.7957747E-01            NaN
         13   -1    0    0    0    0  0.00000000000E+00  0.00000000000E+00  0.74505805969E-08  0.10566000000E+00  0.10566000000E+00 0.  1.
     999900   -1    0    0    0    0 -0.00000000000E+00 -0.00000000000E+00 -0.74505805969E-08  0.93827000000E+00  0.93827000000E+00 0.  1.
     999902    2    1    2    0    0  0.74985633738E-02  0.91626511126E-02 -0.37638875396E-02  0.10315062535E+01  0.10314314333E+01 0.  0.
     999903    2    3    3    0    0 -0.84640816708E-01  0.77724946306E-01 -0.69795902268E-01  0.14159014471E+00  0.44396688782E-01 0.  0.
         14    1    1    2    0    0 -0.74985633738E-02 -0.91626511126E-02  0.37638875396E-02  0.12423746516E-01  0.00000000000E+00 0. -1.
     999901    1    3    3    0    0  0.92139380082E-01 -0.68562295193E-01  0.66032014728E-01  0.88991610877E+00  0.88000000000E+00 0. -1.
        -11    1    4    4    0    0 -0.56617254737E-01  0.47500133025E-01 -0.67843782389E-01  0.10032355706E+00  0.51100000000E-03 0. -1.
         11    1    4    4    0    0 -0.28023561970E-01  0.30224813281E-01 -0.19521198792E-02  0.41266587651E-01  0.51100000000E-03 0.  1.
</event>
<event>
 8    1  0.2239500E+004  0.1043930E+01  0.7957747E-01            NaN
         13   -1    0    0    0    0  0.00000000000E+00  0.00000000000E+00  0.74505805969E-08  0.10566000000E+00  0.10566000000E+00 0.  1.
     999900   -1    0    0    0    0 -0.00000000000E+00 -0.00000000000E+00 -0.74505805969E-08  0.93827000000E+00  0.93827000000E+00 0. -1.
     999902    2    1    2    0    0  0.52681660136E-02  0.27234191629E-02  0.11642762091E-01  0.10308638416E+01  0.10307810318E+01 0.  0.
     999903    2    3    3    0    0 -0.11533355115E-01 -0.31058292120E-02  0.13412971016E+00  0.14220230670E+00  0.45695212291E-01 0.  0.
         14    1    1    2    0    0 -0.52681660136E-02 -0.27234191629E-02 -0.11642762091E-01  0.13066158356E-01  0.00000000000E+00 0. -1.
     999901    1    3    3    0    0  0.16801521129E-01  0.58292483749E-02 -0.12248694807E+00  0.88866153495E+00  0.88000000000E+00 0. -1.
        -11    1    4    4    0    0 -0.26465883440E-01  0.81827320100E-02  0.92374736907E-01  0.96440412841E-01  0.51100000000E-03 0. -1.
         11    1    4    4    0    0  0.14932528325E-01 -0.11288561222E-01  0.41754973254E-01  0.45761893854E-01  0.51100000000E-03 0.  1.
</event>
<event>
 8    1  0.2091070E+004  0.1043930E+01  0.7957747E-01            NaN
         13   -1    0    0    0    0  0.00000000000E+00  0.00000000000E+00  0.74505805969E-08  0.10566000000E+00  0.10566000000E+00 0. -1.
     999900   -1    0    0    0    0 -0.00000000000E+00 -0.00000000000E+00 -0.74505805969E-08  0.93827000000E+00  0.93827000000E+00 0. -1.
     999902    2    1    2    0    0  0.10718200155E-01  0.81678900128E-02 -0.15406963278E-02  0.10303665201E+01  0.10302772432E+01 0.  0.
     999903    2    3    3    0    0  0.49280530895E-03 -0.93377799922E-01 -0.93927916905E-01  0.13966371648E+00  0.44315276738E-01 0.  0.
         14    1    1    2    0    0 -0.10718200155E-01 -0.81678900128E-02  0.15406963278E-02  0.13563479900E-01  0.00000000000E+00 0.  1.
     999901    1    3    3    0    0  0.10225394846E-01  0.10154568994E+00  0.92387220577E-01  0.89070280362E+00  0.88000000000E+00 0.  1.
        -11    1    4    4    0    0  0.19752084194E-01 -0.23194225367E-01 -0.30722904199E-01  0.43269791816E-01  0.51100000000E-03 0. -1.
         11    1    4    4    0    0 -0.19259278885E-01 -0.70183574556E-01 -0.63205012707E-01  0.96393924668E-01  0.51100000000E-03 0.  1.
</event>
<event>
 8    1  0.2091070E+004  0.1043930E+01  0.7957747E-01            NaN
         13   -1    0    0    0    0  0.00000000000E+00  0.00000000000E+00  0.74505805969E-08  0.10566000000E+00  0.10566000000E+00 0.  1.
     999900   -1    0    0    0    0 -0.00000000000E+00 -0.00000000000E+00 -0.74505805969E-08  0.93827000000E+00  0.93827000000E+00 0. -1.
     999902    2    1    2    0    0 -0.23472244201E-02  0.26401211143E-02  0.11643943045E-01  0.10317619635E+01  0.10316902094E+01 0.  0.
     999903    2    3    3    0    0  0.50226596037E-01  0.83292147000E-01  0.94125230548E-01  0.14267708644E+00  0.45132020428E-01 0.  0.
         14    1    1    2    0    0  0.23472244201E-02 -0.26401211143E-02 -0.11643943045E-01  0.12168036473E-01  0.00000000000E+00 0. -1.
     999901    1    3    3    0    0 -0.52573820457E-01 -0.80652025885E-01 -0.82481287504E-01  0.88908487709E+00  0.88000000000E+00 0. -1.
        -11    1    4    4    0    0  0.17959145195E-01  0.25655387936E-01  0.61470757945E-01  0.68990180676E-01  0.51100000000E-03 0. -1.
         11    1    4    4    0    0  0.32267450842E-01  0.57636759063E-01  0.32654472603E-01  0.73686905764E-01  0.51100000000E-03 0.  1.
</event>
<event>
 8    1  0.2091070E+004  0.1043930E+01  0.7957747E-01            NaN
         13   -1    0    0    0    0  0.00000000000E+00  0.00000000000E+00  0.74505805969E-08  0.10566000000E+00  0.10566000000E+00 0. -1.
     999900   -1    0    0    0    0 -0.00000000000E+00 -0.00000000000E+00 -0.74505805969E-08  0.93827000000E+00  0.93827000000E+00 0. -1.
     999902    2    1    2    0    0  0.50443148905E-02 -0.19972728728E-02  0.12103498931E-01  0.10306661809E+01  0.10305808302E+01 0.  0.
     999903    2    3    3    0    0  0.58362006141E-01  0.59529907536E-01  0.10380258845E+00  0.14216345541E+00  0.49855160536E-01 0.  0.
         14    1    1    2    0    0 -0.50443148905E-02  0.19972728728E-02 -0.12103498931E-01  0.13263819134E-01  0.00000000000E+00 0.  1.
     999901    1    3    3    0    0 -0.53317691251E-01 -0.61527180409E-01 -0.91699089520E-01  0.88850272546E+00  0.88000000000E+00 0. -1.
        -11    1    4    4    0    0  0.29373915725E-01  0.14997729442E-01  0.74513196898E-01  0.81487645974E-01  0.51100000000E-03 0.  1.
         11    1    4    4    0    0  0.28988090416E-01  0.44532178095E-01  0.29289391553E-01  0.60675809433E-01  0.51100000000E-03 0. -1.
</event>
<event>
 8    1  0.2091070E+004  0.1043930E+01  0.7957747E-01            NaN
         13   -1    0    0    0    0  0.00000000000E+00  0.00000000000E+00  0.74505805969E-08  0.10566000000E+00  0.10566000000E+00 0.  1.
     999900   -1    0    0    0    0 -0.00000000000E+00 -0.00000000000E+00 -0.74505805969E-08  0.93827000000E+00  0.93827000000E+00 0.  1.
     999902    2    1    2    0    0 -0.13368271251E-01 -0.47180095714E-02 -0.13308917011E-03  0.10297529762E+01  0.10296553812E+01 0.  0.
     999903    2    3    3    0    0  0.88105555801E-02  0.90744998766E-01  0.93707264088E-01  0.13935357246E+00  0.48229515060E-01 0.  0.
         14    1    1    2    0    0  0.13368271251E-01  0.47180095714E-02  0.13308917011E-03  0.14177023781E-01  0.00000000000E+00 0. -1.
     999901    1    3    3    0    0 -0.22178826831E-01 -0.95463008337E-01 -0.93840353258E-01  0.89039940376E+00  0.88000000000E+00 0.  1.
        -11    1    4    4    0    0  0.24691696222E-01  0.40906247492E-01  0.28059016419E-01  0.55412728408E-01  0.51100000000E-03 0.  1.
         11    1    4    4    0    0 -0.15881140642E-01  0.49838751274E-01  0.65648247669E-01  0.83940844049E-01  0.51100000000E-03 0. -1.
</event>
<event>
 8    1  0.2091070E+004  0.1043930E+01  0.7957747E-01            NaN
         13   -1    0    0    0    0  0.00000000000E+00  0.00000000000E+00  0.74505805969E-08  0.10566000000E+00  0.10566000000E+00 0. -1.
     999900   -1    0    0    0    0 -0.00000000000E+00 -0.00000000000E+00 -0.74505805969E-08  0.93827000000E+00  0.93827000000E+00 0. -1.
     999902    2    1    2    0    0 -0.94508425549E-02  0.56340695223E-02  0.29427163271E-02  0.10325404985E+01  0.10324776803E+01 0.  0.
     999903    2    3    3    0    0 -0.72897939747E-01 -0.11181021017E+00  0.22986161201E-01  0.14224816864E+00  0.43480399681E-01 0.  0.
         14    1    1    2    0    0  0.94508425549E-02 -0.56340695223E-02 -0.29427163271E-02  0.11389501471E-01  0.00000000000E+00 0.  1.
     999901    1    3    3    0    0  0.63447097192E-01  0.11744427970E+00 -0.20043444874E-01  0.89029232989E+00  0.88000000000E+00 0. -1.
        -11    1    4    4    0    0 -0.52521696082E-01 -0.43502200805E-01  0.32274460866E-02  0.68276259150E-01  0.51100000000E-03 0. -1.
         11    1    4    4    0    0 -0.20376243665E-01 -0.68308009368E-01  0.19758715115E-01  0.73971909491E-01  0.51100000000E-03 0.  1.
</event>
<event>
 8    1  0.2091070E+004  0.1043930E+01  0.7957747E-01            NaN
         13   -1    0    0    0    0  0.00000000000E+00  0.00000000000E+00  0.74505805969E-08  0.10566000000E+00  0.10566000000E+00 0. -1.
     999900   -1    0    0    0    0 -0.00000000000E+00 -0.00000000000E+00 -0.74505805969E-08  0.93827000000E+00  0.93827000000E+00 0.  1.
     999902    2    1    2    0    0  0.10712254365E-01  0.79046499980E-02  0.41687979744E-02  0.10299795605E+01  0.10298850811E+01 0.  0.
     999903    2    3    3    0    0 -0.13654496927E-01  0.10215248602E+00 -0.83780022477E-01  0.14025410388E+00  0.45061577905E-01 0.  0.
         14    1    1    2    0    0 -0.10712254365E-01 -0.79046499980E-02 -0.41687979744E-02  0.13950439481E-01  0.00000000000E+00 0. -1.
     999901    1    3    3    0    0  0.24366751291E-01 -0.94247836025E-01  0.87948820451E-01  0.88972545663E+00  0.88000000000E+00 0.  1.
        -11    1    4    4    0    0 -0.30122367099E-01  0.66681121362E-01 -0.50571218122E-01  0.88946265628E-01  0.51100000000E-03 0.  1.
         11    1    4    4    0    0  0.16467870173E-01  0.35471364661E-01 -0.33208804355E-01  0.51307838257E-01  0.51100000000E-03 0. -1.
</event>
<event>
 8    1  0.2091070E+004  0.1043930E+01  0.7957747E-01            NaN
         13   -1    0    0    0    0  0.00000000000E+00  0.00000000000E+00  0.74505805969E-08  0.10566000000E+00  0.10566000000E+00 0.  1.
     999900   -1    0    0    0    0 -0.00000000000E+00 -0.00000000000E+00 -0.74505805969E-08  0.93827000000E+00  0.93827000000E+00 0. -1.
     999902    2    1    2    0    0  0.94568837912E-02  0.41332055785E-02  0.12368803328E-01  0.10278208928E+01  0.10276946455E+01 0.  0.
     999903    2    3    3    0    0  0.39136084450E-01  0.18538094026E-01  0.12501157634E+00  0.14002770174E+00  0.45875581712E-01 0.  0.
         14    1    1    2    0    0 -0.94568837912E-02 -0.41332055785E-02 -0.12368803328E-01  0.16109107212E-01  0.00000000000E+00 0.  1.
     999901    1    3    3    0    0 -0.29679200659E-01 -0.14404888447E-01 -0.11264277302E+00  0.88779319105E+00  0.88000000000E+00 0. -1.
        -11    1    4    4    0    0  0.46578429610E-02  0.23622769911E-01  0.27932297339E-01  0.36880958704E-01  0.51100000000E-03 0. -1.
         11    1    4    4    0    0  0.34478241489E-01 -0.50846758850E-02  0.97079279006E-01  0.10314674303E+00  0.51100000000E-03 0.  1.
</event>
<event>
 8    1  0.2091070E+004  0.1043930E+01  0.7957747E-01            NaN
         13   -1    0    0    0    0  0.00000000000E+00  0.00000000000E+00  0.74505805969E-08  0.10566000000E+00  0.10566000000E+00 0.  1.
     999900   -1    0    0    0    0 -0.00000000000E+00 -0.00000000000E+00 -0.74505805969E-08  0.93827000000E+00  0.93827000000E+00 0.  1.
     999902    2    1    2    0    0  0.24232412476E-02 -0.57511744852E-03  0.13791416338E-01  0.10299155067E+01  0.10298201517E+01 0.  0.
     999903    2    3    3    0    0  0.51330390385E-02  0.10295008771E+00  0.84689966029E-01  0.14101089119E+00  0.45679453133E-01 0.  0.
         14    1    1    2    0    0 -0.24232412476E-02  0.57511744852E-03 -0.13791416338E-01  0.14014493314E-01  0.00000000000E+00 0. -1.
     999901    1    3    3    0    0 -0.27097977909E-02 -0.10352520516E+00 -0.70898549691E-01  0.88890461550E+00  0.88000000000E+00 0.  1.
        -11    1    4    4    0    0  0.66923330748E-02  0.64381457661E-01  0.23904517473E-01  0.69003235352E-01  0.51100000000E-03 0. -1.
         11    1    4    4    0    0 -0.15592940363E-02  0.38568630048E-01  0.60785448556E-01  0.72007655835E-01  0.51100000000E-03 0.  1.
</event>
<event>
 8    1  0.2091070E+004  0.1043930E+01  0.7957747E-01            NaN
         13   -1    0    0    0    0  0.00000000000E+00  0.00000000000E+00  0.74505805969E-08  0.10566000000E+00  0.10566000000E+00 0.  1.
     999900   -1    0    0    0    0 -0.00000000000E+00 -0.00000000000E+00 -0.74505805969E-08  0.93827000000E+00  0.93827000000E+00 0.  1.
     999902    2    1    2    0    0  0.94376096339E-02  0.94312218952E-02 -0.35827357436E-02  0.10301150654E+01  0.10300224248E+01 0.  0.
     999903    2    3    3    0    0  0.35606792044E-01  0.11577335351E+00 -0.58014126903E-01  0.14165783437E+00  0.45055411394E-01 0.  0.
         14    1    1    2    0    0 -0.94376096339E-02 -0.94312218952E-02  0.35827357436E-02  0.13814934580E-01  0.00000000000E+00 0.  1.
     999901    1    3    3    0    0 -0.26169182410E-01 -0.10634213161E+00  0.54431391160E-01  0.88845723105E+00  0.88000000000E+00 0.  1.
        -11    1    4    4    0    0 -0.69958846401E-02  0.21027486402E-01 -0.23218420820E-01  0.32100681810E-01  0.51100000000E-03 0.  1.
         11    1    4    4    0    0  0.42602676684E-01  0.94745867104E-01 -0.34795706084E-01  0.10955715256E+00  0.51100000000E-03 0. -1.
</event>
<event>
 8    1  0.2091070E+004  0.1043930E+01  0.7957747E-01            NaN
         13   -1    0    0    0    0  0.00000000000E+00  0.00000000000E+00  0.74505805969E-08  0.10566000000E+00  0.10566000000E+00 0. -1.
     999900   -1    0    0    0    0 -0.00000000000E+00 -0.00000000000E+00 -0.74505805969E-08  0.93827000000E+00  0.93827000000E+00 0. -1.
     999902    2    1    2    0    0  0.18875877199E-02 -0.12122949569E-02 -0.65084556006E-03  0.10415941390E+01  0.10415915199E+01 0.  0.
     999903    2    3    3    0    0 -0.11601679185E+00 -0.60527024235E-01 -0.57652468343E-01  0.14992779739E+00  0.45067956149E-01 0.  0.
         14    1    1    2    0    0 -0.18875877199E-02  0.12122949569E-02  0.65084556006E-03  0.23358609560E-02  0.00000000000E+00 0. -1.
     999901    1    3    3    0    0  0.11790437957E+00  0.59314729278E-01  0.57001622783E-01  0.89166634165E+00  0.88000000000E+00 0. -1.
        -11    1    4    4    0    0 -0.48731397088E-01 -0.42959932273E-01 -0.45541292041E-01  0.79338359227E-01  0.51100000000E-03 0.  1.
         11    1    4    4    0    0 -0.67285394763E-01 -0.17567091961E-01 -0.12111176303E-01  0.70589438167E-01  0.51100000000E-03 0. -1.
</event>
<event>
 8    1  0.2091070E+004  0.1043930E+01  0.7957747E-01            NaN
         13   -1    0    0    0    0  0.00000000000E+00  0.00000000000E+00  0.74505805969E-08  0.10566000000E+00  0.10566000000E+00 0.  1.
     999900   -1    0    0    0    0 -0.00000000000E+00 -0.00000000000E+00 -0.74505805969E-08  0.93827000000E+00  0.93827000000E+00 0.  1.
     999902    2    1    2    0    0 -0.11576413961E-01 -0.13683741870E-01 -0.50531116736E-03  0.10259992027E+01  0.10258425076E+01 0.  0.
     999903    2    3    3    0    0 -0.50204900751E-01 -0.25934159603E-01  0.11614924239E+00  0.13737638195E+00  0.46781525362E-01 0.  0.
         14    1    1    2    0    0  0.11576413961E-01  0.13683741870E-01  0.50531116736E-03  0.17930797281E-01  0.00000000000E+00 0. -1.
     999901    1    3    3    0    0  0.38628486791E-01  0.12250417733E-01 -0.11665455356E+00  0.88862282077E+00  0.88000000000E+00 0.  1.
        -11    1    4    4    0    0 -0.13416427017E-01  0.51877366025E-02  0.67058860841E-01  0.68586187117E-01  0.51100000000E-03 0. -1.
         11    1    4    4    0    0 -0.36788473734E-01 -0.31121896206E-01  0.49090381552E-01  0.68790194832E-01  0.51100000000E-03 0.  1.
</event>
<event>
 8    1  0.2091070E+004  0.1043930E+01  0.7957747E-01            NaN
         13   -1    0    0    0    0  0.00000000000E+00  0.00000000000E+00  0.74505805969E-08  0.10566000000E+00  0.10566000000E+00 0.  1.
     999900   -1    0    0    0    0 -0.00000000000E+00 -0.00000000000E+00 -0.74505805969E-08  0.93827000000E+00  0.93827000000E+00 0.  1.
     999902    2    1    2    0    0 -0.52275283551E-02  0.82684588509E-02 -0.93912266517E-02  0.10303694100E+01  0.10302801713E+01 0.  0.
     999903    2    3    3    0    0  0.70598482744E-01 -0.53575183980E-01  0.91602160467E-01  0.13920506800E+00  0.55970072816E-01 0.  0.
         14    1    1    2    0    0  0.52275283551E-02 -0.82684588509E-02  0.93912266517E-02  0.13560590050E-01  0.00000000000E+00 0.  1.
     999901    1    3    3    0    0 -0.75826011099E-01  0.61843642831E-01 -0.10099338712E+00  0.89116434195E+00  0.88000000000E+00 0.  1.
        -11    1    4    4    0    0  0.12094426613E-01 -0.38930004100E-02 -0.67906603098E-02  0.14415436023E-01  0.51100000000E-03 0.  1.
         11    1    4    4    0    0  0.58504056131E-01 -0.49682183570E-01  0.98392820777E-01  0.12478963198E+00  0.51100000000E-03 0. -1.
</event>
<event>
 8    1  0.2091070E+004  0.1043930E+01  0.7957747E-01            NaN
         13   -1    0    0    0    0  0.00000000000E+00  0.00000000000E+00  0.74505805969E-08  0.10566000000E+00  0.10566000000E+00 0. -1.
     999900   -1    0    0    0    0 -0.00000000000E+00 -0.00000000000E+00 -0.74505805969E-08  0.93827000000E+00  0.93827000000E+00 0.  1.
     999902    2    1    2    0    0  0.52540799159E-02 -0.65132402409E-03  0.12227981825E-01  0.10306050941E+01  0.10305189502E+01 0.  0.
     999903    2    3    3    0    0  0.51024495847E-01  0.11913243381E+00  0.33153107231E-01  0.14106535887E+00  0.44769085236E-01 0.  0.
         14    1    1    2    0    0 -0.52540799159E-02  0.65132402409E-03 -0.12227981825E-01  0.13324905938E-01  0.00000000000E+00 0.  1.
     999901    1    3    3    0    0 -0.45770415931E-01 -0.11978375783E+00 -0.20925125407E-01  0.88953973519E+00  0.88000000000E+00 0.  1.
        -11    1    4    4    0    0  0.21180005675E-01  0.44583035418E-01 -0.93028753894E-02  0.50229914384E-01  0.51100000000E-03 0. -1.
         11    1    4    4    0    0  0.29844490172E-01  0.74549398388E-01  0.42455982621E-01  0.90835444485E-01  0.51100000000E-03 0.  1.
</event>
<event>
 8    1  0.2091070E+004  0.1043930E+01  0.7957747E-01            NaN
         13   -1    0    0    0    0  0.00000000000E+00  0.00000000000E+00  0.74505805969E-08  0.10566000000E+00  0.10566000000E+00 0. -1.
     999900   -1    0    0    0    0 -0.00000000000E+00 -0.00000000000E+00 -0.74505805969E-08  0.93827000000E+00  0.93827000000E+00 0. -1.
     999902    2    1    2    0    0 -0.71687906496E-02 -0.25551090978E-02 -0.11603350823E-01  0.10300534769E+01  0.10299600028E+01 0.  0.
     999903    2    3    3    0    0 -0.46261905782E-01 -0.11339295926E+00 -0.55379636155E-01  0.14116109660E+00  0.43144222738E-01 0.  0.
         14    1    1    2    0    0  0.71687906496E-02  0.25551090978E-02  0.11603350823E-01  0.13876523059E-01  0.00000000000E+00 0. -1.
     999901    1    3    3    0    0  0.39093115132E-01  0.11083785016E+00  0.43776285332E-01  0.88889238035E+00  0.88000000000E+00 0.  1.
        -11    1    4    4    0    0 -0.41088405670E-01 -0.52340226462E-01 -0.41209412921E-01  0.78270257575E-01  0.51100000000E-03 0.  1.
         11    1    4    4    0    0 -0.51735001119E-02 -0.61052732795E-01 -0.14170223234E-01  0.62890839020E-01  0.51100000000E-03 0. -1.
</event>
<event>
 8    1  0.2091070E+004  0.1043930E+01  0.7957747E-01            NaN
         13   -1    0    0    0    0  0.00000000000E+00  0.00000000000E+00  0.74505805969E-08  0.10566000000E+00  0.10566000000E+00 0. -1.
     999900   -1    0    0    0    0 -0.00000000000E+00 -0.00000000000E+00 -0.74505805969E-08  0.93827000000E+00  0.93827000000E+00 0.  1.
     999902    2    1    2    0    0  0.58014909451E-02 -0.45164996796E-02  0.13815488472E-01  0.10282799588E+01  0.10281608580E+01 0.  0.
     999903    2    3    3    0    0  0.73453842911E-01 -0.10902773611E+00  0.13066658966E-01  0.13951677328E+00  0.44851735426E-01 0.  0.
         14    1    1    2    0    0 -0.58014909451E-02  0.45164996796E-02 -0.13815488472E-01  0.15650041159E-01  0.00000000000E+00 0.  1.
     999901    1    3    3    0    0 -0.67652351966E-01  0.10451123643E+00  0.74882950621E-03  0.88876318556E+00  0.88000000000E+00 0. -1.
        -11    1    4    4    0    0  0.46193954108E-01 -0.97675845354E-01  0.22755298737E-02  0.10807354588E+00  0.51100000000E-03 0. -1.
         11    1    4    4    0    0  0.27259888803E-01 -0.11351890752E-01  0.10791129092E-01  0.31443227399E-01  0.51100000000E-03 0.  1.
</event>
<event>
 8    1  0.2091070E+004  0.1043930E+01  0.7957747E-01            NaN
         13   -1    0    0    0    0  0.00000000000E+00  0.00000000000E+00  0.74505805969E-08  0.10566000000E+00  0.10566000000E+00 0.  1.
     999900   -1    0    0    0    0 -0.00000000000E+00 -0.00000000000E+00 -0.74505805969E-08  0.93827000000E+00  0.93827000000E+00 0. -1.
     999902    2    1    2    0    0  0.50857520706E-02  0.18509290034E-01 -0.42024634635E-02  0.10242800791E+01  0.10240915785E+01 0.  0.
     999903    2    3    3    0    0  0.58850564456E-01 -0.60452538238E-01 -0.94250605631E-01  0.13454175057E+00  0.45830204758E-01 0.  0.
         14    1    1    2    0    0 -0.50857520706E-02 -0.18509290034E-01  0.42024634635E-02  0.19649920886E-01  0.00000000000E+00 0.  1.
     999901    1    3    3    0    0 -0.53764812385E-01  0.78961828271E-01  0.90048142167E-01  0.88973832855E+00  0.88000000000E+00 0. -1.
        -11    1    4    4    0    0  0.23086019837E-01  0.91107687256E-03 -0.35530345695E-01  0.42384678354E-01  0.51100000000E-03 0.  1.
         11    1    4    4    0    0  0.35764544619E-01 -0.61363615110E-01 -0.58720259936E-01  0.92157072214E-01  0.51100000000E-03 0. -1.
</event>
<event>
 8    1  0.2091070E+004  0.1043930E+01  0.7957747E-01            NaN
         13   -1    0    0    0    0  0.00000000000E+00  0.00000000000E+00  0.74505805969E-08  0.10566000000E+00  0.10566000000E+00 0.  1.
     999900   -1    0    0    0    0 -0.00000000000E+00 -0.00000000000E+00 -0.74505805969E-08  0.93827000000E+00  0.93827000000E+00 0.  1.
     999902    2    1    2    0    0  0.32112595386E-02  0.12054570847E-01 -0.90098188296E-03  0.10314225368E+01  0.10313466987E+01 0.  0.
     999903    2    3    3    0    0  0.65720088538E-01 -0.38251296301E-01  0.10947437851E+00  0.14090540947E+00  0.45688107433E-01 0.  0.
         14    1    1    2    0    0 -0.32112595386E-02 -0.12054570847E-01  0.90098188296E-03  0.12507463151E-01  0.00000000000E+00 0.  1.
     999901    1    3    3    0    0 -0.62508828999E-01  0.50305867148E-01 -0.11037536040E+00  0.89051712738E+00  0.88000000000E+00 0.  1.
        -11    1    4    4    0    0  0.37684648538E-01 -0.39104478329E-01  0.94778637912E-01  0.10923618579E+00  0.51100000000E-03 0.  1.
         11    1    4    4    0    0  0.28035440000E-01  0.85318202776E-03  0.14695740602E-01  0.31669223678E-01  0.51100000000E-03 0. -1.
</event>
<event>
 7    1  0.2091070E+004  0.1043930E+01  0.7957747E-01            NaN
         13   -1    0    0    0    0  0.00000000000E+00  0.00000000000E+00  0.74505805969E-08  0.10566000000E+00  0.10566000000E+00 0. -1.
     999900   -1    0    0    0    0 -0.00000000000E+00 -0.00000000000E+00 -0.74505805969E-08  0.93827000000E+00  0.93827000000E+00 0. -1.
     999902    2    1    2    0    0 -0.13588280734E-01 -0.41636407323E-02  0.11481744224E-02  0.10296718240E+01  0.10295731007E+01 0.  0.
         14    1    1    2    0    0  0.13588280734E-01  0.41636407323E-02 -0.11481744224E-02  0.14258175969E-01  0.00000000000E+00 0. -1.
     999901    1    3    3    0    0 -0.96750678682E-01 -0.50615816433E-01 -0.75821147531E-01  0.88998398924E+00  0.88000000000E+00 0. -1.
        -11    1    3    3    0    0  0.74740772727E-01  0.57226594898E-02  0.50531512162E-01  0.90402581721E-01  0.51100000000E-03 0. -1.
         11    1    3    3    0    0  0.84216252208E-02  0.40729516211E-01  0.26437809791E-01  0.49285253065E-01  0.51100000000E-03 0.  1.
</event>
<event>
 8    1  0.2091070E+004  0.1043930E+01  0.7957747E-01            NaN
         13   -1    0    0    0    0  0.00000000000E+00  0.00000000000E+00  0.74505805969E-08  0.10566000000E+00  0.10566000000E+00 0.  1.
     999900   -1    0    0    0    0 -0.00000000000E+00 -0.00000000000E+00 -0.74505805969E-08  0.93827000000E+00  0.93827000000E+00 0. -1.
     999902    2    1    2    0    0  0.74916722344E-02 -0.10733202453E-01 -0.39193622973E-02  0.10302666114E+01  0.10301760055E+01 0.  0.
     999903    2    3    3    0    0 -0.23313786967E-01  0.89913952382E-01  0.93044988985E-01  0.13870567038E+00  0.44202279638E-01 0.  0.
         14    1    1    2    0    0 -0.74916722344E-02  0.10733202453E-01  0.39193622973E-02  0.13663388620E-01  0.00000000000E+00 0.  1.
     999901    1    3    3    0    0  0.30805459202E-01 -0.10064715483E+00 -0.96964351283E-01  0.89156094100E+00  0.88000000000E+00 0. -1.
        -11    1    4    4    0    0 -0.51358942123E-02  0.79856313906E-01  0.84078635271E-01  0.11607276300E+00  0.51100000000E-03 0. -1.
         11    1    4    4    0    0 -0.18177892755E-01  0.10057638476E-01  0.89663537140E-02  0.22632907384E-01  0.51100000000E-03 0.  1.
</event>
<event>
 8    1  0.2091070E+004  0.1043930E+01  0.7957747E-01            NaN
         13   -1    0    0    0    0  0.00000000000E+00  0.00000000000E+00  0.74505805969E-08  0.10566000000E+00  0.10566000000E+00 0. -1.
     999900   -1    0    0    0    0 -0.00000000000E+00 -0.00000000000E+00 -0.74505805969E-08  0.93827000000E+00  0.93827000000E+00 0.  1.
     999902    2    1    2    0    0 -0.29008660436E-02  0.12473617006E-01  0.57476914508E-02  0.10298928314E+01  0.10297971655E+01 0.  0.
     999903    2    3    3    0    0  0.68467909366E-01  0.10286117114E+00  0.51770312182E-01  0.14119631760E+00  0.44586542106E-01 0.  0.
         14    1    1    2    0    0  0.29008660436E-02 -0.12473617006E-01 -0.57476914508E-02  0.14037168591E-01  0.00000000000E+00 0.  1.
     999901    1    3    3    0    0 -0.71368775410E-01 -0.90387554138E-01 -0.46022620732E-01  0.88869651381E+00  0.88000000000E+00 0.  1.
        -11    1    4    4    0    0  0.56631961432E-01  0.69661700675E-01  0.55816329235E-01  0.10571497210E+00  0.51100000000E-03 0. -1.
         11    1    4    4    0    0  0.11835947934E-01  0.33199470468E-01 -0.40460170530E-02  0.35481345491E-01  0.51100000000E-03 0.  1.
</event>
<event>
 8    1  0.2225770E+004  0.1043930E+01  0.7957747E-01            NaN
         13   -1    0    0    0    0  0.00000000000E+00  0.00000000000E+00  0.74505805969E-08  0.10566000000E+00  0.10566000000E+00 0.  1.
     999900   -1    0    0    0    0 -0.00000000000E+00 -0.00000000000E+00 -0.74505805969E-08  0.93827000000E+00  0.93827000000E+00 0. -1.
     999902    2    1    2    0    0 -0.85162833431E-02 -0.39836898710E-02 -0.97258550106E-02  0.10304026528E+01  0.10303138540E+01 0.  0.
     999903    2    3    3    0    0 -0.69868437664E-01 -0.91768003166E-01  0.66458091568E-01  0.14064191741E+00  0.45392796909E-01 0.  0.
         14    1    1    2    0    0  0.85162833431E-02  0.39836898710E-02  0.97258550106E-02  0.13527347214E-01  0.00000000000E+00 0.  1.
     999901    1    3    3    0    0  0.61352154321E-01  0.87784313295E-01 -0.76183946578E-01  0.88976073538E+00  0.88000000000E+00 0. -1.
        -11    1    4    4    0    0 -0.41352008041E-01 -0.35074900577E-01  0.52882024575E-01  0.75743031783E-01  0.51100000000E-03 0.  1.
         11    1    4    4    0    0 -0.28516429623E-01 -0.56693102589E-01  0.13576066992E-01  0.64898885627E-01  0.51100000000E-03 0. -1.
</event>
<event>
 8    1  0.2091070E+004  0.1043930E+01  0.7957747E-01            NaN
         13   -1    0    0    0    0  0.00000000000E+00  0.00000000000E+00  0.74505805969E-08  0.10566000000E+00  0.10566000000E+00 0. -1.
     999900   -1    0    0    0    0 -0.00000000000E+00 -0.00000000000E+00 -0.74505805969E-08  0.93827000000E+00  0.93827000000E+00 0.  1.
     999902    2    1    2    0    0  0.17884540331E-03  0.11346918397E-01 -0.80944565606E-02  0.10299906754E+01  0.10298963475E+01 0.  0.
     999903    2    3    3    0    0 -0.25172342678E-01  0.98484127307E-01 -0.87893235860E-01  0.14173203004E+00  0.45055268967E-01 0.  0.
         14    1    1    2    0    0 -0.17884540331E-03 -0.11346918397E-01  0.80944565606E-02  0.13939324582E-01  0.00000000000E+00 0. -1.
     999901    1    3    3    0    0  0.25351188081E-01 -0.87137208909E-01  0.79798779299E-01  0.88825864538E+00  0.88000000000E+00 0. -1.
        -11    1    4    4    0    0  0.88811613333E-02  0.38245387800E-01 -0.17396596054E-01  0.42947495734E-01  0.51100000000E-03 0. -1.
         11    1    4    4    0    0 -0.34053504011E-01  0.60238739507E-01 -0.70496639805E-01  0.98784534304E-01  0.51100000000E-03 0.  1.
</event>
<event>
 8    1  0.2091070E+004  0.1043930E+01  0.7957747E-01            NaN
         13   -1    0    0    0    0  0.00000000000E+00  0.00000000000E+00  0.74505805969E-08  0.10566000000E+00  0.10566000000E+00 0. -1.
     999900   -1    0    0    0    0 -0.00000000000E+00 -0.00000000000E+00 -0.74505805969E-08  0.93827000000E+00  0.93827000000E+00 0.  1.
     999902    2    1    2    0    0  0.13301638476E-01  0.61113198814E-02 -0.67221347731E-03  0.10292762057E+01  0.10291718874E+01 0.  0.
     999903    2    3    3    0    0  0.44498564579E-01  0.10423676587E+00 -0.66151876238E-01  0.14085657647E+00  0.51176936160E-01 0.  0.
         14    1    1    2    0    0 -0.13301638476E-01 -0.61113198814E-02  0.67221347731E-03  0.14653794314E-01  0.00000000000E+00 0.  1.
     999901    1    3    3    0    0 -0.31196926103E-01 -0.98125445991E-01  0.65479662761E-01  0.88841962922E+00  0.88000000000E+00 0.  1.
        -11    1    4    4    0    0  0.19571994095E-01  0.19703226273E-01 -0.40418983994E-01  0.49043200003E-01  0.51100000000E-03 0. -1.
         11    1    4    4    0    0  0.24926570484E-01  0.84533539599E-01 -0.25732892244E-01  0.91813376463E-01  0.51100000000E-03 0.  1.
</event>
<event>
 8    1  0.2091070E+004  0.1043930E+01  0.7957747E-01            NaN
         13   -1    0    0    0    0  0.00000000000E+00  0.00000000000E+00  0.74505805969E-08  0.10566000000E+00  0.10566000000E+00 0.  1.
     999900   -1    0    0    0    0 -0.00000000000E+00 -0.00000000000E+00 -0.74505805969E-08  0.93827000000E+00  0.93827000000E+00 0. -1.
     999902    2    1    2    0    0  0.55778667128E-02  0.13004869968E-01  0.75420763705E-03  0.10297593236E+01  0.10296618166E+01 0.  0.
     999903    2    3    3    0    0  0.68775587181E-01 -0.25392242619E-01  0.11021795000E+00  0.13989944644E+00  0.45266005272E-01 0.  0.
         14    1    1    2    0    0 -0.55778667128E-02 -0.13004869968E-01 -0.75420763705E-03  0.14170676381E-01  0.00000000000E+00 0. -1.
     999901    1    3    3    0    0 -0.63197720468E-01  0.38397112587E-01 -0.10946374236E+00  0.88985987718E+00  0.88000000000E+00 0.  1.
        -11    1    4    4    0    0  0.42768847670E-01 -0.26257064479E-01  0.10009740590E+00  0.11197481661E+00  0.51100000000E-03 0.  1.
         11    1    4    4    0    0  0.26006739512E-01  0.86482185967E-03  0.10120544097E-01  0.27924629822E-01  0.51100000000E-03 0. -1.
</event>
<event>
 8    1  0.2091070E+004  0.1043930E+01  0.7957747E-01            NaN
         13   -1    0    0    0    0  0.00000000000E+00  0.00000000000E+00  0.74505805969E-08  0.10566000000E+00  0.10566000000E+00 0. -1.
     999900   -1    0    0    0    0 -0.00000000000E+00 -0.00000000000E+00 -0.74505805969E-08  0.93827000000E+00  0.93827000000E+00 0. -1.
     999902    2    1    2    0    0 -0.13453897041E-01 -0.35563366461E-02  0.30974482926E-02  0.10296734555E+01  0.10295747549E+01 0.  0.
     999903    2    3    3    0    0 -0.45601959623E-01  0.76147438110E-01  0.97954546404E-01  0.14041305565E+00  0.47357808039E-01 0.  0.
         14    1    1    2    0    0  0.13453897041E-01  0.35563366461E-02 -0.30974482926E-02  0.14256544527E-01  0.00000000000E+00 0. -1.
     999901    1    3    3    0    0  0.32148062582E-01 -0.79703774756E-01 -0.94857098111E-01  0.88926039983E+00  0.88000000000E+00 0. -1.
        -11    1    4    4    0    0 -0.40019745986E-02  0.52671652061E-01  0.52225876460E-01  0.74284063059E-01  0.51100000000E-03 0.  1.
         11    1    4    4    0    0 -0.41599985025E-01  0.23475786049E-01  0.45728669944E-01  0.66128992587E-01  0.51100000000E-03 0. -1.
</event>
<event>
 8    1  0.2091070E+004  0.1043930E+01  0.7957747E-01            NaN
         13   -1    0    0    0    0  0.00000000000E+00  0.00000000000E+00  0.74505805969E-08  0.10566000000E+00  0.10566000000E+00 0. -1.
     999900   -1    0    0    0    0 -0.00000000000E+00 -0.00000000000E+00 -0.74505805969E-08  0.93827000000E+00  0.93827000000E+00 0.  1.
     999902    2    1    2    0    0 -0.27192151889E-02  0.13819488475E-01 -0.20613607810E-02  0.10296954785E+01  0.10295970847E+01 0.  0.
     999903    2    3    3    0    0 -0.50089004412E-02 -0.83648734879E-01  0.10055933948E+00  0.13838391385E+00  0.44896847627E-01 0.  0.
         14    1    1    2    0    0  0.27192151889E-02 -0.13819488475E-01  0.20613607810E-02  0.14234521461E-01  0.00000000000E+00 0.  1.
     999901    1    3    3    0    0  0.22896852523E-02  0.97468223354E-01 -0.10262070026E+00  0.89131156469E+00  0.88000000000E+00 0.  1.
        -11    1    4    4    0    0 -0.12604057798E-01 -0.40385927996E-01  0.78621381110E-01  0.89283078698E-01  0.51100000000E-03 0. -1.
         11    1    4    4    0    0  0.75951573569E-02 -0.43262806882E-01  0.21937958366E-01  0.49100835154E-01  0.51100000000E-03 0.  1.
</event>
<event>
 8    1  0.2091070E+004  0.1043930E+01  0.7957747E-01            NaN
         13   -1    0    0    0    0  0.00000000000E+00  0.00000000000E+00  0.74505805969E-08  0.10566000000E+00  0.10566000000E+00 0.  1.
     999900   -1    0    0    0    0 -0.00000000000E+00 -0.00000000000E+00 -0.74505805969E-08  0.93827000000E+00  0.93827000000E+00 0.  1.
     999902    2    1    2    0    0  0.13973090142E-01  0.93743750918E-03 -0.61548062638E-03  0.10299119811E+01  0.10298165778E+01 0.  0.
     999903    2    3    3    0    0  0.63521019189E-01  0.11257319079E+00 -0.32597802836E-01  0.14090106576E+00  0.45638256084E-01 0.  0.
         14    1    1    2    0    0 -0.13973090142E-01 -0.93743750918E-03  0.61548062638E-03  0.14018018890E-01  0.00000000000E+00 0. -1.
     999901    1    3    3    0    0 -0.49547929047E-01 -0.11163575328E+00  0.31982322210E-01  0.88901091535E+00  0.88000000000E+00 0. -1.
        -11    1    4    4    0    0  0.44511645167E-01  0.33899497536E-01 -0.16941947710E-01  0.58461553194E-01  0.51100000000E-03 0. -1.
         11    1    4    4    0    0  0.19009374022E-01  0.78673693254E-01 -0.15655855126E-01  0.82439512563E-01  0.51100000000E-03 0.  1.
</event>
<event>
 8    1  0.2091070E+004  0.1043930E+01  0.7957747E-01            NaN
         13   -1    0    0    0    0  0.00000000000E+00  0.00000000000E+00  0.74505805969E-08  0.10566000000E+00  0.10566000000E+00 0. -1.
     999900   -1    0    0    0    0 -0.00000000000E+00 -0.00000000000E+00 -0.74505805969E-08  0.93827000000E+00  0.93827000000E+00 0. -1.
     999902    2    1    2    0    0 -0.85138542349E-02  0.53057820802E-03 -0.97519991597E-02  0.10309735840E+01  0.10308921681E+01 0.  0.
     999903    2    3    3    0    0  0.71278537955E-01  0.77187304466E-02 -0.11415358736E+00  0.14118811157E+00  0.41986099710E-01 0.  0.
         14    1    1    2    0    0  0.85138542349E-02 -0.53057820802E-03  0.97519991597E-02  0.12956415970E-01  0.00000000000E+00 0. -1.
     999901    1    3    3    0    0 -0.79792392190E-01 -0.71881522386E-02  0.10440158820E+00  0.88978547246E+00  0.88000000000E+00 0. -1.
        -11    1    4    4    0    0  0.44306883922E-01 -0.13686040437E-01 -0.48826604784E-01  0.67340226622E-01  0.51100000000E-03 0.  1.
         11    1    4    4    0    0  0.26971654033E-01  0.21404770884E-01 -0.65326982575E-01  0.73847884948E-01  0.51100000000E-03 0. -1.
</event>
<event>
 8    1  0.2091070E+004  0.1043930E+01  0.7957747E-01            NaN
         13   -1    0    0    0    0  0.00000000000E+00  0.00000000000E+00  0.74505805969E-08  0.10566000000E+00  0.10566000000E+00 0. -1.
     999900   -1    0    0    0    0 -0.00000000000E+00 -0.00000000000E+00 -0.74505805969E-08  0.93827000000E+00  0.93827000000E+00 0. -1.
     999902    2    1    2    0    0  0.86359021529E-02  0.42487145993E-02 -0.93012791229E-02  0.10305455248E+01  0.10304586040E+01 0.  0.
     999903    2    3    3    0    0 -0.95163817231E-01  0.43007700202E-01  0.80156989515E-01  0.13909758888E+00  0.44913047977E-01 0.  0.
         14    1    1    2    0    0 -0.86359021529E-02 -0.42487145993E-02  0.93012791229E-02  0.13384475151E-01  0.00000000000E+00 0. -1.
     999901    1    3    3    0    0  0.10379971938E+00 -0.38758985602E-01 -0.89458268638E-01  0.89144793597E+00  0.88000000000E+00 0.  1.
        -11    1    4    4    0    0 -0.81023975761E-01  0.26662108397E-01  0.80766469240E-01  0.11747015088E+00  0.51100000000E-03 0.  1.
         11    1    4    4    0    0 -0.14139841470E-01  0.16345591805E-01 -0.60947972539E-03  0.21627438008E-01  0.51100000000E-03 0. -1.
</event>
<event>
 8    1  0.2091070E+004  0.1043930E+01  0.7957747E-01            NaN
         13   -1    0    0    0    0  0.00000000000E+00  0.00000000000E+00  0.74505805969E-08  0.10566000000E+00  0.10566000000E+00 0. -1.
     999900   -1    0    0    0    0 -0.00000000000E+00 -0.00000000000E+00 -0.74505805969E-08  0.93827000000E+00  0.93827000000E+00 0.  1.
     999902    2    1    2    0    0  0.85629220608E-02  0.72305912257E-02 -0.93452097611E-02  0.10293376037E+01  0.10292341640E+01 0.  0.
     999903    2    3    3    0    0  0.85766432946E-01  0.92248746071E-01 -0.43804786992E-01  0.14120702142E+00  0.46420376606E-01 0.  0.
         14    1    1    2    0    0 -0.85629220608E-02 -0.72305912257E-02  0.93452097611E-02  0.14592396279E-01  0.00000000000E+00 0. -1.
     999901    1    3    3    0    0 -0.77203510885E-01 -0.85018154846E-01  0.34459577231E-01  0.88813058230E+00  0.88000000000E+00 0. -1.
        -11    1    4    4    0    0  0.56379117432E-01  0.53716279380E-01 -0.31288031172E-02  0.77936474662E-01  0.51100000000E-03 0.  1.
         11    1    4    4    0    0  0.29387315514E-01  0.38532466691E-01 -0.40675983875E-01  0.63270546763E-01  0.51100000000E-03 0. -1.
</event>
<event>
 8    1  0.2091070E+004  0.1043930E+01  0.7957747E-01            NaN
         13   -1    0    0    0    0  0.00000000000E+00  0.00000000000E+00  0.74505805969E-08  0.10566000000E+00  0.10566000000E+00 0. -1.
     999900   -1    0    0    0    0 -0.00000000000E+00 -0.00000000000E+00 -0.74505805969E-08  0.93827000000E+00  0.93827000000E+00 0. -1.
     999902    2    1    2    0    0  0.55325215816E-02 -0.31013860296E-02 -0.10530281407E-01  0.10316371477E+01  0.10315639051E+01 0.  0.
     999903    2    3    3    0    0 -0.78063458114E-03 -0.11223580951E+00 -0.78092017043E-01  0.14230325855E+00  0.39425473246E-01 0.  0.
         14    1    1    2    0    0 -0.55325215816E-02  0.31013860296E-02  0.10530281407E-01  0.12292852268E-01  0.00000000000E+00 0. -1.
     999901    1    3    3    0    0  0.63131561628E-02  0.10913442348E+00  0.67561735635E-01  0.88933388918E+00  0.88000000000E+00 0.  1.
        -11    1    4    4    0    0 -0.17620078635E-02 -0.72201705878E-01 -0.26370333307E-01  0.76888533626E-01  0.51100000000E-03 0.  1.
         11    1    4    4    0    0  0.98137328233E-03 -0.40034103633E-01 -0.51721683736E-01  0.65414724922E-01  0.51100000000E-03 0. -1.
</event>
<event>
 8    1  0.2091070E+004  0.1043930E+01  0.7957747E-01            NaN
         13   -1    0    0    0    0  0.00000000000E+00  0.00000000000E+00  0.74505805969E-08  0.10566000000E+00  0.10566000000E+00 0.  1.
     999900   -1    0    0    0    0 -0.00000000000E+00 -0.00000000000E+00 -0.74505805969E-08  0.93827000000E+00  0.93827000000E+00 0.  1.
     999902    2    1    2    0    0  0.13404631647E-01 -0.21454110335E-02 -0.49321968724E-02  0.10294865411E+01  0.10293852169E+01 0.  0.
     999903    2    3    3    0    0 -0.89594586451E-01  0.77234685329E-01  0.54880994783E-01  0.13792181744E+00  0.44923463796E-01 0.  0.
         14    1    1    2    0    0 -0.13404631647E-01  0.21454110335E-02  0.49321968724E-02  0.14443458868E-01  0.00000000000E+00 0. -1.
     999901    1    3    3    0    0  0.10299921810E+00 -0.79380096363E-01 -0.59813191656E-01  0.89156472369E+00  0.88000000000E+00 0.  1.
        -11    1    4    4    0    0 -0.32638636357E-01  0.28100502917E-01 -0.27512245174E-02  0.43159578367E-01  0.51100000000E-03 0.  1.
         11    1    4    4    0    0 -0.56955950094E-01  0.49134182412E-01  0.57632219301E-01  0.94762239077E-01  0.51100000000E-03 0. -1.
</event>
<event>
 8    1  0.2091070E+004  0.1043930E+01  0.7957747E-01            NaN
         13   -1    0    0    0    0  0.00000000000E+00  0.00000000000E+00  0.74505805969E-08  0.10566000000E+00  0.10566000000E+00 0. -1.
     999900   -1    0    0    0    0 -0.00000000000E+00 -0.00000000000E+00 -0.74505805969E-08  0.93827000000E+00  0.93827000000E+00 0.  1.
     999902    2    1    2    0    0 -0.62152664761E-02 -0.12430222277E-01 -0.47386150244E-02  0.10292468656E+01  0.10291421262E+01 0.  0.
     999903    2    3    3    0    0  0.51404421996E-01 -0.58160750637E-01  0.10648764675E+00  0.13920046736E+00  0.44856032919E-01 0.  0.
         14    1    1    2    0    0  0.62152664761E-02  0.12430222277E-01  0.47386150244E-02  0.14683134392E-01  0.00000000000E+00 0. -1.
     999901    1    3    3    0    0 -0.57619688472E-01  0.45730528360E-01 -0.11122626177E+00  0.89004639825E+00  0.88000000000E+00 0.  1.
        -11    1    4    4    0    0  0.53664385206E-01 -0.59746758460E-01  0.82811267735E-01  0.11535817514E+00  0.51100000000E-03 0.  1.
         11    1    4    4    0    0 -0.22599632101E-02  0.15860078237E-02  0.23676379010E-01  0.23842292225E-01  0.51100000000E-03 0. -1.
</event>
<event>
 8    1  0.2091070E+004  0.1043930E+01  0.7957747E-01            NaN
         13   -1    0    0    0    0  0.00000000000E+00  0.00000000000E+00  0.74505805969E-08  0.10566000000E+00  0.10566000000E+00 0.  1.
     999900   -1    0    0    0    0 -0.00000000000E+00 -0.00000000000E+00 -0.74505805969E-08  0.93827000000E+00  0.93827000000E+00 0.  1.
     999902    2    1    2    0    0  0.59797210374E-03  0.24939696470E-02  0.12938526645E-01  0.10307397412E+01  0.10306553406E+01 0.  0.
     999903    2    3    3    0    0 -0.62547345945E-01  0.10136926845E+00 -0.56231456258E-01  0.14026338417E+00  0.48207273279E-01 0.  0.
         14    1    1    2    0    0 -0.59797210374E-03 -0.24939696470E-02 -0.12938526645E-01  0.13190258791E-01  0.00000000000E+00 0. -1.
     999901    1    3    3    0    0  0.63145318049E-01 -0.98875298799E-01  0.69169982903E-01  0.89047635704E+00  0.88000000000E+00 0.  1.
        -11    1    4    4    0    0 -0.42259044689E-01  0.42035823372E-01 -0.59848315696E-02  0.59907567422E-01  0.51100000000E-03 0.  1.
         11    1    4    4    0    0 -0.20288301256E-01  0.59333445074E-01 -0.50246624688E-01  0.80355816751E-01  0.51100000000E-03 0. -1.
</event>
<event>
 8    1  0.2091070E+004  0.1043930E+01  0.7957747E-01            NaN
         13   -1    0    0    0    0  0.00000000000E+00  0.00000000000E+00  0.74505805969E-08  0.10566000000E+00  0.10566000000E+00 0. -1.
     999900   -1    0    0    0    0 -0.00000000000E+00 -0.00000000000E+00 -0.74505805969E-08  0.93827000000E+00  0.93827000000E+00 0. -1.
     999902    2    1    2    0    0  0.65538311139E-02  0.53166213647E-02 -0.11109939725E-01  0.10299783003E+01  0.10298838037E+01 0.  0.
     999903    2    3    3    0    0  0.51250651356E-01  0.52950005090E-01 -0.11227656800E+00  0.14177706649E+00  0.45435410846E-01 0.  0.
         14    1    1    2    0    0 -0.65538311139E-02 -0.53166213647E-02  0.11109939725E-01  0.13951699742E-01  0.00000000000E+00 0. -1.
     999901    1    3    3    0    0 -0.44696820242E-01 -0.47633383725E-01  0.10116662827E+00  0.88820123376E+00  0.88000000000E+00 0. -1.
        -11    1    4    4    0    0  0.20109222271E-02  0.26076131040E-01 -0.58429001586E-01  0.64017323949E-01  0.51100000000E-03 0. -1.
         11    1    4    4    0    0  0.49239729129E-01  0.26873874049E-01 -0.53847566411E-01  0.77759742544E-01  0.51100000000E-03 0.  1.
</event>
<event>
 8    1  0.2091070E+004  0.1043930E+01  0.7957747E-01            NaN
         13   -1    0    0    0    0  0.00000000000E+00  0.00000000000E+00  0.74505805969E-08  0.10566000000E+00  0.10566000000E+00 0.  1.
     999900   -1    0    0    0    0 -0.00000000000E+00 -0.00000000000E+00 -0.74505805969E-08  0.93827000000E+00  0.93827000000E+00 0.  1.
     999902    2    1    2    0    0  0.43292653953E-02  0.11790169762E-01 -0.37668289229E-02  0.10308174243E+01  0.10307340212E+01 0.  0.
     999903    2    3    3    0    0 -0.91345591810E-01  0.65170546008E-01  0.70580401985E-01  0.14091256778E+00  0.47786414442E-01 0.  0.
         14    1    1    2    0    0 -0.43292653953E-02 -0.11790169762E-01  0.37668289229E-02  0.13112575720E-01  0.00000000000E+00 0.  1.
     999901    1    3    3    0    0  0.95674857205E-01 -0.53380376246E-01 -0.74347230908E-01  0.88990485649E+00  0.88000000000E+00 0. -1.
        -11    1    4    4    0    0  0.43455703024E-02  0.18801403536E-02  0.10217843372E-01  0.11273169616E-01  0.51100000000E-03 0. -1.
         11    1    4    4    0    0 -0.95691162112E-01  0.63290405655E-01  0.60362558613E-01  0.12963939817E+00  0.51100000000E-03 0.  1.
</event>
<event>
 8    1  0.2091070E+004  0.1043930E+01  0.7957747E-01            NaN
         13   -1    0    0    0    0  0.00000000000E+00  0.00000000000E+00  0.74505805969E-08  0.10566000000E+00  0.10566000000E+00 0.  1.
     999900   -1    0    0    0    0 -0.00000000000E+00 -0.00000000000E+00 -0.74505805969E-08  0.93827000000E+00  0.93827000000E+00 0.  1.
     999902    2    1    2    0    0 -0.23856508111E-03 -0.94013926367E-02 -0.12594980806E-01  0.10282113284E+01  0.10280911726E+01 0.  0.
     999903    2    3    3    0    0 -0.24738480644E-01  0.58937409721E-01  0.11161574623E+00  0.13652823303E+00  0.45785073102E-01 0.  0.
         14    1    1    2    0    0  0.23856508111E-03  0.94013926367E-02  0.12594980806E-01  0.15718671646E-01  0.00000000000E+00 0. -1.
     999901    1    3    3    0    0  0.24499915563E-01 -0.68338802357E-01 -0.12421072704E+00  0.89168309532E+00  0.88000000000E+00 0.  1.
        -11    1    4    4    0    0 -0.64261403429E-02  0.43657797032E-01  0.35122911932E-01  0.56401937776E-01  0.51100000000E-03 0.  1.
         11    1    4    4    0    0 -0.18312340301E-01  0.15279612689E-01  0.76492834300E-01  0.80126295256E-01  0.51100000000E-03 0. -1.
</event>
<event>
 8    1  0.2091070E+004  0.1043930E+01  0.7957747E-01            NaN
         13   -1    0    0    0    0  0.00000000000E+00  0.00000000000E+00  0.74505805969E-08  0.10566000000E+00  0.10566000000E+00 0.  1.
     999900   -1    0    0    0    0 -0.00000000000E+00 -0.00000000000E+00 -0.74505805969E-08  0.93827000000E+00  0.93827000000E+00 0.  1.
     999902    2    1    2    0    0  0.14599884790E-01  0.11088583340E-02 -0.57550532889E-03  0.10292767611E+01  0.10291724509E+01 0.  0.
     999903    2    3    3    0    0  0.29603544961E-01  0.12325549071E+00 -0.35960323754E-01  0.14000908772E+00  0.47340404449E-01 0.  0.
         14    1    1    2    0    0 -0.14599884790E-01 -0.11088583340E-02  0.57550532889E-03  0.14653238860E-01  0.00000000000E+00 0.  1.
     999901    1    3    3    0    0 -0.15003660171E-01 -0.12214663238E+00  0.35384818426E-01  0.88926767342E+00  0.88000000000E+00 0.  1.
        -11    1    4    4    0    0  0.20316669771E-01  0.84166870124E-01 -0.75701168930E-03  0.86589048295E-01  0.51100000000E-03 0. -1.
         11    1    4    4    0    0  0.92868751902E-02  0.39088620591E-01 -0.35203312065E-01  0.53420039422E-01  0.51100000000E-03 0.  1.
</event>
<event>
 8    1  0.2091070E+004  0.1043930E+01  0.7957747E-01            NaN
         13   -1    0    0    0    0  0.00000000000E+00  0.00000000000E+00  0.74505805969E-08  0.10566000000E+00  0.10566000000E+00 0.  1.
     999900   -1    0    0    0    0 -0.00000000000E+00 -0.00000000000E+00 -0.74505805969E-08  0.93827000000E+00  0.93827000000E+00 0.  1.
     999902    2    1    2    0    0 -0.36134357462E-02  0.20694040566E-02  0.13200914310E-01  0.10300879088E+01  0.10299949011E+01 0.  0.
     999903    2    3    3    0    0 -0.10517668219E+00 -0.73195044725E-01  0.36756302718E-01  0.14074282018E+00  0.45142735785E-01 0.  0.
         14    1    1    2    0    0  0.36134357462E-02 -0.20694040566E-02 -0.13200914310E-01  0.13842091231E-01  0.00000000000E+00 0. -1.
     999901    1    3    3    0    0  0.10156324644E+00  0.75264448782E-01 -0.23555388408E-01  0.88934508859E+00  0.88000000000E+00 0.  1.
        -11    1    4    4    0    0  0.17340432570E-02 -0.11932501256E-01  0.71060034584E-02  0.14005281089E-01  0.51100000000E-03 0.  1.
         11    1    4    4    0    0 -0.10691072544E+00 -0.61262543469E-01  0.29650299259E-01  0.12673753909E+00  0.51100000000E-03 0. -1.
</event>
<event>
 8    1  0.2091070E+004  0.1043930E+01  0.7957747E-01            NaN
         13   -1    0    0    0    0  0.00000000000E+00  0.00000000000E+00  0.74505805969E-08  0.10566000000E+00  0.10566000000E+00 0.  1.
     999900   -1    0    0    0    0 -0.00000000000E+00 -0.00000000000E+00 -0.74505805969E-08  0.93827000000E+00  0.93827000000E+00 0. -1.
     999902    2    1    2    0    0 -0.95432368897E-02  0.79429987897E-02  0.65752371867E-02  0.10298801479E+01  0.10297843078E+01 0.  0.
     999903    2    3    3    0    0 -0.18217389949E-01  0.13132183044E+00  0.68281548482E-02  0.14123081267E+00  0.48189441807E-01 0.  0.
         14    1    1    2    0    0  0.95432368897E-02 -0.79429987897E-02 -0.65752371867E-02  0.14049852105E-01  0.00000000000E+00 0. -1.
     999901    1    3    3    0    0  0.86741530597E-02 -0.12337883165E+00 -0.25291766146E-03  0.88864933523E+00  0.88000000000E+00 0. -1.
        -11    1    4    4    0    0 -0.86607345281E-02  0.60127791411E-01 -0.20878863028E-01  0.64238210318E-01  0.51100000000E-03 0.  1.
         11    1    4    4    0    0 -0.95566554213E-02  0.71194039029E-01  0.27707017876E-01  0.76992602351E-01  0.51100000000E-03 0. -1.
</event>
<event>
 8    1  0.2091070E+004  0.1043930E+01  0.7957747E-01            NaN
         13   -1    0    0    0    0  0.00000000000E+00  0.00000000000E+00  0.74505805969E-08  0.10566000000E+00  0.10566000000E+00 0.  1.
     999900   -1    0    0    0    0 -0.00000000000E+00 -0.00000000000E+00 -0.74505805969E-08  0.93827000000E+00  0.93827000000E+00 0.  1.
     999902    2    1    2    0    0 -0.12270350085E-01 -0.47481083996E-02 -0.14633244731E-02  0.10306918981E+01  0.10306068801E+01 0.  0.
     999903    2    3    3    0    0 -0.80093425213E-01  0.57080114161E-01  0.90602221992E-01  0.14114214483E+00  0.45158013920E-01 0.  0.
         14    1    1    2    0    0  0.12270350085E-01  0.47481083996E-02  0.14633244731E-02  0.13238101944E-01  0.00000000000E+00 0. -1.
     999901    1    3    3    0    0  0.67823075128E-01 -0.61828222561E-01 -0.92065546466E-01  0.88954975323E+00  0.88000000000E+00 0.  1.
        -11    1    4    4    0    0 -0.19877180419E-01  0.41387675533E-01  0.35832293949E-01  0.58243080259E-01  0.51100000000E-03 0.  1.
         11    1    4    4    0    0 -0.60216244794E-01  0.15692438628E-01  0.54769928044E-01  0.82899064567E-01  0.51100000000E-03 0. -1.
</event>
<event>
 8    1  0.2091070E+004  0.1043930E+01  0.7957747E-01            NaN
         13   -1    0    0    0    0  0.00000000000E+00  0.00000000000E+00  0.74505805969E-08  0.10566000000E+00  0.10566000000E+00 0.  1.
     999900   -1    0    0    0    0 -0.00000000000E+00 -0.00000000000E+00 -0.74505805969E-08  0.93827000000E+00  0.93827000000E+00 0. -1.
     999902    2    1    2    0    0  0.75804851335E-02 -0.85754381197E-02  0.53625411723E-02  0.10312904295E+01  0.10312129709E+01 0.  0.
     999903    2    3    3    0    0  0.18572619230E-01 -0.59077488138E-01  0.11970448503E+00  0.14238921781E+00  0.45939458242E-01 0.  0.
         14    1    1    2    0    0 -0.75804851335E-02  0.85754381197E-02 -0.53625411723E-02  0.12639570468E-01  0.00000000000E+00 0. -1.
     999901    1    3    3    0    0 -0.10992134097E-01  0.50502050018E-01 -0.11434194386E+00  0.88890121172E+00  0.88000000000E+00 0. -1.
        -11    1    4    4    0    0  0.11682016342E-01 -0.28571731848E-01  0.10173603867E+00  0.10631696032E+00  0.51100000000E-03 0.  1.
         11    1    4    4    0    0  0.68906028879E-02 -0.30505756290E-01  0.17968446358E-01  0.36072257491E-01  0.51100000000E-03 0. -1.
</event>
<event>
 8    1  0.2091070E+004  0.1043930E+01  0.7957747E-01            NaN
         13   -1    0    0    0    0  0.00000000000E+00  0.00000000000E+00  0.74505805969E-08  0.10566000000E+00  0.10566000000E+00 0. -1.
     999900   -1    0    0    0    0 -0.00000000000E+00 -0.00000000000E+00 -0.74505805969E-08  0.93827000000E+00  0.93827000000E+00 0. -1.
     999902    2    1    2    0    0  0.92534074273E-02 -0.46545593165E-02  0.89692684663E-02  0.10302282392E+01  0.10301371203E+01 0.  0.
     999903    2    3    3    0    0 -0.84933670750E-02  0.98645044224E-01 -0.86288850508E-01  0.13890345817E+00  0.45226352223E-01 0.  0.
         14    1    1    2    0    0 -0.92534074273E-02  0.46545593165E-02 -0.89692684663E-02  0.13701760772E-01  0.00000000000E+00 0.  1.
     999901    1    3    3    0    0  0.17746774502E-01 -0.10329960354E+00  0.95258118974E-01  0.89132478106E+00  0.88000000000E+00 0.  1.
        -11    1    4    4    0    0 -0.43184381973E-02  0.37766937021E-01 -0.66831879852E-02  0.38599437341E-01  0.51100000000E-03 0.  1.
         11    1    4    4    0    0 -0.41749288778E-02  0.60878107203E-01 -0.79605662523E-01  0.10030402083E+00  0.51100000000E-03 0. -1.
</event>
<event>
 8    1  0.2091070E+004  0.1043930E+01  0.7957747E-01            NaN
         13   -1    0    0    0    0  0.00000000000E+00  0.00000000000E+00  0.74505805969E-08  0.10566000000E+00  0.10566000000E+00 0. -1.
     999900   -1    0    0    0    0 -0.00000000000E+00 -0.00000000000E+00 -0.74505805969E-08  0.93827000000E+00  0.93827000000E+00 0. -1.
     999902    2    1    2    0    0 -0.13620149924E-02  0.13756097325E-01 -0.84660181347E-03  0.10300807389E+01  0.10299876342E+01 0.  0.
     999903    2    3    3    0    0 -0.26902515473E-01  0.40953300472E-02  0.12968879588E+00  0.14003291005E+00  0.45271570041E-01 0.  0.
         14    1    1    2    0    0  0.13620149924E-02 -0.13756097325E-01  0.84660181347E-03  0.13849261102E-01  0.00000000000E+00 0.  1.
     999901    1    3    3    0    0  0.25540500480E-01  0.96607672774E-02 -0.13053539769E+00  0.89004782885E+00  0.88000000000E+00 0. -1.
        -11    1    4    4    0    0  0.26600634846E-02 -0.12012125777E-01  0.73531696838E-01  0.74555607866E-01  0.51100000000E-03 0.  1.
         11    1    4    4    0    0 -0.29562578957E-01  0.16107455824E-01  0.56157099038E-01  0.65477302183E-01  0.51100000000E-03 0. -1.
</event>
<event>
 8    1  0.2091070E+004  0.1043930E+01  0.7957747E-01            NaN
         13   -1    0    0    0    0  0.00000000000E+00  0.00000000000E+00  0.74505805969E-08  0.10566000000E+00  0.10566000000E+00 0. -1.
     999900   -1    0    0    0    0 -0.00000000000E+00 -0.00000000000E+00 -0.74505805969E-08  0.93827000000E+00  0.93827000000E+00 0.  1.
     999902    2    1    2    0    0  0.40025418058E-02 -0.18300581240E-01  0.10725918661E-02  0.10251661500E+01  0.10249944161E+01 0.  0.
     999903    2    3    3    0    0  0.10601295084E+00 -0.48414009336E-01 -0.55767022965E-01  0.13694113123E+00  0.45389982670E-01 0.  0.
         14    1    1    2    0    0 -0.40025418058E-02  0.18300581240E-01 -0.10725918661E-02  0.18763850030E-01  0.00000000000E+00 0.  1.
     999901    1    3    3    0    0 -0.10201040903E+00  0.30113428096E-01  0.56839614831E-01  0.88822501874E+00  0.88000000000E+00 0. -1.
        -11    1    4    4    0    0  0.77155491252E-01 -0.35151833037E-01 -0.16401506511E-01  0.86359085990E-01  0.51100000000E-03 0.  1.
         11    1    4    4    0    0  0.28857459586E-01 -0.13262176299E-01 -0.39365516454E-01  0.50582045240E-01  0.51100000000E-03 0. -1.
</event>
<event>
 8    1  0.2091070E+004  0.1043930E+01  0.7957747E-01            NaN
         13   -1    0    0    0    0  0.00000000000E+00  0.00000000000E+00  0.74505805969E-08  0.10566000000E+00  0.10566000000E+00 0.  1.
     999900   -1    0    0    0    0 -0.00000000000E+00 -0.00000000000E+00 -0.74505805969E-08  0.93827000000E+00  0.93827000000E+00 0.  1.
     999902    2    1    2    0    0  0.88336527908E-03  0.12217915444E-01  0.85350091034E-02  0.10290000244E+01  0.10288917076E+01 0.  0.
     999903    2    3    3    0    0 -0.76860237591E-01 -0.98414172396E-01  0.35385974192E-01  0.13826746014E+00  0.47674709366E-01 0.  0.
         14    1    1    2    0    0 -0.88336527908E-03 -0.12217915444E-01 -0.85350091034E-02  0.14929975633E-01  0.00000000000E+00 0. -1.
     999901    1    3    3    0    0  0.77743602871E-01  0.11063208784E+00 -0.26850965089E-01  0.89073256423E+00  0.88000000000E+00 0. -1.
        -11    1    4    4    0    0 -0.39820874596E-01 -0.15648911120E-01  0.14871439842E-01  0.45299131523E-01  0.51100000000E-03 0. -1.
         11    1    4    4    0    0 -0.37039362996E-01 -0.82765261277E-01  0.20514534350E-01  0.92968328618E-01  0.51100000000E-03 0.  1.
</event>
<event>
 8    1  0.2091070E+004  0.1043930E+01  0.7957747E-01            NaN
         13   -1    0    0    0    0  0.00000000000E+00  0.00000000000E+00  0.74505805969E-08  0.10566000000E+00  0.10566000000E+00 0. -1.
     999900   -1    0    0    0    0 -0.00000000000E+00 -0.00000000000E+00 -0.74505805969E-08  0.93827000000E+00  0.93827000000E+00 0. -1.
     999902    2    1    2    0    0 -0.79428749428E-02 -0.29578650510E-02 -0.98629526561E-02  0.10309255368E+01  0.10308435121E+01 0.  0.
     999903    2    3    3    0    0 -0.58797955802E-01  0.82396948110E-02 -0.12115277405E+00  0.14238907219E+00  0.45514404778E-01 0.  0.
         14    1    1    2    0    0  0.79428749428E-02  0.29578650510E-02  0.98629526561E-02  0.13004463200E-01  0.00000000000E+00 0. -1.
     999901    1    3    3    0    0  0.50855080859E-01 -0.11197559862E-01  0.11128982139E+00  0.88853646461E+00  0.88000000000E+00 0.  1.
        -11    1    4    4    0    0 -0.16772240011E-01  0.21993740954E-01 -0.28469641212E-01  0.39696527151E-01  0.51100000000E-03 0. -1.
         11    1    4    4    0    0 -0.42025715791E-01 -0.13754046143E-01 -0.92683132837E-01  0.10269254504E+00  0.51100000000E-03 0.  1.
</event>
<event>
 8    1  0.2091070E+004  0.1043930E+01  0.7957747E-01            NaN
         13   -1    0    0    0    0  0.00000000000E+00  0.00000000000E+00  0.74505805969E-08  0.10566000000E+00  0.10566000000E+00 0. -1.
     999900   -1    0    0    0    0 -0.00000000000E+00 -0.00000000000E+00 -0.74505805969E-08  0.93827000000E+00  0.93827000000E+00 0. -1.
     999902    2    1    2    0    0 -0.12153891244E-01 -0.91719440115E-03  0.12371289336E-01  0.10265631604E+01  0.10264162485E+01 0.  0.
     999903    2    3    3    0    0  0.63760669542E-01 -0.81619637970E-01  0.77977082545E-01  0.13719258238E+00  0.44879739034E-01 0.  0.
         14    1    1    2    0    0  0.12153891244E-01  0.91719440115E-03 -0.12371289336E-01  0.17366839603E-01  0.00000000000E+00 0. -1.
     999901    1    3    3    0    0 -0.75914560786E-01  0.80702443568E-01 -0.65605793209E-01  0.88937057802E+00  0.88000000000E+00 0. -1.
        -11    1    4    4    0    0  0.47317758643E-01 -0.51611259254E-01  0.75362410932E-01  0.10287101860E+00  0.51100000000E-03 0.  1.
         11    1    4    4    0    0  0.16442910899E-01 -0.30008378716E-01  0.26146716123E-02  0.34321563784E-01  0.51100000000E-03 0. -1.
</event>
<event>
 8    1  0.2091070E+004  0.1043930E+01  0.7957747E-01            NaN
         13   -1    0    0    0    0  0.00000000000E+00  0.00000000000E+00  0.74505805969E-08  0.10566000000E+00  0.10566000000E+00 0. -1.
     999900   -1    0    0    0    0 -0.00000000000E+00 -0.00000000000E+00 -0.74505805969E-08  0.93827000000E+00  0.93827000000E+00 0. -1.
     999902    2    1    2    0    0  0.39444549276E-02  0.12533627918E-01 -0.57091752761E-02  0.10296036175E+01  0.10295039407E+01 0.  0.
     999903    2    3    3    0    0  0.59672030882E-01  0.96190920837E-01  0.69101799179E-01  0.14072748029E+00  0.47071440800E-01 0.  0.
         14    1    1    2    0    0 -0.39444549276E-02 -0.12533627918E-01  0.57091752761E-02  0.14326382509E-01  0.00000000000E+00 0. -1.
     999901    1    3    3    0    0 -0.55727575954E-01 -0.83657292919E-01 -0.74810974455E-01  0.88887613720E+00  0.88000000000E+00 0. -1.
        -11    1    4    4    0    0  0.67663384220E-01  0.89209587381E-01  0.62927258038E-01  0.12843981069E+00  0.51100000000E-03 0.  1.
         11    1    4    4    0    0 -0.79913533381E-02  0.69813334561E-02  0.61745411407E-02  0.12287669604E-01  0.51100000000E-03 0. -1.
</event>
<event>
 8    1  0.2091070E+004  0.1043930E+01  0.7957747E-01            NaN
         13   -1    0    0    0    0  0.00000000000E+00  0.00000000000E+00  0.74505805969E-08  0.10566000000E+00  0.10566000000E+00 0. -1.
     999900   -1    0    0    0    0 -0.00000000000E+00 -0.00000000000E+00 -0.74505805969E-08  0.93827000000E+00  0.93827000000E+00 0.  1.
     999902    2    1    2    0    0 -0.54434852792E-03 -0.12621445963E-01 -0.49571768769E-02  0.10303590451E+01  0.10302696691E+01 0.  0.
     999903    2    3    3    0    0  0.10406997070E+00 -0.36984260512E-01  0.73958424040E-01  0.14032231859E+00  0.44967880551E-01 0.  0.
         14    1    1    2    0    0  0.54434852792E-03  0.12621445963E-01  0.49571768769E-02  0.13570954871E-01  0.00000000000E+00 0. -1.
     999901    1    3    3    0    0 -0.10461431923E+00  0.24362814549E-01 -0.78915600917E-01  0.89003672654E+00  0.88000000000E+00 0.  1.
        -11    1    4    4    0    0  0.20962906710E-01  0.32993734925E-02 -0.11816097482E-02  0.21259977558E-01  0.51100000000E-03 0.  1.
         11    1    4    4    0    0  0.83107063989E-01 -0.40283634005E-01  0.75140033788E-01  0.11906234103E+00  0.51100000000E-03 0. -1.
</event>
<event>
 8    1  0.2091070E+004  0.1043930E+01  0.7957747E-01            NaN
         13   -1    0    0    0    0  0.00000000000E+00  0.00000000000E+00  0.74505805969E-08  0.10566000000E+00  0.10566000000E+00 0. -1.
     999900   -1    0    0    0    0 -0.00000000000E+00 -0.00000000000E+00 -0.74505805969E-08  0.93827000000E+00  0.93827000000E+00 0. -1.
     999902    2    1    2    0    0  0.11670933994E-01  0.71648260918E-02 -0.12684131918E-02  0.10301766620E+01  0.10300848512E+01 0.  0.
     999903    2    3    3    0    0 -0.52054859308E-01 -0.11728685087E+00 -0.26840179519E-01  0.13877152863E+00  0.45510747696E-01 0.  0.
         14    1    1    2    0    0 -0.11670933994E-01 -0.71648260918E-02  0.12684131918E-02  0.13753337967E-01  0.00000000000E+00 0. -1.
     999901    1    3    3    0    0  0.63725793302E-01  0.12445167696E+00  0.25571766327E-01  0.89140513341E+00  0.88000000000E+00 0. -1.
        -11    1    4    4    0    0 -0.10283748316E-02 -0.51395296758E-01 -0.19961216349E-01  0.55147487366E-01  0.51100000000E-03 0. -1.
         11    1    4    4    0    0 -0.51026484477E-01 -0.65891554113E-01 -0.68789631701E-02  0.83624041261E-01  0.51100000000E-03 0.  1.
</event>
<event>
 8    1  0.2091070E+004  0.1043930E+01  0.7957747E-01            NaN
         13   -1    0    0    0    0  0.00000000000E+00  0.00000000000E+00  0.74505805969E-08  0.10566000000E+00  0.10566000000E+00 0.  1.
     999900   -1    0    0    0    0 -0.00000000000E+00 -0.00000000000E+00 -0.74505805969E-08  0.93827000000E+00  0.93827000000E+00 0. -1.
     999902    2    1    2    0    0 -0.59500643065E-02 -0.10880662337E-01  0.59391952713E-02  0.10301798684E+01  0.10300881007E+01 0.  0.
     999903    2    3    3    0    0  0.72814954209E-01  0.94356427382E-01 -0.54026362026E-01  0.13839814554E+00  0.45056031230E-01 0.  0.
         14    1    1    2    0    0  0.59500643065E-02  0.10880662337E-01 -0.59391952713E-02  0.13750131585E-01  0.00000000000E+00 0.  1.
     999901    1    3    3    0    0 -0.78765018515E-01 -0.10523708972E+00  0.59965557297E-01  0.89178172288E+00  0.88000000000E+00 0.  1.
        -11    1    4    4    0    0  0.65565852661E-01  0.93346119033E-01 -0.37107134408E-01  0.11995657347E+00  0.51100000000E-03 0.  1.
         11    1    4    4    0    0  0.72491015479E-02  0.10103083494E-02 -0.16919227618E-01  0.18441572069E-01  0.51100000000E-03 0. -1.
</event>
<event>
 8    1  0.2091070E+004  0.1043930E+01  0.7957747E-01            NaN
         13   -1    0    0    0    0  0.00000000000E+00  0.00000000000E+00  0.74505805969E-08  0.10566000000E+00  0.10566000000E+00 0. -1.
     999900   -1    0    0    0    0 -0.00000000000E+00 -0.00000000000E+00 -0.74505805969E-08  0.93827000000E+00  0.93827000000E+00 0. -1.
     999902    2    1    2    0    0  0.51853648763E-02 -0.45247731882E-02 -0.13015728659E-01  0.10292068626E+01  0.10291015476E+01 0.  0.
     999903    2    3    3    0    0  0.96714549450E-01  0.47719095564E-01  0.74440260267E-01  0.13861404689E+00  0.45185014010E-01 0.  0.
         14    1    1    2    0    0 -0.51853648763E-02  0.45247731882E-02  0.13015728659E-01  0.14723137364E-01  0.00000000000E+00 0. -1.
     999901    1    3    3    0    0 -0.91529184574E-01 -0.52243868752E-01 -0.87455988926E-01  0.89059281574E+00  0.88000000000E+00 0. -1.
        -11    1    4    4    0    0  0.43767859767E-01  0.45375099205E-01  0.31925599166E-01  0.70668452505E-01  0.51100000000E-03 0.  1.
         11    1    4    4    0    0  0.52946689684E-01  0.23439963596E-02  0.42514661101E-01  0.67945594390E-01  0.51100000000E-03 0. -1.
</event>
<event>
 8    1  0.2091070E+004  0.1043930E+01  0.7957747E-01            NaN
         13   -1    0    0    0    0  0.00000000000E+00  0.00000000000E+00  0.74505805969E-08  0.10566000000E+00  0.10566000000E+00 0.  1.
     999900   -1    0    0    0    0 -0.00000000000E+00 -0.00000000000E+00 -0.74505805969E-08  0.93827000000E+00  0.93827000000E+00 0.  1.
     999902    2    1    2    0    0  0.63257553887E-03 -0.13932363531E-01 -0.15507148405E-02  0.10298973373E+01  0.10298017332E+01 0.  0.
     999903    2    3    3    0    0  0.12020994201E+00 -0.24962165840E-01 -0.51169171547E-01  0.14035678492E+00  0.44812978890E-01 0.  0.
         14    1    1    2    0    0 -0.63257553887E-03  0.13932363531E-01  0.15507148405E-02  0.14032662680E-01  0.00000000000E+00 0.  1.
     999901    1    3    3    0    0 -0.11957736647E+00  0.11029802309E-01  0.49618456707E-01  0.88954055240E+00  0.88000000000E+00 0. -1.
        -11    1    4    4    0    0  0.66760767182E-01 -0.17493279739E-01 -0.51944963931E-01  0.86380294452E-01  0.51100000000E-03 0. -1.
         11    1    4    4    0    0  0.53449174824E-01 -0.74688861011E-02  0.77579238374E-03  0.53976490473E-01  0.51100000000E-03 0.  1.
</event>
<event>
 8    1  0.2091070E+004  0.1043930E+01  0.7957747E-01            NaN
         13   -1    0    0    0    0  0.00000000000E+00  0.00000000000E+00  0.74505805969E-08  0.10566000000E+00  0.10566000000E+00 0.  1.
     999900   -1    0    0    0    0 -0.00000000000E+00 -0.00000000000E+00 -0.74505805969E-08  0.93827000000E+00  0.93827000000E+00 0. -1.
     999902    2    1    2    0    0 -0.98309738362E-02  0.10765641977E-01 -0.31087859439E-02  0.10290232350E+01  0.10289152572E+01 0.  0.
     999903    2    3    3    0    0 -0.33223841086E-01 -0.45434560249E-01  0.11830934605E+00  0.13860308035E+00  0.45228195161E-01 0.  0.
         14    1    1    2    0    0  0.98309738362E-02 -0.10765641977E-01  0.31087859439E-02  0.14906765034E-01  0.00000000000E+00 0.  1.
     999901    1    3    3    0    0  0.23392867250E-01  0.56200202225E-01 -0.12141813200E+00  0.89042015462E+00  0.88000000000E+00 0. -1.
        -11    1    4    4    0    0 -0.33269386945E-01 -0.51496940166E-01  0.85361488833E-01  0.10509820099E+00  0.51100000000E-03 0. -1.
         11    1    4    4    0    0  0.45545858481E-04  0.60623799171E-02  0.32947857220E-01  0.33504879362E-01  0.51100000000E-03 0.  1.
</event>
<event>
 8    1  0.2091070E+004  0.1043930E+01  0.7957747E-01            NaN
         13   -1    0    0    0    0  0.00000000000E+00  0.00000000000E+00  0.74505805969E-08  0.10566000000E+00  0.10566000000E+00 0. -1.
     999900   -1    0    0    0    0 -0.00000000000E+00 -0.00000000000E+00 -0.74505805969E-08  0.93827000000E+00  0.93827000000E+00 0. -1.
     999902    2    1    2    0    0 -0.96210812737E-02  0.40985304420E-02 -0.75775898674E-02  0.10310155498E+01  0.10309346637E+01 0.  0.
     999903    2    3    3    0    0  0.24953794015E-01  0.43112622264E-01  0.12282559030E+00  0.13988003215E+00  0.44709145893E-01 0.  0.
         14    1    1    2    0    0  0.96210812737E-02 -0.40985304420E-02  0.75775898674E-02  0.12914450234E-01  0.00000000000E+00 0. -1.
     999901    1    3    3    0    0 -0.34574875288E-01 -0.39014091822E-01 -0.13040318017E+00  0.89113551762E+00  0.88000000000E+00 0. -1.
        -11    1    4    4    0    0  0.30988108060E-02  0.45046541278E-03  0.63628191838E-01  0.63707248136E-01  0.51100000000E-03 0. -1.
         11    1    4    4    0    0  0.21854983209E-01  0.42662156851E-01  0.59197398464E-01  0.76172784012E-01  0.51100000000E-03 0.  1.
</event>
<event>
 8    1  0.2091070E+004  0.1043930E+01  0.7957747E-01            NaN
         13   -1    0    0    0    0  0.00000000000E+00  0.00000000000E+00  0.74505805969E-08  0.10566000000E+00  0.10566000000E+00 0.  1.
     999900   -1    0    0    0    0 -0.00000000000E+00 -0.00000000000E+00 -0.74505805969E-08  0.93827000000E+00  0.93827000000E+00 0. -1.
     999902    2    1    2    0    0  0.71494148227E-02  0.17018062281E-02 -0.13515312092E-01  0.10285457893E+01  0.10284307302E+01 0.  0.
     999903    2    3    3    0    0  0.85709023526E-01 -0.40385999478E-01  0.90146044541E-01  0.13799052863E+00  0.44022846100E-01 0.  0.
         14    1    1    2    0    0 -0.71494148227E-02 -0.17018062281E-02  0.13515312092E-01  0.15384210662E-01  0.00000000000E+00 0.  1.
     999901    1    3    3    0    0 -0.78559608703E-01  0.42087805706E-01 -0.10366135663E+00  0.89055526070E+00  0.88000000000E+00 0.  1.
        -11    1    4    4    0    0  0.40733914224E-01 -0.34482243286E-01  0.70825727128E-01  0.88683829497E-01  0.51100000000E-03 0. -1.
         11    1    4    4    0    0  0.44975109301E-01 -0.59037561915E-02  0.19320317413E-01  0.49306699137E-01  0.51100000000E-03 0.  1.
</event>
<event>
 8    1  0.2091070E+004  0.1043930E+01  0.7957747E-01            NaN
         13   -1    0    0    0    0  0.00000000000E+00  0.00000000000E+00  0.74505805969E-08  0.10566000000E+00  0.10566000000E+00 0. -1.
     999900   -1    0    0    0    0 -0.00000000000E+00 -0.00000000000E+00 -0.74505805969E-08  0.93827000000E+00  0.93827000000E+00 0.  1.
     999902    2    1    2    0    0 -0.15910815106E-01  0.15198444583E-02  0.32979444006E-02  0.10276100612E+01  0.10274804609E+01 0.  0.
     999903    2    3    3    0    0  0.11108081157E-01  0.26756457314E-01  0.12741173743E+00  0.13813204519E+00  0.44804169417E-01 0.  0.
         14    1    1    2    0    0  0.15910815106E-01 -0.15198444583E-02 -0.32979444006E-02  0.16319938780E-01  0.00000000000E+00 0. -1.
     999901    1    3    3    0    0 -0.27018896263E-01 -0.25236612856E-01 -0.12411379303E+00  0.88947801603E+00  0.88000000000E+00 0.  1.
        -11    1    4    4    0    0 -0.97018914941E-02  0.30599459265E-01  0.80486684613E-01  0.86653454212E-01  0.51100000000E-03 0.  1.
         11    1    4    4    0    0  0.20809972651E-01 -0.38430019505E-02  0.46925052819E-01  0.51478590975E-01  0.51100000000E-03 0. -1.
</event>
<event>
 8    1  0.2091070E+004  0.1043930E+01  0.7957747E-01            NaN
         13   -1    0    0    0    0  0.00000000000E+00  0.00000000000E+00  0.74505805969E-08  0.10566000000E+00  0.10566000000E+00 0.  1.
     999900   -1    0    0    0    0 -0.00000000000E+00 -0.00000000000E+00 -0.74505805969E-08  0.93827000000E+00  0.93827000000E+00 0. -1.
     999902    2    1    2    0    0 -0.34267064235E-02  0.27851229623E-02 -0.13425590645E-01  0.10297968577E+01  0.10296998701E+01 0.  0.
     999903    2    3    3    0    0  0.89776740185E-01  0.33345496092E-01 -0.93032918483E-01  0.14077596622E+00  0.44620214645E-01 0.  0.
         14    1    1    2    0    0  0.34267064235E-02 -0.27851229623E-02  0.13425590645E-01  0.14133142290E-01  0.00000000000E+00 0.  1.
     999901    1    3    3    0    0 -0.93203446608E-01 -0.30560373130E-01  0.79607327838E-01  0.88902089149E+00  0.88000000000E+00 0.  1.
        -11    1    4    4    0    0  0.11430261297E-01 -0.90454749890E-02 -0.23971057203E-01  0.28059654231E-01  0.51100000000E-03 0. -1.
         11    1    4    4    0    0  0.78346478888E-01  0.42390971081E-01 -0.69061861280E-01  0.11271631199E+00  0.51100000000E-03 0.  1.
</event>
<event>
 8    1  0.2091070E+004  0.1043930E+01  0.7957747E-01            NaN
         13   -1    0    0    0    0  0.00000000000E+00  0.00000000000E+00  0.74505805969E-08  0.10566000000E+00  0.10566000000E+00 0.  1.
     999900   -1    0    0    0    0 -0.00000000000E+00 -0.00000000000E+00 -0.74505805969E-08  0.93827000000E+00  0.93827000000E+00 0.  1.
     999902    2    1    2    0    0  0.15743773005E-02  0.62032798358E-02  0.12623624530E-01  0.10297767233E+01  0.10296794572E+01 0.  0.
     999903    2    3    3    0    0  0.10773058420E+00  0.19952309069E-01  0.76731788835E-01  0.14097526472E+00  0.44522852967E-01 0.  0.
         14    1    1    2    0    0 -0.15743773005E-02 -0.62032798358E-02 -0.12623624530E-01  0.14153276684E-01  0.00000000000E+00 0. -1.
     999901    1    3    3    0    0 -0.10615620690E+00 -0.13749029233E-01 -0.64108164305E-01  0.88880145859E+00  0.88000000000E+00 0.  1.
        -11    1    4    4    0    0  0.38150352637E-01  0.18009858772E-01  0.52314643681E-01  0.67207793326E-01  0.51100000000E-03 0. -1.
         11    1    4    4    0    0  0.69580231565E-01  0.19424502963E-02  0.24417145154E-01  0.73767471396E-01  0.51100000000E-03 0.  1.
</event>
<event>
 8    1  0.2091070E+004  0.1043930E+01  0.7957747E-01            NaN
         13   -1    0    0    0    0  0.00000000000E+00  0.00000000000E+00  0.74505805969E-08  0.10566000000E+00  0.10566000000E+00 0. -1.
     999900   -1    0    0    0    0 -0.00000000000E+00 -0.00000000000E+00 -0.74505805969E-08  0.93827000000E+00  0.93827000000E+00 0. -1.
     999902    2    1    2    0    0  0.37990190457E-03 -0.89343314783E-02 -0.10259292836E-01  0.10303204558E+01  0.10302305674E+01 0.  0.
     999903    2    3    3    0    0 -0.72196704602E-01  0.75777156592E-01 -0.82018741313E-01  0.14038067216E+00  0.45001306344E-01 0.  0.
         14    1    1    2    0    0 -0.37990190457E-03  0.89343314783E-02  0.10259292836E-01  0.13609544221E-01  0.00000000000E+00 0.  1.
     999901    1    3    3    0    0  0.72576606507E-01 -0.84711488070E-01  0.71759448478E-01  0.88993978362E+00  0.88000000000E+00 0.  1.
        -11    1    4    4    0    0 -0.58348122883E-01  0.29792821662E-01 -0.41586517501E-01  0.77600355833E-01  0.51100000000E-03 0.  1.
         11    1    4    4    0    0 -0.13848581719E-01  0.45984334930E-01 -0.40432223812E-01  0.62780316326E-01  0.51100000000E-03 0. -1.
</event>
<event>
 8    1  0.2091070E+004  0.1043930E+01  0.7957747E-01            NaN
         13   -1    0    0    0    0  0.00000000000E+00  0.00000000000E+00  0.74505805969E-08  0.10566000000E+00  0.10566000000E+00 0.  1.
     999900   -1    0    0    0    0 -0.00000000000E+00 -0.00000000000E+00 -0.74505805969E-08  0.93827000000E+00  0.93827000000E+00 0.  1.
     999902    2    1    2    0    0 -0.24204470908E-02  0.13553301700E-01  0.14939865782E-02  0.10300814424E+01  0.10299883473E+01 0.  0.
     999903    2    3    3    0    0 -0.24328130066E-01 -0.12035505551E+00  0.38803455988E-01  0.13890054540E+00  0.52062040074E-01 0.  0.
         14    1    1    2    0    0  0.24204470908E-02 -0.13553301700E-01 -0.14939865782E-02  0.13848557578E-01  0.00000000000E+00 0. -1.
     999901    1    3    3    0    0  0.21907682975E-01  0.13390835721E+00 -0.37309469410E-01  0.89118089702E+00  0.88000000000E+00 0.  1.
        -11    1    4    4    0    0 -0.17881653115E-01 -0.96155197553E-01  0.51805514780E-01  0.11067812800E+00  0.51100000000E-03 0.  1.
         11    1    4    4    0    0 -0.64464769509E-02 -0.24199857959E-01 -0.13002058792E-01  0.28222417405E-01  0.51100000000E-03 0. -1.
</event>
<event>
 8    1  0.2091070E+004  0.1043930E+01  0.7957747E-01            NaN
         13   -1    0    0    0    0  0.00000000000E+00  0.00000000000E+00  0.74505805969E-08  0.10566000000E+00  0.10566000000E+00 0. -1.
     999900   -1    0    0    0    0 -0.00000000000E+00 -0.00000000000E+00 -0.74505805969E-08  0.93827000000E+00  0.93827000000E+00 0. -1.
     999902    2    1    2    0    0 -0.85051394129E-02  0.93601503315E-02  0.57105393404E-02  0.10300533985E+01  0.10299599233E+01 0.  0.
     999903    2    3    3    0    0 -0.61699557694E-01 -0.11402932471E+00 -0.24496194742E-01  0.13934185398E+00  0.44794713996E-01 0.  0.
         14    1    1    2    0    0  0.85051394129E-02 -0.93601503315E-02 -0.57105393404E-02  0.13876601537E-01  0.00000000000E+00 0. -1.
     999901    1    3    3    0    0  0.53194418281E-01  0.12338947504E+00  0.30206734082E-01  0.89071154448E+00  0.88000000000E+00 0.  1.
        -11    1    4    4    0    0  0.55446514940E-02 -0.10545939630E-01  0.41866734774E-02  0.12639199289E-01  0.51100000000E-03 0. -1.
         11    1    4    4    0    0 -0.67244209188E-01 -0.10348338508E+00 -0.28682868219E-01  0.12670265469E+00  0.51100000000E-03 0.  1.
</event>
<event>
 8    1  0.2091070E+004  0.1043930E+01  0.7957747E-01            NaN
         13   -1    0    0    0    0  0.00000000000E+00  0.00000000000E+00  0.74505805969E-08  0.10566000000E+00  0.10566000000E+00 0. -1.
     999900   -1    0    0    0    0 -0.00000000000E+00 -0.00000000000E+00 -0.74505805969E-08  0.93827000000E+00  0.93827000000E+00 0.  1.
     999902    2    1    2    0    0 -0.14321253935E-01 -0.28263983959E-02 -0.85854179152E-02  0.10269949404E+01  0.10268553021E+01 0.  0.
     999903    2    3    3    0    0  0.11304268999E+00  0.58789462018E-01 -0.12472968823E-01  0.13568511689E+00  0.44944692573E-01 0.  0.
         14    1    1    2    0    0  0.14321253935E-01  0.28263983959E-02  0.85854179152E-02  0.16935059579E-01  0.00000000000E+00 0. -1.
     999901    1    3    3    0    0 -0.12736394392E+00 -0.61615860414E-01  0.38875509080E-02  0.89130982353E+00  0.88000000000E+00 0.  1.
        -11    1    4    4    0    0  0.60205877474E-01  0.27744562782E-01 -0.28776269550E-01  0.72269241428E-01  0.51100000000E-03 0.  1.
         11    1    4    4    0    0  0.52836812515E-01  0.31044899236E-01  0.16303300727E-01  0.63415875464E-01  0.51100000000E-03 0. -1.
</event>
<event>
 8    1  0.2091070E+004  0.1043930E+01  0.7957747E-01            NaN
         13   -1    0    0    0    0  0.00000000000E+00  0.00000000000E+00  0.74505805969E-08  0.10566000000E+00  0.10566000000E+00 0. -1.
     999900   -1    0    0    0    0 -0.00000000000E+00 -0.00000000000E+00 -0.74505805969E-08  0.93827000000E+00  0.93827000000E+00 0. -1.
     999902    2    1    2    0    0 -0.43334848954E-02 -0.13822412275E-01  0.24659468089E-02  0.10292358152E+01  0.10291309170E+01 0.  0.
     999903    2    3    3    0    0  0.92638986703E-01  0.87819716859E-01  0.27667296285E-01  0.13773713846E+00  0.43723626351E-01 0.  0.
         14    1    1    2    0    0  0.43334848954E-02  0.13822412275E-01 -0.24659468089E-02  0.14694184772E-01  0.00000000000E+00 0.  1.
     999901    1    3    3    0    0 -0.96972471598E-01 -0.10164212913E+00 -0.25201349476E-01  0.89149867677E+00  0.88000000000E+00 0. -1.
        -11    1    4    4    0    0  0.49489023563E-01  0.73504096023E-01  0.25547028712E-01  0.92222163185E-01  0.51100000000E-03 0.  1.
         11    1    4    4    0    0  0.43149963139E-01  0.14315620836E-01  0.21202675728E-02  0.45514975276E-01  0.51100000000E-03 0. -1.
</event>
<event>
 7    1  0.3240849E+004  0.1043930E+01  0.7957747E-01            NaN
         13   -1    0    0    0    0  0.00000000000E+00  0.00000000000E+00  0.74505805969E-08  0.10566000000E+00  0.10566000000E+00 0. -1.
     999900   -1    0    0    0    0 -0.00000000000E+00 -0.00000000000E+00 -0.74505805969E-08  0.93827000000E+00  0.93827000000E+00 0. -1.
     999903    2    1    2    0    0  0.47789874196E-01  0.17702920348E-02  0.82779371040E-01  0.10562601963E+00  0.44915762758E-01 0.  0.
         14    1    1    2    0    0  0.12334677708E-01  0.34975216759E-01 -0.39859909843E-01  0.54444673515E-01  0.00000000000E+00 0.  1.
     999901    1    1    2    0    0 -0.60124551904E-01 -0.36745508794E-01 -0.42919461197E-01  0.88385930685E+00  0.88000000000E+00 0. -1.
        -11    1    3    3    0    0  0.33925463435E-01  0.19274742182E-01  0.33149318471E-01  0.51201476459E-01  0.51100000000E-03 0.  1.
         11    1    3    3    0    0  0.13864410761E-01 -0.17504450147E-01  0.49630052569E-01  0.54424543174E-01  0.51100000000E-03 0. -1.
</event>
<event>
 8    1  0.2091070E+004  0.1043930E+01  0.7957747E-01            NaN
         13   -1    0    0    0    0  0.00000000000E+00  0.00000000000E+00  0.74505805969E-08  0.10566000000E+00  0.10566000000E+00 0. -1.
     999900   -1    0    0    0    0 -0.00000000000E+00 -0.00000000000E+00 -0.74505805969E-08  0.93827000000E+00  0.93827000000E+00 0.  1.
     999902    2    1    2    0    0 -0.11553244892E-01  0.78029838236E-02 -0.31555967419E-02  0.10296358818E+01  0.10295366566E+01 0.  0.
     999903    2    3    3    0    0  0.12049043282E+00 -0.13029814350E-01 -0.48978290158E-01  0.13836192980E+00  0.45358904811E-01 0.  0.
         14    1    1    2    0    0  0.11553244892E-01 -0.78029838236E-02  0.31555967419E-02  0.14294118192E-01  0.00000000000E+00 0.  1.
     999901    1    3    3    0    0 -0.13204367772E+00  0.20832798173E-01  0.45822693416E-01  0.89127395201E+00  0.88000000000E+00 0.  1.
        -11    1    4    4    0    0  0.41034797617E-01  0.16392146415E-01 -0.22515329783E-01  0.49595950195E-01  0.51100000000E-03 0. -1.
         11    1    4    4    0    0  0.79455635208E-01 -0.29421960765E-01 -0.26462960375E-01  0.88765979600E-01  0.51100000000E-03 0.  1.
</event>
<event>
 8    1  0.2091070E+004  0.1043930E+01  0.7957747E-01            NaN
         13   -1    0    0    0    0  0.00000000000E+00  0.00000000000E+00  0.74505805969E-08  0.10566000000E+00  0.10566000000E+00 0.  1.
     999900   -1    0    0    0    0 -0.00000000000E+00 -0.00000000000E+00 -0.74505805969E-08  0.93827000000E+00  0.93827000000E+00 0. -1.
     999902    2    1    2    0    0 -0.10294783429E-01 -0.38719060855E-02  0.65050580385E-02  0.10311515023E+01  0.10310723208E+01 0.  0.
     999903    2    3    3    0    0 -0.55740054588E-01  0.36643495776E-01 -0.11565928799E+00  0.14062867955E+00  0.44154899432E-01 0.  0.
         14    1    1    2    0    0  0.10294783429E-01  0.38719060855E-02 -0.65050580385E-02  0.12778497669E-01  0.00000000000E+00 0. -1.
     999901    1    3    3    0    0  0.45445271159E-01 -0.40515401861E-01  0.12216434603E+00  0.89052282278E+00  0.88000000000E+00 0.  1.
        -11    1    4    4    0    0 -0.12297709570E-01 -0.35941728262E-02 -0.27214209410E-02  0.13107974363E-01  0.51100000000E-03 0.  1.
         11    1    4    4    0    0 -0.43442345019E-01  0.40237668602E-01 -0.11293786705E+00  0.12752070518E+00  0.51100000000E-03 0. -1.
</event>
<event>
 8    1  0.2091070E+004  0.1043930E+01  0.7957747E-01            NaN
         13   -1    0    0    0    0  0.00000000000E+00  0.00000000000E+00  0.74505805969E-08  0.10566000000E+00  0.10566000000E+00 0.  1.
     999900   -1    0    0    0    0 -0.00000000000E+00 -0.00000000000E+00 -0.74505805969E-08  0.93827000000E+00  0.93827000000E+00 0. -1.
     999902    2    1    2    0    0  0.75234140397E-02  0.73103401862E-02 -0.82754461447E-02  0.10305686437E+01  0.10304820249E+01 0.  0.
     999903    2    3    3    0    0  0.86989899551E-01 -0.99763349617E-01  0.12688738354E-01  0.14027700927E+00  0.44684076546E-01 0.  0.
         14    1    1    2    0    0 -0.75234140397E-02 -0.73103401862E-02  0.82754461447E-02  0.13361356269E-01  0.00000000000E+00 0.  1.
     999901    1    3    3    0    0 -0.79466485512E-01  0.10707368980E+00 -0.20964184498E-01  0.89029163447E+00  0.88000000000E+00 0. -1.
        -11    1    4    4    0    0  0.17740416631E-01 -0.46513817227E-01  0.17542868857E-01  0.52785139424E-01  0.51100000000E-03 0. -1.
         11    1    4    4    0    0  0.69249482921E-01 -0.53249532390E-01 -0.48541305029E-02  0.87491869842E-01  0.51100000000E-03 0.  1.
</event>
<event>
 8    1  0.2091070E+004  0.1043930E+01  0.7957747E-01            NaN
         13   -1    0    0    0    0  0.00000000000E+00  0.00000000000E+00  0.74505805969E-08  0.10566000000E+00  0.10566000000E+00 0.  1.
     999900   -1    0    0    0    0 -0.00000000000E+00 -0.00000000000E+00 -0.74505805969E-08  0.93827000000E+00  0.93827000000E+00 0. -1.
     999902    2    1    2    0    0  0.12264011414E-02 -0.81827732313E-02 -0.30163374034E-02  0.10351231771E+01  0.10350857123E+01 0.  0.
     999903    2    3    3    0    0 -0.68897830584E-01  0.98341805214E-01  0.64011873901E-01  0.14340703688E+00  0.45277328934E-01 0.  0.
         14    1    1    2    0    0 -0.12264011414E-02  0.81827732313E-02  0.30163374034E-02  0.88068228577E-02  0.00000000000E+00 0. -1.
     999901    1    3    3    0    0  0.70124231725E-01 -0.10652457845E+00 -0.67028211304E-01  0.89171614026E+00  0.88000000000E+00 0. -1.
        -11    1    4    4    0    0 -0.49844272162E-01  0.31862590198E-01  0.28621136118E-01  0.65719910797E-01  0.51100000000E-03 0. -1.
         11    1    4    4    0    0 -0.19053558422E-01  0.66479215016E-01  0.35390737783E-01  0.77687126086E-01  0.51100000000E-03 0.  1.
</event>
<event>
 8    1  0.2091070E+004  0.1043930E+01  0.7957747E-01            NaN
         13   -1    0    0    0    0  0.00000000000E+00  0.00000000000E+00  0.74505805969E-08  0.10566000000E+00  0.10566000000E+00 0. -1.
     999900   -1    0    0    0    0 -0.00000000000E+00 -0.00000000000E+00 -0.74505805969E-08  0.93827000000E+00  0.93827000000E+00 0. -1.
     999902    2    1    2    0    0  0.43416647765E-02 -0.19920115704E-01  0.21984276527E-02  0.10234240461E+01  0.10232185905E+01 0.  0.
     999903    2    3    3    0    0 -0.28754461321E-01 -0.45831270626E-01  0.11246750139E+00  0.13554679659E+00  0.52883558715E-01 0.  0.
         14    1    1    2    0    0 -0.43416647765E-02  0.19920115704E-01 -0.21984276527E-02  0.20505953937E-01  0.00000000000E+00 0. -1.
     999901    1    3    3    0    0  0.33096126098E-01  0.25911154922E-01 -0.11026907374E+00  0.88787724948E+00  0.88000000000E+00 0. -1.
        -11    1    4    4    0    0 -0.25454185389E-01 -0.13485813979E-01  0.93640480969E-01  0.97972361049E-01  0.51100000000E-03 0.  1.
         11    1    4    4    0    0 -0.33002759325E-02 -0.32345456648E-01  0.18827020425E-01  0.37574435539E-01  0.51100000000E-03 0. -1.
</event>
<event>
 8    1  0.2091070E+004  0.1043930E+01  0.7957747E-01            NaN
         13   -1    0    0    0    0  0.00000000000E+00  0.00000000000E+00  0.74505805969E-08  0.10566000000E+00  0.10566000000E+00 0.  1.
     999900   -1    0    0    0    0 -0.00000000000E+00 -0.00000000000E+00 -0.74505805969E-08  0.93827000000E+00  0.93827000000E+00 0. -1.
     999902    2    1    2    0    0 -0.56490626380E-03 -0.63098811439E-02  0.13427716766E-01  0.10290828691E+01  0.10289757597E+01 0.  0.
     999903    2    3    3    0    0 -0.15490027620E-01 -0.72596663255E-01  0.11168631413E+00  0.14101111033E+00  0.43589952973E-01 0.  0.
         14    1    1    2    0    0  0.56490626380E-03  0.63098811439E-02 -0.13427716766E-01  0.14847130924E-01  0.00000000000E+00 0. -1.
     999901    1    3    3    0    0  0.14925121356E-01  0.66286782111E-01 -0.98258597364E-01  0.88807175875E+00  0.88000000000E+00 0. -1.
        -11    1    4    4    0    0  0.86333550831E-02 -0.24950079628E-01  0.14522630230E-01  0.30136509473E-01  0.51100000000E-03 0.  1.
         11    1    4    4    0    0 -0.24123382703E-01 -0.47646583627E-01  0.97163683901E-01  0.11087460085E+00  0.51100000000E-03 0. -1.
</event>
<event>
 8    1  0.2091070E+004  0.1043930E+01  0.7957747E-01            NaN
         13   -1    0    0    0    0  0.00000000000E+00  0.00000000000E+00  0.74505805969E-08  0.10566000000E+00  0.10566000000E+00 0.  1.
     999900   -1    0    0    0    0 -0.00000000000E+00 -0.00000000000E+00 -0.74505805969E-08  0.93827000000E+00  0.93827000000E+00 0.  1.
     999902    2    1    2    0    0  0.10075692746E-01 -0.95071908060E-02  0.15920049566E-03  0.10300760617E+01  0.10299828937E+01 0.  0.
     999903    2    3    3    0    0  0.27788489131E-01 -0.12927197818E+00 -0.23814274145E-01  0.14146361810E+00  0.44287595577E-01 0.  0.
         14    1    1    2    0    0 -0.10075692746E-01  0.95071908060E-02 -0.15920049566E-03  0.13853938290E-01  0.00000000000E+00 0. -1.
     999901    1    3    3    0    0 -0.17712796385E-01  0.11976478738E+00  0.23973474640E-01  0.88861244361E+00  0.88000000000E+00 0. -1.
        -11    1    4    4    0    0  0.97004634173E-02 -0.78579739259E-01  0.69237391207E-02  0.79480020741E-01  0.51100000000E-03 0. -1.
         11    1    4    4    0    0  0.18088025714E-01 -0.50692238923E-01 -0.30738013265E-01  0.61983597360E-01  0.51100000000E-03 0.  1.
</event>
<event>
 8    1  0.2091070E+004  0.1043930E+01  0.7957747E-01            NaN
         13   -1    0    0    0    0  0.00000000000E+00  0.00000000000E+00  0.74505805969E-08  0.10566000000E+00  0.10566000000E+00 0. -1.
     999900   -1    0    0    0    0 -0.00000000000E+00 -0.00000000000E+00 -0.74505805969E-08  0.93827000000E+00  0.93827000000E+00 0.  1.
     999902    2    1    2    0    0  0.99040843758E-02  0.96340912959E-02  0.19500082952E-02  0.10299761785E+01  0.10298816530E+01 0.  0.
     999903    2    3    3    0    0 -0.88421543686E-02  0.12099406150E+00  0.56416381110E-01  0.14108976831E+00  0.44785801900E-01 0.  0.
         14    1    1    2    0    0 -0.99040843758E-02 -0.96340912959E-02 -0.19500082952E-02  0.13953821511E-01  0.00000000000E+00 0.  1.
     999901    1    3    3    0    0  0.18746238744E-01 -0.11135997021E+00 -0.54466372814E-01  0.88888641018E+00  0.88000000000E+00 0.  1.
        -11    1    4    4    0    0 -0.52710223051E-02  0.87294291186E-01  0.61367449177E-01  0.10683773626E+00  0.51100000000E-03 0.  1.
         11    1    4    4    0    0 -0.35711320635E-02  0.33699770316E-01 -0.49510680671E-02  0.34252032050E-01  0.51100000000E-03 0. -1.
</event>
<event>
 8    1  0.2091070E+004  0.1043930E+01  0.7957747E-01            NaN
         13   -1    0    0    0    0  0.00000000000E+00  0.00000000000E+00  0.74505805969E-08  0.10566000000E+00  0.10566000000E+00 0. -1.
     999900   -1    0    0    0    0 -0.00000000000E+00 -0.00000000000E+00 -0.74505805969E-08  0.93827000000E+00  0.93827000000E+00 0.  1.
     999902    2    1    2    0    0 -0.69197456125E-02 -0.11110550392E-01 -0.31045771960E-02  0.10304776541E+01  0.10303898437E+01 0.  0.
     999903    2    3    3    0    0 -0.60915723224E-01 -0.12648348386E-01  0.11775923403E+00  0.14057541722E+00  0.44983382204E-01 0.  0.
         14    1    1    2    0    0  0.69197456125E-02  0.11110550392E-01  0.31045771960E-02  0.13452345852E-01  0.00000000000E+00 0. -1.
     999901    1    3    3    0    0  0.53995977612E-01  0.15377979935E-02 -0.12086381123E+00  0.88990223693E+00  0.88000000000E+00 0. -1.
        -11    1    4    4    0    0 -0.66630734278E-02  0.66528015398E-02 -0.66978425380E-04  0.94298421483E-02  0.51100000000E-03 0.  1.
         11    1    4    4    0    0 -0.54252649796E-01 -0.19301149925E-01  0.11782621246E+00  0.13114557507E+00  0.51100000000E-03 0. -1.
</event>
<event>
 8    1  0.2091070E+004  0.1043930E+01  0.7957747E-01            NaN
         13   -1    0    0    0    0  0.00000000000E+00  0.00000000000E+00  0.74505805969E-08  0.10566000000E+00  0.10566000000E+00 0. -1.
     999900   -1    0    0    0    0 -0.00000000000E+00 -0.00000000000E+00 -0.74505805969E-08  0.93827000000E+00  0.93827000000E+00 0. -1.
     999902    2    1    2    0    0  0.61473983208E-02 -0.19348440441E-03 -0.13056279740E-01  0.10294975926E+01  0.10293964245E+01 0.  0.
     999903    2    3    3    0    0 -0.11350622518E+00  0.10307775224E-01  0.63195804894E-01  0.13807084493E+00  0.45606305268E-01 0.  0.
         14    1    1    2    0    0 -0.61473983208E-02  0.19348440441E-03  0.13056279740E-01  0.14432407387E-01  0.00000000000E+00 0. -1.
     999901    1    3    3    0    0  0.11965362350E+00 -0.10501259628E-01 -0.76252084635E-01  0.89142674768E+00  0.88000000000E+00 0.  1.
        -11    1    4    4    0    0 -0.10070670324E+00 -0.63577303164E-02  0.45932737012E-01  0.11087081790E+00  0.51100000000E-03 0.  1.
         11    1    4    4    0    0 -0.12799521940E-01  0.16665505540E-01  0.17263067883E-01  0.27200027032E-01  0.51100000000E-03 0. -1.
</event>
<event>
 8    1  0.2091070E+004  0.1043930E+01  0.7957747E-01            NaN
         13   -1    0    0    0    0  0.00000000000E+00  0.00000000000E+00  0.74505805969E-08  0.10566000000E+00  0.10566000000E+00 0. -1.
     999900   -1    0    0    0    0 -0.00000000000E+00 -0.00000000000E+00 -0.74505805969E-08  0.93827000000E+00  0.93827000000E+00 0.  1.
     999902    2    1    2    0    0  0.34913262270E-02  0.16838213254E-01 -0.83077978053E-02  0.10248319821E+01  0.10246540183E+01 0.  0.
     999903    2    3    3    0    0  0.12406469041E+00  0.27487788914E-01 -0.26935647342E-01  0.13635106140E+00  0.41454274850E-01 0.  0.
         14    1    1    2    0    0 -0.34913262270E-02 -0.16838213254E-01  0.83077978053E-02  0.19098017928E-01  0.00000000000E+00 0.  1.
     999901    1    3    3    0    0 -0.12057336418E+00 -0.10649575660E-01  0.18627849537E-01  0.88848092067E+00  0.88000000000E+00 0. -1.
        -11    1    4    4    0    0  0.89532440250E-01  0.22280550331E-01 -0.32678219728E-04  0.92264527144E-01  0.51100000000E-03 0.  1.
         11    1    4    4    0    0  0.34532250156E-01  0.52072385835E-02 -0.26902969123E-01  0.44086534261E-01  0.51100000000E-03 0. -1.
</event>
<event>
 8    1  0.2091070E+004  0.1043930E+01  0.7957747E-01            NaN
         13   -1    0    0    0    0  0.00000000000E+00  0.00000000000E+00  0.74505805969E-08  0.10566000000E+00  0.10566000000E+00 0. -1.
     999900   -1    0    0    0    0 -0.00000000000E+00 -0.00000000000E+00 -0.74505805969E-08  0.93827000000E+00  0.93827000000E+00 0.  1.
     999902    2    1    2    0    0  0.29035676415E-02 -0.12668569031E-01 -0.29689651939E-02  0.10305981546E+01  0.10305119205E+01 0.  0.
     999903    2    3    3    0    0  0.43933443909E-01 -0.86375529532E-01 -0.93334308987E-01  0.14195758493E+00  0.45274530261E-01 0.  0.
         14    1    1    2    0    0 -0.29035676415E-02  0.12668569031E-01  0.29689651939E-02  0.13331845358E-01  0.00000000000E+00 0.  1.
     999901    1    3    3    0    0 -0.41029876267E-01  0.73706960501E-01  0.90365343793E-01  0.88864056971E+00  0.88000000000E+00 0. -1.
        -11    1    4    4    0    0 -0.36542678248E-02 -0.15979866000E-01 -0.35688138313E-01  0.39276126692E-01  0.51100000000E-03 0.  1.
         11    1    4    4    0    0  0.47587711734E-01 -0.70395663531E-01 -0.57646170675E-01  0.10268145824E+00  0.51100000000E-03 0. -1.
</event>
<event>
 8    1  0.2091070E+004  0.1043930E+01  0.7957747E-01            NaN
         13   -1    0    0    0    0  0.00000000000E+00  0.00000000000E+00  0.74505805969E-08  0.10566000000E+00  0.10566000000E+00 0.  1.
     999900   -1    0    0    0    0 -0.00000000000E+00 -0.00000000000E+00 -0.74505805969E-08  0.93827000000E+00  0.93827000000E+00 0. -1.
     999902    2    1    2    0    0  0.26263088337E-02 -0.21142231489E-02  0.13915032855E-01  0.10296123334E+01  0.10295127787E+01 0.  0.
     999903    2    3    3    0    0 -0.52738595968E-01  0.10930036985E+00  0.54090666610E-01  0.13995365403E+00  0.43969247307E-01 0.  0.
         14    1    1    2    0    0 -0.26263088337E-02  0.21142231489E-02 -0.13915032855E-01  0.14317666604E-01  0.00000000000E+00 0. -1.
     999901    1    3    3    0    0  0.55364904801E-01 -0.11141459300E+00 -0.40175633754E-01  0.88965867936E+00  0.88000000000E+00 0.  1.
        -11    1    4    4    0    0 -0.29105004395E-01  0.76793993829E-01  0.14235590623E-01  0.83350656449E-01  0.51100000000E-03 0. -1.
         11    1    4    4    0    0 -0.23633591573E-01  0.32506376023E-01  0.39855075986E-01  0.56602997585E-01  0.51100000000E-03 0.  1.
</event>
<event>
 8    1  0.2091070E+004  0.1043930E+01  0.7957747E-01            NaN
         13   -1    0    0    0    0  0.00000000000E+00  0.00000000000E+00  0.74505805969E-08  0.10566000000E+00  0.10566000000E+00 0.  1.
     999900   -1    0    0    0    0 -0.00000000000E+00 -0.00000000000E+00 -0.74505805969E-08  0.93827000000E+00  0.93827000000E+00 0.  1.
     999902    2    1    2    0    0 -0.12582300766E-01 -0.53243348339E-02 -0.25920986221E-02  0.10300238212E+01  0.10299299444E+01 0.  0.
     999903    2    3    3    0    0  0.33850772558E-01 -0.12643870483E+00  0.21918275633E-01  0.14017805963E+00  0.45131548956E-01 0.  0.
         14    1    1    2    0    0  0.12582300766E-01  0.53243348339E-02  0.25920986221E-02  0.13906178816E-01  0.00000000000E+00 0. -1.
     999901    1    3    3    0    0 -0.46433073324E-01  0.12111437000E+00 -0.24510374256E-01  0.88984576156E+00  0.88000000000E+00 0. -1.
        -11    1    4    4    0    0  0.18702209782E-01 -0.65611152654E-01  0.34169237247E-01  0.76304612563E-01  0.51100000000E-03 0.  1.
         11    1    4    4    0    0  0.15148562776E-01 -0.60827552178E-01 -0.12250961614E-01  0.63873447062E-01  0.51100000000E-03 0. -1.
</event>
<event>
 8    1  0.2091070E+004  0.1043930E+01  0.7957747E-01            NaN
         13   -1    0    0    0    0  0.00000000000E+00  0.00000000000E+00  0.74505805969E-08  0.10566000000E+00  0.10566000000E+00 0. -1.
     999900   -1    0    0    0    0 -0.00000000000E+00 -0.00000000000E+00 -0.74505805969E-08  0.93827000000E+00  0.93827000000E+00 0. -1.
     999902    2    1    2    0    0  0.11072403321E-01  0.10189553365E-01  0.86066193696E-02  0.10265950927E+01  0.10264487252E+01 0.  0.
     999903    2    3    3    0    0  0.60432506836E-01  0.11374228848E+00 -0.22263803513E-01  0.13861278898E+00  0.46134935253E-01 0.  0.
         14    1    1    2    0    0 -0.11072403321E-01 -0.10189553365E-01 -0.86066193696E-02  0.17334907270E-01  0.00000000000E+00 0.  1.
     999901    1    3    3    0    0 -0.49360103515E-01 -0.10355273511E+00  0.30870422883E-01  0.88798230375E+00  0.88000000000E+00 0. -1.
        -11    1    4    4    0    0  0.43517326601E-01  0.44167055483E-01  0.45036862631E-02  0.62169372005E-01  0.51100000000E-03 0. -1.
         11    1    4    4    0    0  0.16915180235E-01  0.69575232994E-01 -0.26767489776E-01  0.76443416973E-01  0.51100000000E-03 0.  1.
</event>
<event>
 8    1  0.2091070E+004  0.1043930E+01  0.7957747E-01            NaN
         13   -1    0    0    0    0  0.00000000000E+00  0.00000000000E+00  0.74505805969E-08  0.10566000000E+00  0.10566000000E+00 0. -1.
     999900   -1    0    0    0    0 -0.00000000000E+00 -0.00000000000E+00 -0.74505805969E-08  0.93827000000E+00  0.93827000000E+00 0. -1.
     999902    2    1    2    0    0  0.50311240558E-02 -0.72188694460E-02 -0.57686842873E-02  0.10334084980E+01  0.10333549351E+01 0.  0.
     999903    2    3    3    0    0  0.26825772957E-02  0.27863884655E-01  0.13166297563E+00  0.14204786593E+00  0.45374715147E-01 0.  0.
         14    1    1    2    0    0 -0.50311240558E-02  0.72188694460E-02  0.57686842873E-02  0.10521501972E-01  0.00000000000E+00 0. -1.
     999901    1    3    3    0    0  0.23485467601E-02 -0.35082754101E-01 -0.13743165992E+00  0.89136063210E+00  0.88000000000E+00 0. -1.
        -11    1    4    4    0    0 -0.19834346962E-01  0.21049727854E-01  0.59768257400E-01  0.66400286715E-01  0.51100000000E-03 0.  1.
         11    1    4    4    0    0  0.22516924257E-01  0.68141568010E-02  0.71894718229E-01  0.75647579215E-01  0.51100000000E-03 0. -1.
</event>
<event>
 8    1  0.2091070E+004  0.1043930E+01  0.7957747E-01            NaN
         13   -1    0    0    0    0  0.00000000000E+00  0.00000000000E+00  0.74505805969E-08  0.10566000000E+00  0.10566000000E+00 0.  1.
     999900   -1    0    0    0    0 -0.00000000000E+00 -0.00000000000E+00 -0.74505805969E-08  0.93827000000E+00  0.93827000000E+00 0. -1.
     999902    2    1    2    0    0  0.75202620341E-02  0.11606761480E-01  0.37579360225E-02  0.10295984496E+01  0.10294987004E+01 0.  0.
     999903    2    3    3    0    0  0.71231891752E-01 -0.10152626497E+00  0.44643982569E-01  0.13913232324E+00  0.44532609492E-01 0.  0.
         14    1    1    2    0    0 -0.75202620341E-02 -0.11606761480E-01 -0.37579360225E-02  0.14331550379E-01  0.00000000000E+00 0. -1.
     999901    1    3    3    0    0 -0.63711629718E-01  0.11313302645E+00 -0.40886046546E-01  0.89046612638E+00  0.88000000000E+00 0.  1.
        -11    1    4    4    0    0  0.42878382645E-01 -0.55831433449E-01  0.18810520643E-02  0.70423746968E-01  0.51100000000E-03 0. -1.
         11    1    4    4    0    0  0.28353509106E-01 -0.45694831522E-01  0.42762930505E-01  0.68708576268E-01  0.51100000000E-03 0.  1.
</event>
<event>
 8    1  0.2091070E+004  0.1043930E+01  0.7957747E-01            NaN
         13   -1    0    0    0    0  0.00000000000E+00  0.00000000000E+00  0.74505805969E-08  0.10566000000E+00  0.10566000000E+00 0.  1.
     999900   -1    0    0    0    0 -0.00000000000E+00 -0.00000000000E+00 -0.74505805969E-08  0.93827000000E+00  0.93827000000E+00 0. -1.
     999902    2    1    2    0    0 -0.24801397981E-02  0.52256754109E-02 -0.12751099659E-01  0.10299282387E+01  0.10298330581E+01 0.  0.
     999903    2    3    3    0    0 -0.89516299674E-01 -0.88016907180E-01  0.39139690316E-01  0.13921946114E+00  0.45716508469E-01 0.  0.
         14    1    1    2    0    0  0.24801397981E-02 -0.52256754109E-02  0.12751099659E-01  0.14001761297E-01  0.00000000000E+00 0.  1.
     999901    1    3    3    0    0  0.87036159876E-01  0.93242582590E-01 -0.51890789975E-01  0.89070877756E+00  0.88000000000E+00 0. -1.
        -11    1    4    4    0    0 -0.59753244147E-01 -0.39648431970E-01  0.27465770709E-02  0.71765264233E-01  0.51100000000E-03 0.  1.
         11    1    4    4    0    0 -0.29763055528E-01 -0.48368475209E-01  0.36393113245E-01  0.67454196912E-01  0.51100000000E-03 0. -1.
</event>
<event>
 8    1  0.2091070E+004  0.1043930E+01  0.7957747E-01            NaN
         13   -1    0    0    0    0  0.00000000000E+00  0.00000000000E+00  0.74505805969E-08  0.10566000000E+00  0.10566000000E+00 0. -1.
     999900   -1    0    0    0    0 -0.00000000000E+00 -0.00000000000E+00 -0.74505805969E-08  0.93827000000E+00  0.93827000000E+00 0.  1.
     999902    2    1    2    0    0 -0.89347249454E-02 -0.27289158520E-02  0.95834622434E-02  0.10305464638E+01  0.10304595553E+01 0.  0.
     999903    2    3    3    0    0  0.80208989736E-01 -0.71712652249E-01  0.78187420660E-01  0.14070835448E+00  0.45928006104E-01 0.  0.
         14    1    1    2    0    0  0.89347249454E-02  0.27289158520E-02 -0.95834622434E-02  0.13383536160E-01  0.00000000000E+00 0.  1.
     999901    1    3    3    0    0 -0.89143714682E-01  0.68983736397E-01 -0.68603958416E-01  0.88983810936E+00  0.88000000000E+00 0.  1.
        -11    1    4    4    0    0  0.12434006438E-01 -0.29544162445E-01  0.50664110321E-02  0.32455996248E-01  0.51100000000E-03 0. -1.
         11    1    4    4    0    0  0.67774983299E-01 -0.42168489804E-01  0.73121009628E-01  0.10825235823E+00  0.51100000000E-03 0.  1.
</event>
<event>
 8    1  0.2091070E+004  0.1043930E+01  0.7957747E-01            NaN
         13   -1    0    0    0    0  0.00000000000E+00  0.00000000000E+00  0.74505805969E-08  0.10566000000E+00  0.10566000000E+00 0. -1.
     999900   -1    0    0    0    0 -0.00000000000E+00 -0.00000000000E+00 -0.74505805969E-08  0.93827000000E+00  0.93827000000E+00 0.  1.
     999902    2    1    2    0    0 -0.11553218350E-01  0.21282927951E-02 -0.58897479643E-02  0.10307886296E+01  0.10307048575E+01 0.  0.
     999903    2    3    3    0    0  0.26987815256E-01  0.12735176443E+00  0.25053871950E-01  0.14055055094E+00  0.46689900342E-01 0.  0.
         14    1    1    2    0    0  0.11553218350E-01 -0.21282927951E-02  0.58897479643E-02  0.13141370383E-01  0.00000000000E+00 0. -1.
     999901    1    3    3    0    0 -0.38541033605E-01 -0.12522347163E+00 -0.30943619914E-01  0.89023807868E+00  0.88000000000E+00 0. -1.
        -11    1    4    4    0    0  0.80968357392E-02  0.53074083181E-01 -0.12611074415E-01  0.55151766730E-01  0.51100000000E-03 0.  1.
         11    1    4    4    0    0  0.18890979516E-01  0.74277681246E-01  0.37664946365E-01  0.85398784207E-01  0.51100000000E-03 0. -1.
</event>
<event>
 8    1  0.2091070E+004  0.1043930E+01  0.7957747E-01            NaN
         13   -1    0    0    0    0  0.00000000000E+00  0.00000000000E+00  0.74505805969E-08  0.10566000000E+00  0.10566000000E+00 0.  1.
     999900   -1    0    0    0    0 -0.00000000000E+00 -0.00000000000E+00 -0.74505805969E-08  0.93827000000E+00  0.93827000000E+00 0. -1.
     999902    2    1    2    0    0  0.32783382096E-02 -0.16776339757E-01 -0.43904633367E-02  0.10262815087E+01  0.10261297510E+01 0.  0.
     999903    2    3    3    0    0  0.32128315071E-01 -0.83708746434E-02 -0.12553408302E+00  0.13747402133E+00  0.45144217438E-01 0.  0.
         14    1    1    2    0    0 -0.32783382096E-02  0.16776339757E-01  0.43904633367E-02  0.17648491306E-01  0.00000000000E+00 0. -1.
     999901    1    3    3    0    0 -0.28849976862E-01 -0.84054651134E-02  0.12114361969E+00  0.88880748737E+00  0.88000000000E+00 0.  1.
        -11    1    4    4    0    0  0.28300390635E-01  0.10177374718E-01 -0.41044049557E-01  0.50885815227E-01  0.51100000000E-03 0.  1.
         11    1    4    4    0    0  0.38279244366E-02 -0.18548249361E-01 -0.84490033465E-01  0.86588206101E-01  0.51100000000E-03 0. -1.
</event>
<event>
 8    1  0.2091070E+004  0.1043930E+01  0.7957747E-01            NaN
         13   -1    0    0    0    0  0.00000000000E+00  0.00000000000E+00  0.74505805969E-08  0.10566000000E+00  0.10566000000E+00 0.  1.
     999900   -1    0    0    0    0 -0.00000000000E+00 -0.00000000000E+00 -0.74505805969E-08  0.93827000000E+00  0.93827000000E+00 0. -1.
     999902    2    1    2    0    0  0.11356118108E-01 -0.54297449865E-02 -0.60845179898E-02  0.10299491235E+01  0.10298542285E+01 0.  0.
     999903    2    3    3    0    0  0.40184135846E-01  0.95980812804E-01  0.81216318778E-01  0.13936695886E+00  0.44721108953E-01 0.  0.
         14    1    1    2    0    0 -0.11356118108E-01  0.54297449865E-02  0.60845179898E-02  0.13980876520E-01  0.00000000000E+00 0.  1.
     999901    1    3    3    0    0 -0.28828017738E-01 -0.10141055779E+00 -0.87300836768E-01  0.89058216462E+00  0.88000000000E+00 0. -1.
        -11    1    4    4    0    0  0.12998173688E-01  0.40678780122E-01  0.61090423779E-01  0.74538692435E-01  0.51100000000E-03 0.  1.
         11    1    4    4    0    0  0.27185962158E-01  0.55302032682E-01  0.20125894999E-01  0.64828266425E-01  0.51100000000E-03 0. -1.
</event>
<event>
 8    1  0.2091070E+004  0.1043930E+01  0.7957747E-01            NaN
         13   -1    0    0    0    0  0.00000000000E+00  0.00000000000E+00  0.74505805969E-08  0.10566000000E+00  0.10566000000E+00 0. -1.
     999900   -1    0    0    0    0 -0.00000000000E+00 -0.00000000000E+00 -0.74505805969E-08  0.93827000000E+00  0.93827000000E+00 0. -1.
     999902    2    1    2    0    0  0.92336434066E-02  0.11816794621E-01  0.37020662560E-02  0.10284832495E+01  0.10283672459E+01 0.  0.
     999903    2    3    3    0    0 -0.81676691398E-01 -0.95254742141E-01  0.30983684461E-01  0.13692658299E+00  0.45214517660E-01 0.  0.
         14    1    1    2    0    0 -0.92336434066E-02 -0.11816794621E-01 -0.37020662560E-02  0.15446750475E-01  0.00000000000E+00 0. -1.
     999901    1    3    3    0    0  0.90910334805E-01  0.10707153676E+00 -0.27281618205E-01  0.89155666654E+00  0.88000000000E+00 0.  1.
        -11    1    4    4    0    0 -0.83959727351E-01 -0.93642340822E-01  0.22226541791E-01  0.12772002229E+00  0.51100000000E-03 0.  1.
         11    1    4    4    0    0  0.22830359530E-02 -0.16124013183E-02  0.87571426706E-02  0.92065607003E-02  0.51100000000E-03 0. -1.
</event>
<event>
 8    1  0.2091070E+004  0.1043930E+01  0.7957747E-01            NaN
         13   -1    0    0    0    0  0.00000000000E+00  0.00000000000E+00  0.74505805969E-08  0.10566000000E+00  0.10566000000E+00 0.  1.
     999900   -1    0    0    0    0 -0.00000000000E+00 -0.00000000000E+00 -0.74505805969E-08  0.93827000000E+00  0.93827000000E+00 0. -1.
     999902    2    1    2    0    0  0.77772270094E-02 -0.39330765455E-02 -0.10718235417E-01  0.10301156987E+01  0.10300230666E+01 0.  0.
     999903    2    3    3    0    0 -0.77880416940E-01 -0.72913066117E-01 -0.79945720055E-01  0.14057204287E+00  0.44581459462E-01 0.  0.
         14    1    1    2    0    0 -0.77772270094E-02  0.39330765455E-02  0.10718235417E-01  0.13814301341E-01  0.00000000000E+00 0.  1.
     999901    1    3    3    0    0  0.85657643949E-01  0.68979989572E-01  0.69227484638E-01  0.88954365579E+00  0.88000000000E+00 0.  1.
        -11    1    4    4    0    0 -0.39825379197E-01 -0.57918889532E-01 -0.68374757448E-01  0.98061343912E-01  0.51100000000E-03 0.  1.
         11    1    4    4    0    0 -0.38055037743E-01 -0.14994176585E-01 -0.11570962607E-01  0.42510698956E-01  0.51100000000E-03 0. -1.
</event>
<event>
 8    1  0.2091070E+004  0.1043930E+01  0.7957747E-01            NaN
         13   -1    0    0    0    0  0.00000000000E+00  0.00000000000E+00  0.74505805969E-08  0.10566000000E+00  0.10566000000E+00 0. -1.
     999900   -1    0    0    0    0 -0.00000000000E+00 -0.00000000000E+00 -0.74505805969E-08  0.93827000000E+00  0.93827000000E+00 0. -1.
     999902    2    1    2    0    0  0.12352905833E-01  0.22925281885E-02 -0.77962039168E-02  0.10291438320E+01  0.10290376068E+01 0.  0.
     999903    2    3    3    0    0 -0.49214475497E-01  0.33690471036E-01  0.11551076946E+00  0.13786330214E+00  0.45895966905E-01 0.  0.
         14    1    1    2    0    0 -0.12352905833E-01 -0.22925281885E-02  0.77962039168E-02  0.14786167980E-01  0.00000000000E+00 0.  1.
     999901    1    3    3    0    0  0.61567381330E-01 -0.31397942848E-01 -0.12330697338E+00  0.89128052988E+00  0.88000000000E+00 0. -1.
        -11    1    4    4    0    0 -0.13657487497E-01  0.21817312953E-02  0.72390484090E-01  0.73701629724E-01  0.51100000000E-03 0.  1.
         11    1    4    4    0    0 -0.35556988000E-01  0.31508739741E-01  0.43120285373E-01  0.64161672416E-01  0.51100000000E-03 0. -1.
</event>
<event>
 8    1  0.2091070E+004  0.1043930E+01  0.7957747E-01            NaN
         13   -1    0    0    0    0  0.00000000000E+00  0.00000000000E+00  0.74505805969E-08  0.10566000000E+00  0.10566000000E+00 0. -1.
     999900   -1    0    0    0    0 -0.00000000000E+00 -0.00000000000E+00 -0.74505805969E-08  0.93827000000E+00  0.93827000000E+00 0.  1.
     999902    2    1    2    0    0 -0.58225928153E-02  0.19336735632E-01 -0.69575000492E-02  0.10225707224E+01  0.10223476237E+01 0.  0.
     999903    2    3    3    0    0 -0.96222491493E-01 -0.33794904240E-01  0.71981874286E-01  0.13283675226E+00  0.45424102660E-01 0.  0.
         14    1    1    2    0    0  0.58225928153E-02 -0.19336735632E-01  0.69575000492E-02  0.21359277584E-01  0.00000000000E+00 0. -1.
     999901    1    3    3    0    0  0.90399898677E-01  0.53131639872E-01 -0.78939374335E-01  0.88973397016E+00  0.88000000000E+00 0. -1.
        -11    1    4    4    0    0 -0.19212659658E-01 -0.19894413317E-02 -0.43850024958E-02  0.19813468547E-01  0.51100000000E-03 0.  1.
         11    1    4    4    0    0 -0.77009831834E-01 -0.31805462909E-01  0.76366876782E-01  0.11302328371E+00  0.51100000000E-03 0. -1.
</event>
<event>
 8    1  0.2091070E+004  0.1043930E+01  0.7957747E-01            NaN
         13   -1    0    0    0    0  0.00000000000E+00  0.00000000000E+00  0.74505805969E-08  0.10566000000E+00  0.10566000000E+00 0. -1.
     999900   -1    0    0    0    0 -0.00000000000E+00 -0.00000000000E+00 -0.74505805969E-08  0.93827000000E+00  0.93827000000E+00 0. -1.
     999902    2    1    2    0    0  0.63211395357E-02 -0.93821687112E-02 -0.72773103458E-02  0.10304785636E+01  0.10303907652E+01 0.  0.
     999903    2    3    3    0    0 -0.10093693233E+00 -0.75198865686E-01 -0.44168849368E-01  0.14076112689E+00  0.44940781902E-01 0.  0.
         14    1    1    2    0    0 -0.63211395357E-02  0.93821687112E-02  0.72773103458E-02  0.13451436378E-01  0.00000000000E+00 0. -1.
     999901    1    3    3    0    0  0.10725807187E+00  0.65816696975E-01  0.36891539023E-01  0.88971743674E+00  0.88000000000E+00 0. -1.
        -11    1    4    4    0    0 -0.51911211701E-01 -0.32477674680E-01  0.15714445731E-02  0.61256051227E-01  0.51100000000E-03 0. -1.
         11    1    4    4    0    0 -0.49025720634E-01 -0.42721191006E-01 -0.45740293941E-01  0.79505075659E-01  0.51100000000E-03 0.  1.
</event>
<event>
 8    1  0.2091070E+004  0.1043930E+01  0.7957747E-01            NaN
         13   -1    0    0    0    0  0.00000000000E+00  0.00000000000E+00  0.74505805969E-08  0.10566000000E+00  0.10566000000E+00 0. -1.
     999900   -1    0    0    0    0 -0.00000000000E+00 -0.00000000000E+00 -0.74505805969E-08  0.93827000000E+00  0.93827000000E+00 0.  1.
     999902    2    1    2    0    0  0.11135949796E-01  0.41322772431E-02 -0.84931925624E-02  0.10293279655E+01  0.10292243881E+01 0.  0.
     999903    2    3    3    0    0 -0.76168658761E-01 -0.27865817352E-01 -0.10399382053E+00  0.13929069507E+00  0.44822033293E-01 0.  0.
         14    1    1    2    0    0 -0.11135949796E-01 -0.41322772431E-02  0.84931925624E-02  0.14602034549E-01  0.00000000000E+00 0. -1.
     999901    1    3    3    0    0  0.87304608557E-01  0.31998094595E-01  0.95500627971E-01  0.89003727039E+00  0.88000000000E+00 0. -1.
        -11    1    4    4    0    0 -0.34049395112E-01 -0.82110643168E-02 -0.13468911746E-01  0.37529396335E-01  0.51100000000E-03 0.  1.
         11    1    4    4    0    0 -0.42119263649E-01 -0.19654753035E-01 -0.90524908787E-01  0.10176129873E+00  0.51100000000E-03 0. -1.
</event>
<event>
 8    1  0.2091070E+004  0.1043930E+01  0.7957747E-01            NaN
         13   -1    0    0    0    0  0.00000000000E+00  0.00000000000E+00  0.74505805969E-08  0.10566000000E+00  0.10566000000E+00 0.  1.
     999900   -1    0    0    0    0 -0.00000000000E+00 -0.00000000000E+00 -0.74505805969E-08  0.93827000000E+00  0.93827000000E+00 0.  1.
     999902    2    1    2    0    0 -0.16125263969E-02  0.14105885838E-01 -0.95510432432E-03  0.10297001553E+01  0.10296018266E+01 0.  0.
     999903    2    3    3    0    0  0.11055216045E+00 -0.70929256081E-01  0.11205004067E-01  0.13843153102E+00  0.42249226222E-01 0.  0.
         14    1    1    2    0    0  0.16125263969E-02 -0.14105885838E-01  0.95510432432E-03  0.14229844726E-01  0.00000000000E+00 0. -1.
     999901    1    3    3    0    0 -0.11216468685E+00  0.85035141919E-01 -0.12160108391E-01  0.89126862425E+00  0.88000000000E+00 0. -1.
        -11    1    4    4    0    0  0.95123207675E-01 -0.70308600955E-01  0.21001379598E-01  0.12013760058E+00  0.51100000000E-03 0.  1.
         11    1    4    4    0    0  0.15428952778E-01 -0.62065512646E-03 -0.97963755309E-02  0.18293930446E-01  0.51100000000E-03 0. -1.
</event>
<event>
 8    1  0.2091070E+004  0.1043930E+01  0.7957747E-01            NaN
         13   -1    0    0    0    0  0.00000000000E+00  0.00000000000E+00  0.74505805969E-08  0.10566000000E+00  0.10566000000E+00 0. -1.
     999900   -1    0    0    0    0 -0.00000000000E+00 -0.00000000000E+00 -0.74505805969E-08  0.93827000000E+00  0.93827000000E+00 0. -1.
     999902    2    1    2    0    0  0.78509600030E-02  0.20413850627E-02 -0.45718029334E-02  0.10346183832E+01  0.10345764798E+01 0.  0.
     999903    2    3    3    0    0  0.55703643692E-01 -0.16216906658E-01 -0.12490138406E+00  0.14495414727E+00  0.45226818240E-01 0.  0.
         14    1    1    2    0    0 -0.78509600030E-02 -0.20413850627E-02  0.45718029334E-02  0.93116168309E-02  0.00000000000E+00 0. -1.
     999901    1    3    3    0    0 -0.47852683689E-01  0.18258291720E-01  0.12032958112E+00  0.88966423590E+00  0.88000000000E+00 0.  1.
        -11    1    4    4    0    0  0.39240132016E-01 -0.29157945465E-01 -0.63908116241E-01  0.80464167098E-01  0.51100000000E-03 0.  1.
         11    1    4    4    0    0  0.16463511676E-01  0.12941038807E-01 -0.60993267816E-01  0.64489980167E-01  0.51100000000E-03 0. -1.
</event>
<event>
 8    1  0.2091070E+004  0.1043930E+01  0.7957747E-01            NaN
         13   -1    0    0    0    0  0.00000000000E+00  0.00000000000E+00  0.74505805969E-08  0.10566000000E+00  0.10566000000E+00 0.  1.
     999900   -1    0    0    0    0 -0.00000000000E+00 -0.00000000000E+00 -0.74505805969E-08  0.93827000000E+00  0.93827000000E+00 0. -1.
     999902    2    1    2    0    0  0.87162816445E-03  0.10459426100E-01  0.73598321241E-02  0.10311110118E+01  0.10310313245E+01 0.  0.
     999903    2    3    3    0    0  0.62156022131E-01  0.35503519573E-01 -0.11232361602E+00  0.14054539864E+00  0.44861379515E-01 0.  0.
         14    1    1    2    0    0 -0.87162816445E-03 -0.10459426100E-01 -0.73598321241E-02  0.12818988217E-01  0.00000000000E+00 0.  1.
     999901    1    3    3    0    0 -0.61284393966E-01 -0.25044093472E-01  0.11968344815E+00  0.89056561315E+00  0.88000000000E+00 0.  1.
        -11    1    4    4    0    0  0.18657874828E-01 -0.80863405763E-02 -0.44537179312E-01  0.48962502582E-01  0.51100000000E-03 0. -1.
         11    1    4    4    0    0  0.43498147303E-01  0.43589860149E-01 -0.67786436710E-01  0.91582896053E-01  0.51100000000E-03 0.  1.
</event>
<event>
 8    1  0.2091070E+004  0.1043930E+01  0.7957747E-01            NaN
         13   -1    0    0    0    0  0.00000000000E+00  0.00000000000E+00  0.74505805969E-08  0.10566000000E+00  0.10566000000E+00 0. -1.
     999900   -1    0    0    0    0 -0.00000000000E+00 -0.00000000000E+00 -0.74505805969E-08  0.93827000000E+00  0.93827000000E+00 0. -1.
     999902    2    1    2    0    0 -0.69742014283E-03 -0.98779073431E-02  0.85146743489E-02  0.10308701712E+01  0.10307874421E+01 0.  0.
     999903    2    3    3    0    0  0.13534936791E-01 -0.11459544141E+00  0.70772054960E-01  0.14236338827E+00  0.44083339807E-01 0.  0.
         14    1    1    2    0    0  0.69742014283E-03  0.98779073431E-02 -0.85146743489E-02  0.13059828774E-01  0.00000000000E+00 0.  1.
     999901    1    3    3    0    0 -0.14232356934E-01  0.10471753407E+00 -0.62257380611E-01  0.88850678296E+00  0.88000000000E+00 0. -1.
        -11    1    4    4    0    0 -0.79312517689E-02 -0.40777238384E-01  0.62791457944E-02  0.42016386301E-01  0.51100000000E-03 0. -1.
         11    1    4    4    0    0  0.21466188560E-01 -0.73818203030E-01  0.64492909165E-01  0.10034700197E+00  0.51100000000E-03 0.  1.
</event>
<event>
 8    1  0.2091070E+004  0.1043930E+01  0.7957747E-01            NaN
         13   -1    0    0    0    0  0.00000000000E+00  0.00000000000E+00  0.74505805969E-08  0.10566000000E+00  0.10566000000E+00 0. -1.
     999900   -1    0    0    0    0 -0.00000000000E+00 -0.00000000000E+00 -0.74505805969E-08  0.93827000000E+00  0.93827000000E+00 0. -1.
     999902    2    1    2    0    0 -0.10460740934E-01  0.88941449858E-02 -0.54158372166E-02  0.10291697761E+01  0.10290639260E+01 0.  0.
     999903    2    3    3    0    0  0.66831025213E-01  0.86166304407E-01  0.73456923572E-01  0.13890806398E+00  0.44816433041E-01 0.  0.
         14    1    1    2    0    0  0.10460740934E-01 -0.88941449858E-02  0.54158372166E-02  0.14760223869E-01  0.00000000000E+00 0.  1.
     999901    1    3    3    0    0 -0.77291766147E-01 -0.77272159421E-01 -0.78872760789E-01  0.89026171216E+00  0.88000000000E+00 0.  1.
        -11    1    4    4    0    0  0.54170719176E-01  0.84908331295E-01  0.50530492923E-01  0.11268311043E+00  0.51100000000E-03 0.  1.
         11    1    4    4    0    0  0.12660306037E-01  0.12579731114E-02  0.22926430650E-01  0.26224953549E-01  0.51100000000E-03 0. -1.
</event>
<event>
 8    1  0.2091070E+004  0.1043930E+01  0.7957747E-01            NaN
         13   -1    0    0    0    0  0.00000000000E+00  0.00000000000E+00  0.74505805969E-08  0.10566000000E+00  0.10566000000E+00 0.  1.
     999900   -1    0    0    0    0 -0.00000000000E+00 -0.00000000000E+00 -0.74505805969E-08  0.93827000000E+00  0.93827000000E+00 0. -1.
     999902    2    1    2    0    0  0.94761552539E-02  0.65354243658E-02 -0.86349918010E-02  0.10295399905E+01  0.10294394201E+01 0.  0.
     999903    2    3    3    0    0 -0.74163475997E-01 -0.10766649234E+00 -0.21680105406E-02  0.13820420218E+00  0.44759429020E-01 0.  0.
         14    1    1    2    0    0 -0.94761552539E-02 -0.65354243658E-02  0.86349918010E-02  0.14390009501E-01  0.00000000000E+00 0.  1.
     999901    1    3    3    0    0  0.83639631250E-01  0.11420191670E+00 -0.64669812604E-02  0.89133578832E+00  0.88000000000E+00 0.  1.
        -11    1    4    4    0    0 -0.62133433034E-01 -0.51564103648E-01 -0.33183365965E-02  0.80812701752E-01  0.51100000000E-03 0.  1.
         11    1    4    4    0    0 -0.12030042962E-01 -0.56102388688E-01  0.11503260559E-02  0.57391500427E-01  0.51100000000E-03 0. -1.
</event>
<event>
 8    1  0.2091070E+004  0.1043930E+01  0.7957747E-01            NaN
         13   -1    0    0    0    0  0.00000000000E+00  0.00000000000E+00  0.74505805969E-08  0.10566000000E+00  0.10566000000E+00 0.  1.
     999900   -1    0    0    0    0 -0.00000000000E+00 -0.00000000000E+00 -0.74505805969E-08  0.93827000000E+00  0.93827000000E+00 0. -1.
     999902    2    1    2    0    0 -0.19873158196E-02  0.97035467221E-02  0.37861934540E-02  0.10333260619E+01  0.10332716519E+01 0.  0.
     999903    2    3    3    0    0  0.20918110302E-01 -0.18628677063E-01  0.13301350073E+00  0.14314233341E+00  0.44861356329E-01 0.  0.
         14    1    1    2    0    0  0.19873158196E-02 -0.97035467221E-02 -0.37861934540E-02  0.10603938138E-01  0.00000000000E+00 0. -1.
     999901    1    3    3    0    0 -0.22905426121E-01  0.28332223785E-01 -0.12922730727E+00  0.89018372845E+00  0.88000000000E+00 0. -1.
        -11    1    4    4    0    0 -0.10780402459E-01 -0.83529398649E-02  0.14001558673E-01  0.19552325893E-01  0.51100000000E-03 0.  1.
         11    1    4    4    0    0  0.31698512761E-01 -0.10275737198E-01  0.11901194205E+00  0.12359000752E+00  0.51100000000E-03 0. -1.
</event>
<event>
 8    1  0.2091070E+004  0.1043930E+01  0.7957747E-01            NaN
         13   -1    0    0    0    0  0.00000000000E+00  0.00000000000E+00  0.74505805969E-08  0.10566000000E+00  0.10566000000E+00 0.  1.
     999900   -1    0    0    0    0 -0.00000000000E+00 -0.00000000000E+00 -0.74505805969E-08  0.93827000000E+00  0.93827000000E+00 0. -1.
     999902    2    1    2    0    0 -0.62193172678E-02  0.12362807103E-01  0.65664581435E-03  0.10300753946E+01  0.10299822176E+01 0.  0.
     999903    2    3    3    0    0  0.87083510166E-01  0.53162945168E-01 -0.86301883683E-01  0.13994514868E+00  0.41554699248E-01 0.  0.
         14    1    1    2    0    0  0.62193172678E-02 -0.12362807103E-01 -0.65664581435E-03  0.13854605389E-01  0.00000000000E+00 0. -1.
     999901    1    3    3    0    0 -0.93302827434E-01 -0.40800138065E-01  0.86958529497E-01  0.89013024593E+00  0.88000000000E+00 0.  1.
        -11    1    4    4    0    0  0.58056422125E-01  0.49130943386E-01 -0.42165972975E-01  0.86963372438E-01  0.51100000000E-03 0. -1.
         11    1    4    4    0    0  0.29027088041E-01  0.40320017824E-02 -0.44135910708E-01  0.52981776240E-01  0.51100000000E-03 0.  1.
</event>
<event>
 8    1  0.2091070E+004  0.1043930E+01  0.7957747E-01            NaN
         13   -1    0    0    0    0  0.00000000000E+00  0.00000000000E+00  0.74505805969E-08  0.10566000000E+00  0.10566000000E+00 0. -1.
     999900   -1    0    0    0    0 -0.00000000000E+00 -0.00000000000E+00 -0.74505805969E-08  0.93827000000E+00  0.93827000000E+00 0. -1.
     999902    2    1    2    0    0  0.11595541675E-01 -0.41221476648E-03 -0.83077903975E-02  0.10296595449E+01  0.10295606502E+01 0.  0.
     999903    2    3    3    0    0 -0.12593195045E+00 -0.34821206641E-01  0.56071834814E-02  0.13820488182E+00  0.44696490650E-01 0.  0.
         14    1    1    2    0    0 -0.11595541675E-01  0.41221476648E-03  0.83077903975E-02  0.14270455110E-01  0.00000000000E+00 0.  1.
     999901    1    3    3    0    0  0.13752749212E+00  0.34408991874E-01 -0.13914973879E-01  0.89145466307E+00  0.88000000000E+00 0. -1.
        -11    1    4    4    0    0 -0.25472866738E-01  0.10270363020E-01 -0.35980438975E-02  0.27704771021E-01  0.51100000000E-03 0.  1.
         11    1    4    4    0    0 -0.10045908371E+00 -0.45091569661E-01  0.92052273789E-02  0.11050011080E+00  0.51100000000E-03 0. -1.
</event>
<event>
 8    1  0.2091070E+004  0.1043930E+01  0.7957747E-01            NaN
         13   -1    0    0    0    0  0.00000000000E+00  0.00000000000E+00  0.74505805969E-08  0.10566000000E+00  0.10566000000E+00 0. -1.
     999900   -1    0    0    0    0 -0.00000000000E+00 -0.00000000000E+00 -0.74505805969E-08  0.93827000000E+00  0.93827000000E+00 0. -1.
     999902    2    1    2    0    0 -0.22564742616E-02 -0.62370485451E-02 -0.10866107401E-01  0.10311995349E+01  0.10311209513E+01 0.  0.
     999903    2    3    3    0    0  0.57338069455E-01  0.53436885072E-01  0.10606924828E+00  0.13946730753E+00  0.45357353797E-01 0.  0.
         14    1    1    2    0    0  0.22564742616E-02  0.62370485451E-02  0.10866107401E-01  0.12730465062E-01  0.00000000000E+00 0. -1.
     999901    1    3    3    0    0 -0.59594543716E-01 -0.59673933617E-01 -0.11693535568E+00  0.89173222741E+00  0.88000000000E+00 0. -1.
        -11    1    4    4    0    0  0.40282209156E-01  0.53420809545E-01  0.58309138371E-01  0.88750526789E-01  0.51100000000E-03 0. -1.
         11    1    4    4    0    0  0.17055860299E-01  0.16075527379E-04  0.47760109909E-01  0.50716780738E-01  0.51100000000E-03 0.  1.
</event>
<event>
 8    1  0.2091070E+004  0.1043930E+01  0.7957747E-01            NaN
         13   -1    0    0    0    0  0.00000000000E+00  0.00000000000E+00  0.74505805969E-08  0.10566000000E+00  0.10566000000E+00 0. -1.
     999900   -1    0    0    0    0 -0.00000000000E+00 -0.00000000000E+00 -0.74505805969E-08  0.93827000000E+00  0.93827000000E+00 0. -1.
     999902    2    1    2    0    0 -0.81908270802E-02 -0.76937759912E-02  0.72079372295E-02  0.10305794121E+01  0.10304929338E+01 0.  0.
     999903    2    3    3    0    0 -0.44549049092E-01 -0.12436716428E+00 -0.24260941664E-01  0.14157722418E+00  0.44762794716E-01 0.  0.
         14    1    1    2    0    0  0.81908270802E-02  0.76937759912E-02 -0.72079372295E-02  0.13350587866E-01  0.00000000000E+00 0. -1.
     999901    1    3    3    0    0  0.36358222012E-01  0.11667338829E+00  0.31468878893E-01  0.88900218795E+00  0.88000000000E+00 0. -1.
        -11    1    4    4    0    0 -0.15192399091E-01 -0.96307036542E-01 -0.79912516465E-02  0.97826251597E-01  0.51100000000E-03 0. -1.
         11    1    4    4    0    0 -0.29356650001E-01 -0.28060127739E-01 -0.16269690017E-01  0.43750972586E-01  0.51100000000E-03 0.  1.
</event>
<event>
 8    1  0.2091070E+004  0.1043930E+01  0.7957747E-01            NaN
         13   -1    0    0    0    0  0.00000000000E+00  0.00000000000E+00  0.74505805969E-08  0.10566000000E+00  0.10566000000E+00 0.  1.
     999900   -1    0    0    0    0 -0.00000000000E+00 -0.00000000000E+00 -0.74505805969E-08  0.93827000000E+00  0.93827000000E+00 0.  1.
     999902    2    1    2    0    0  0.21430518975E-02  0.53720280035E-02  0.12921331503E-01  0.10297732997E+01  0.10296759862E+01 0.  0.
     999903    2    3    3    0    0  0.16554390188E-01  0.93464301378E-01  0.94690625216E-01  0.14148609798E+00  0.45192675860E-01 0.  0.
         14    1    1    2    0    0 -0.21430518975E-02 -0.53720280035E-02 -0.12921331503E-01  0.14156700325E-01  0.00000000000E+00 0. -1.
     999901    1    3    3    0    0 -0.14411338290E-01 -0.88092273374E-01 -0.81769293713E-01  0.88828720169E+00  0.88000000000E+00 0.  1.
        -11    1    4    4    0    0  0.25814549526E-01  0.84050645523E-01  0.66140645677E-01  0.11002612468E+00  0.51100000000E-03 0.  1.
         11    1    4    4    0    0 -0.92601593381E-02  0.94136558548E-02  0.28549979539E-01  0.31459973302E-01  0.51100000000E-03 0. -1.
</event>
<event>
 8    1  0.2091070E+004  0.1043930E+01  0.7957747E-01            NaN
         13   -1    0    0    0    0  0.00000000000E+00  0.00000000000E+00  0.74505805969E-08  0.10566000000E+00  0.10566000000E+00 0.  1.
     999900   -1    0    0    0    0 -0.00000000000E+00 -0.00000000000E+00 -0.74505805969E-08  0.93827000000E+00  0.93827000000E+00 0.  1.
     999902    2    1    2    0    0 -0.84461214905E-02 -0.53159270628E-02  0.94702977758E-02  0.10301719991E+01  0.10300801256E+01 0.  0.
     999903    2    3    3    0    0  0.54794762685E-01  0.19527393577E-01 -0.11716854518E+00  0.13851399484E+00  0.45539803139E-01 0.  0.
         14    1    1    2    0    0  0.84461214905E-02  0.53159270628E-02 -0.94702977758E-02  0.13758000899E-01  0.00000000000E+00 0. -1.
     999901    1    3    3    0    0 -0.63240884175E-01 -0.24843320640E-01  0.12663884296E+00  0.89165800426E+00  0.88000000000E+00 0. -1.
        -11    1    4    4    0    0  0.12504439537E-01  0.27138437207E-01 -0.37071448522E-01  0.47617320364E-01  0.51100000000E-03 0. -1.
         11    1    4    4    0    0  0.42290323148E-01 -0.76110436295E-02 -0.80097096660E-01  0.90896674479E-01  0.51100000000E-03 0.  1.
</event>
<event>
 8    1  0.2091070E+004  0.1043930E+01  0.7957747E-01            NaN
         13   -1    0    0    0    0  0.00000000000E+00  0.00000000000E+00  0.74505805969E-08  0.10566000000E+00  0.10566000000E+00 0.  1.
     999900   -1    0    0    0    0 -0.00000000000E+00 -0.00000000000E+00 -0.74505805969E-08  0.93827000000E+00  0.93827000000E+00 0. -1.
     999902    2    1    2    0    0 -0.11288340739E-01  0.11305498503E-01  0.44469884160E-02  0.10273463744E+01  0.10272125176E+01 0.  0.
     999903    2    3    3    0    0  0.91055679844E-01  0.49245088504E-01 -0.76435647614E-01  0.13692191837E+00  0.46786621264E-01 0.  0.
         14    1    1    2    0    0  0.11288340739E-01 -0.11305498503E-01 -0.44469884160E-02  0.16583625630E-01  0.00000000000E+00 0. -1.
     999901    1    3    3    0    0 -0.10234402058E+00 -0.37939590000E-01  0.80882636030E-01  0.89042445600E+00  0.88000000000E+00 0.  1.
        -11    1    4    4    0    0  0.53588573265E-01  0.13498817493E-01 -0.16421414205E-01  0.57653076446E-01  0.51100000000E-03 0.  1.
         11    1    4    4    0    0  0.37467106580E-01  0.35746271011E-01 -0.60014233409E-01  0.79268841920E-01  0.51100000000E-03 0. -1.
</event>
<event>
 8    1  0.2091070E+004  0.1043930E+01  0.7957747E-01            NaN
         13   -1    0    0    0    0  0.00000000000E+00  0.00000000000E+00  0.74505805969E-08  0.10566000000E+00  0.10566000000E+00 0. -1.
     999900   -1    0    0    0    0 -0.00000000000E+00 -0.00000000000E+00 -0.74505805969E-08  0.93827000000E+00  0.93827000000E+00 0. -1.
     999902    2    1    2    0    0 -0.87175083234E-02  0.98962290502E-02  0.34688471646E-02  0.10302931675E+01  0.10302029158E+01 0.  0.
     999903    2    3    3    0    0  0.70248180132E-01 -0.75669430516E-01 -0.81258785433E-01  0.13858927392E+00  0.44083183968E-01 0.  0.
         14    1    1    2    0    0  0.87175083234E-02 -0.98962290502E-02 -0.34688471646E-02  0.13636832529E-01  0.00000000000E+00 0.  1.
     999901    1    3    3    0    0 -0.78965688455E-01  0.85565659566E-01  0.84727632597E-01  0.89170389355E+00  0.88000000000E+00 0.  1.
        -11    1    4    4    0    0  0.15778199231E-01 -0.29893033488E-01 -0.51187250252E-01  0.61342813201E-01  0.51100000000E-03 0.  1.
         11    1    4    4    0    0  0.54469980901E-01 -0.45776397028E-01 -0.30071535181E-01  0.77246460717E-01  0.51100000000E-03 0. -1.
</event>
<event>
 8    1  0.2091070E+004  0.1043930E+01  0.7957747E-01            NaN
         13   -1    0    0    0    0  0.00000000000E+00  0.00000000000E+00  0.74505805969E-08  0.10566000000E+00  0.10566000000E+00 0.  1.
     999900   -1    0    0    0    0 -0.00000000000E+00 -0.00000000000E+00 -0.74505805969E-08  0.93827000000E+00  0.93827000000E+00 0.  1.
     999902    2    1    2    0    0 -0.11708898543E-01 -0.65561145464E-02 -0.29920146234E-02  0.10301810693E+01  0.10300893177E+01 0.  0.
     999903    2    3    3    0    0 -0.71501168543E-01 -0.11227681635E+00  0.20872674594E-01  0.14151830667E+00  0.43281196691E-01 0.  0.
         14    1    1    2    0    0  0.11708898543E-01  0.65561145464E-02  0.29920146234E-02  0.13748930669E-01  0.00000000000E+00 0. -1.
     999901    1    3    3    0    0  0.59792270001E-01  0.10572070180E+00 -0.23864689218E-01  0.88866276266E+00  0.88000000000E+00 0.  1.
        -11    1    4    4    0    0 -0.27493005185E-02 -0.11183325319E-02  0.99085971103E-02  0.10356193253E-01  0.51100000000E-03 0.  1.
         11    1    4    4    0    0 -0.68751868025E-01 -0.11115848382E+00  0.10964077484E-01  0.13116211342E+00  0.51100000000E-03 0. -1.
</event>
<event>
 8    1  0.2091070E+004  0.1043930E+01  0.7957747E-01            NaN
         13   -1    0    0    0    0  0.00000000000E+00  0.00000000000E+00  0.74505805969E-08  0.10566000000E+00  0.10566000000E+00 0. -1.
     999900   -1    0    0    0    0 -0.00000000000E+00 -0.00000000000E+00 -0.74505805969E-08  0.93827000000E+00  0.93827000000E+00 0. -1.
     999902    2    1    2    0    0  0.92400075866E-02  0.71819300698E-02  0.63274265480E-02  0.10306260838E+01  0.10305402129E+01 0.  0.
     999903    2    3    3    0    0  0.90930150392E-01 -0.97581449976E-01  0.62793823619E-04  0.14063288671E+00  0.44577721473E-01 0.  0.
         14    1    1    2    0    0 -0.92400075866E-02 -0.71819300698E-02 -0.63274265480E-02  0.13303916207E-01  0.00000000000E+00 0. -1.
     999901    1    3    3    0    0 -0.81690142805E-01  0.10476338005E+00  0.62646327244E-02  0.88999319708E+00  0.88000000000E+00 0. -1.
        -11    1    4    4    0    0  0.70022262985E-01 -0.42993300758E-01 -0.61028548751E-03  0.82171617929E-01  0.51100000000E-03 0. -1.
         11    1    4    4    0    0  0.20907887407E-01 -0.54588149217E-01  0.67307931113E-03  0.58461268781E-01  0.51100000000E-03 0.  1.
</event>
<event>
 8    1  0.2091070E+004  0.1043930E+01  0.7957747E-01            NaN
         13   -1    0    0    0    0  0.00000000000E+00  0.00000000000E+00  0.74505805969E-08  0.10566000000E+00  0.10566000000E+00 0. -1.
     999900   -1    0    0    0    0 -0.00000000000E+00 -0.00000000000E+00 -0.74505805969E-08  0.93827000000E+00  0.93827000000E+00 0. -1.
     999902    2    1    2    0    0 -0.31155363753E-02  0.28406222017E-02  0.13846381616E-01  0.10294559548E+01  0.10293541979E+01 0.  0.
     999903    2    3    3    0    0  0.10931730009E+00 -0.56610351064E-01 -0.45839182689E-01  0.13831178713E+00  0.43288749620E-01 0.  0.
         14    1    1    2    0    0  0.31155363753E-02 -0.28406222017E-02 -0.13846381616E-01  0.14474045228E-01  0.00000000000E+00 0.  1.
     999901    1    3    3    0    0 -0.11243283646E+00  0.59450973266E-01  0.59685564306E-01  0.89114416764E+00  0.88000000000E+00 0.  1.
        -11    1    4    4    0    0  0.73683970522E-01 -0.21509601643E-01 -0.11449993678E-01  0.77610269623E-01  0.51100000000E-03 0. -1.
         11    1    4    4    0    0  0.35633329564E-01 -0.35100749421E-01 -0.34389189011E-01  0.60701517506E-01  0.51100000000E-03 0.  1.
</event>
<event>
 8    1  0.2091070E+004  0.1043930E+01  0.7957747E-01            NaN
         13   -1    0    0    0    0  0.00000000000E+00  0.00000000000E+00  0.74505805969E-08  0.10566000000E+00  0.10566000000E+00 0.  1.
     999900   -1    0    0    0    0 -0.00000000000E+00 -0.00000000000E+00 -0.74505805969E-08  0.93827000000E+00  0.93827000000E+00 0.  1.
     999902    2    1    2    0    0  0.69200605471E-04  0.14687310880E-01 -0.85587833272E-03  0.10292176101E+01  0.10291124499E+01 0.  0.
     999903    2    3    3    0    0 -0.80064668086E-02 -0.82030602113E-01 -0.10118650352E+00  0.13821491342E+00  0.45514070382E-01 0.  0.
         14    1    1    2    0    0 -0.69200605471E-04 -0.14687310880E-01  0.85587833272E-03  0.14712389925E-01  0.00000000000E+00 0.  1.
     999901    1    3    3    0    0  0.80756674140E-02  0.96717912993E-01  0.10033062519E+00  0.89100269666E+00  0.88000000000E+00 0. -1.
        -11    1    4    4    0    0 -0.23721984899E-01 -0.71225662589E-01 -0.80694584167E-01  0.11021662585E+00  0.51100000000E-03 0. -1.
         11    1    4    4    0    0  0.15715518091E-01 -0.10804939524E-01 -0.20491919354E-01  0.27998287569E-01  0.51100000000E-03 0.  1.
</event>
<event>
 8    1  0.2091070E+004  0.1043930E+01  0.7957747E-01            NaN
         13   -1    0    0    0    0  0.00000000000E+00  0.00000000000E+00  0.74505805969E-08  0.10566000000E+00  0.10566000000E+00 0.  1.
     999900   -1    0    0    0    0 -0.00000000000E+00 -0.00000000000E+00 -0.74505805969E-08  0.93827000000E+00  0.93827000000E+00 0. -1.
     999902    2    1    2    0    0 -0.42840508278E-02 -0.12838800924E-01  0.14812708101E-02  0.10303144918E+01  0.10302245240E+01 0.  0.
     999903    2    3    3    0    0 -0.12535071768E+00  0.41981854626E-01 -0.14066793681E-01  0.14019978884E+00  0.44528951982E-01 0.  0.
         14    1    1    2    0    0  0.42840508278E-02  0.12838800924E-01 -0.14812708101E-02  0.13615508212E-01  0.00000000000E+00 0. -1.
     999901    1    3    3    0    0  0.12106666685E+00 -0.54820655549E-01  0.15548064491E-01  0.89011470295E+00  0.88000000000E+00 0. -1.
        -11    1    4    4    0    0 -0.31716371293E-01  0.26631369211E-02  0.14092585130E-01  0.34812103971E-01  0.51100000000E-03 0.  1.
         11    1    4    4    0    0 -0.93634346389E-01  0.39318717704E-01 -0.28159378810E-01  0.10538768487E+00  0.51100000000E-03 0. -1.
</event>
<event>
 8    1  0.2091070E+004  0.1043930E+01  0.7957747E-01            NaN
         13   -1    0    0    0    0  0.00000000000E+00  0.00000000000E+00  0.74505805969E-08  0.10566000000E+00  0.10566000000E+00 0.  1.
     999900   -1    0    0    0    0 -0.00000000000E+00 -0.00000000000E+00 -0.74505805969E-08  0.93827000000E+00  0.93827000000E+00 0. -1.
     999902    2    1    2    0    0 -0.11684701097E-01  0.19628223852E-02  0.72043956000E-02  0.10300631969E+01  0.10299698546E+01 0.  0.
     999903    2    3    3    0    0  0.36306018931E-01  0.27891349196E-01  0.12492570282E+00  0.14055001328E+00  0.45297026821E-01 0.  0.
         14    1    1    2    0    0  0.11684701097E-01 -0.19628223852E-02 -0.72043956000E-02  0.13866803071E-01  0.00000000000E+00 0. -1.
     999901    1    3    3    0    0 -0.47990720028E-01 -0.25928526811E-01 -0.11772130722E+00  0.88951318365E+00  0.88000000000E+00 0. -1.
        -11    1    4    4    0    0  0.47098702195E-01  0.21284940270E-01  0.98031537078E-01  0.11082319168E+00  0.51100000000E-03 0.  1.
         11    1    4    4    0    0 -0.10792683264E-01  0.66064089260E-02  0.26894165737E-01  0.29726821603E-01  0.51100000000E-03 0. -1.
</event>
<event>
 8    1  0.2091070E+004  0.1043930E+01  0.7957747E-01            NaN
         13   -1    0    0    0    0  0.00000000000E+00  0.00000000000E+00  0.74505805969E-08  0.10566000000E+00  0.10566000000E+00 0. -1.
     999900   -1    0    0    0    0 -0.00000000000E+00 -0.00000000000E+00 -0.74505805969E-08  0.93827000000E+00  0.93827000000E+00 0. -1.
     999902    2    1    2    0    0 -0.32848268007E-04 -0.13728091217E-01  0.36628619783E-02  0.10297216178E+01  0.10296235875E+01 0.  0.
     999903    2    3    3    0    0 -0.56627505315E-01  0.38334922844E-01 -0.11217908922E+00  0.13880474719E+00  0.44792511855E-01 0.  0.
         14    1    1    2    0    0  0.32848268007E-04  0.13728091217E-01 -0.36628619783E-02  0.14208382221E-01  0.00000000000E+00 0. -1.
     999901    1    3    3    0    0  0.56594657047E-01 -0.52063014061E-01  0.11584195119E+00  0.89091687059E+00  0.88000000000E+00 0.  1.
        -11    1    4    4    0    0 -0.87348265899E-02  0.12027645773E-01 -0.64785223371E-01  0.66470653274E-01  0.51100000000E-03 0. -1.
         11    1    4    4    0    0 -0.47892678725E-01  0.26307277071E-01 -0.47393865844E-01  0.72334093918E-01  0.51100000000E-03 0.  1.
</event>
<event>
 8    1  0.2091070E+004  0.1043930E+01  0.7957747E-01            NaN
         13   -1    0    0    0    0  0.00000000000E+00  0.00000000000E+00  0.74505805969E-08  0.10566000000E+00  0.10566000000E+00 0.  1.
     999900   -1    0    0    0    0 -0.00000000000E+00 -0.00000000000E+00 -0.74505805969E-08  0.93827000000E+00  0.93827000000E+00 0. -1.
     999902    2    1    2    0    0 -0.13608650126E-01 -0.36828503421E-02  0.11566827656E-03  0.10298313432E+01  0.10297348315E+01 0.  0.
     999903    2    3    3    0    0 -0.11175369367E+00  0.17367837592E-01 -0.77247457783E-01  0.14075281217E+00  0.32460045705E-01 0.  0.
         14    1    1    2    0    0  0.13608650126E-01  0.36828503421E-02 -0.11566827656E-03  0.14098656817E-01  0.00000000000E+00 0.  1.
     999901    1    3    3    0    0  0.98145043547E-01 -0.21050687934E-01  0.77363126060E-01  0.88907853101E+00  0.88000000000E+00 0.  1.
        -11    1    4    4    0    0 -0.10708875988E+00  0.83094510095E-02 -0.69393214811E-01  0.12787778873E+00  0.51100000000E-03 0. -1.
         11    1    4    4    0    0 -0.46649337934E-02  0.90583865826E-02 -0.78542429722E-02  0.12875023435E-01  0.51100000000E-03 0.  1.
</event>
<event>
 8    1  0.2091070E+004  0.1043930E+01  0.7957747E-01            NaN
         13   -1    0    0    0    0  0.00000000000E+00  0.00000000000E+00  0.74505805969E-08  0.10566000000E+00  0.10566000000E+00 0. -1.
     999900   -1    0    0    0    0 -0.00000000000E+00 -0.00000000000E+00 -0.74505805969E-08  0.93827000000E+00  0.93827000000E+00 0. -1.
     999902    2    1    2    0    0  0.26163487417E-02  0.39441072204E-02 -0.44603374456E-02  0.10374264723E+01  0.10374060871E+01 0.  0.
     999903    2    3    3    0    0  0.10654998003E+00  0.15139301883E-02 -0.90799057858E-01  0.14711052831E+00  0.45186816686E-01 0.  0.
         14    1    1    2    0    0 -0.26163487417E-02 -0.39441072204E-02  0.44603374456E-02  0.65035277067E-02  0.00000000000E+00 0. -1.
     999901    1    3    3    0    0 -0.10393363129E+00  0.24301770320E-02  0.86338720413E-01  0.89031594399E+00  0.88000000000E+00 0.  1.
        -11    1    4    4    0    0  0.20590973510E-01  0.18991888492E-01 -0.21181352827E-01  0.35122511971E-01  0.51100000000E-03 0.  1.
         11    1    4    4    0    0  0.85959006518E-01 -0.17477958304E-01 -0.69617705032E-01  0.11198801634E+00  0.51100000000E-03 0. -1.
</event>
<event>
 8    1  0.2091070E+004  0.1043930E+01  0.7957747E-01            NaN
         13   -1    0    0    0    0  0.00000000000E+00  0.00000000000E+00  0.74505805969E-08  0.10566000000E+00  0.10566000000E+00 0.  1.
     999900   -1    0    0    0    0 -0.00000000000E+00 -0.00000000000E+00 -0.74505805969E-08  0.93827000000E+00  0.93827000000E+00 0. -1.
     999902    2    1    2    0    0 -0.26473875091E-02 -0.12709383862E-01 -0.68263475400E-02  0.10292624808E+01  0.10291579657E+01 0.  0.
     999903    2    3    3    0    0 -0.42555494892E-01  0.86107645740E-01  0.88073920696E-01  0.13776737521E+00  0.44691580478E-01 0.  0.
         14    1    1    2    0    0  0.26473875091E-02  0.12709383862E-01  0.68263475400E-02  0.14667519201E-01  0.00000000000E+00 0. -1.
     999901    1    3    3    0    0  0.39908107383E-01 -0.98817029602E-01 -0.94900268236E-01  0.89149510559E+00  0.88000000000E+00 0. -1.
        -11    1    4    4    0    0 -0.14630966361E-02  0.38174955986E-01  0.14621933931E-01  0.40908800877E-01  0.51100000000E-03 0. -1.
         11    1    4    4    0    0 -0.41092398256E-01  0.47932689754E-01  0.73451986765E-01  0.96858574335E-01  0.51100000000E-03 0.  1.
</event>
<event>
 7    1  0.2091070E+004  0.1043930E+01  0.7957747E-01            NaN
         13   -1    0    0    0    0  0.00000000000E+00  0.00000000000E+00  0.74505805969E-08  0.10566000000E+00  0.10566000000E+00 0. -1.
     999900   -1    0    0    0    0 -0.00000000000E+00 -0.00000000000E+00 -0.74505805969E-08  0.93827000000E+00  0.93827000000E+00 0.  1.
     999903    2    1    2    0    0  0.96055117943E-01  0.44075582023E-01 -0.49524697115E-01  0.12471086659E+00  0.43941574939E-01 0.  0.
         14    1    1    2    0    0  0.29175431568E-02 -0.19127230301E-01 -0.23353064022E-01  0.30327027488E-01  0.00000000000E+00 0.  1.
     999901    1    1    2    0    0 -0.98972661099E-01 -0.24948351722E-01  0.72877761137E-01  0.88889210592E+00  0.88000000000E+00 0. -1.
        -11    1    3    3    0    0  0.90581757886E-01  0.24561478453E-01 -0.44249311991E-01  0.10376215022E+00  0.51100000000E-03 0. -1.
         11    1    3    3    0    0  0.54733600566E-02  0.19514103570E-01 -0.52753851240E-02  0.20948716372E-01  0.51100000000E-03 0.  1.
</event>
<event>
 8    1  0.2091070E+004  0.1043930E+01  0.7957747E-01            NaN
         13   -1    0    0    0    0  0.00000000000E+00  0.00000000000E+00  0.74505805969E-08  0.10566000000E+00  0.10566000000E+00 0. -1.
     999900   -1    0    0    0    0 -0.00000000000E+00 -0.00000000000E+00 -0.74505805969E-08  0.93827000000E+00  0.93827000000E+00 0.  1.
     999902    2    1    2    0    0  0.80299241327E-02  0.18336123887E-03 -0.13392421587E-01  0.10283136541E+01  0.10281950695E+01 0.  0.
     999903    2    3    3    0    0  0.22266824380E-01 -0.12823429429E+00 -0.18909048186E-01  0.13886201588E+00  0.44556275103E-01 0.  0.
         14    1    1    2    0    0 -0.80299241327E-02 -0.18336123887E-03  0.13392421587E-01  0.15616345888E-01  0.00000000000E+00 0. -1.
     999901    1    3    3    0    0 -0.14236900247E-01  0.12841765553E+00  0.55166265988E-02  0.88945163823E+00  0.88000000000E+00 0.  1.
        -11    1    4    4    0    0  0.16971453314E-01 -0.42778017911E-01 -0.26150109575E-01  0.52934661573E-01  0.51100000000E-03 0. -1.
         11    1    4    4    0    0  0.52953710654E-02 -0.85456276381E-01  0.72410613896E-02  0.85927354309E-01  0.51100000000E-03 0.  1.
</event>
<event>
 8    1  0.2091070E+004  0.1043930E+01  0.7957747E-01            NaN
         13   -1    0    0    0    0  0.00000000000E+00  0.00000000000E+00  0.74505805969E-08  0.10566000000E+00  0.10566000000E+00 0.  1.
     999900   -1    0    0    0    0 -0.00000000000E+00 -0.00000000000E+00 -0.74505805969E-08  0.93827000000E+00  0.93827000000E+00 0. -1.
     999902    2    1    2    0    0  0.25298843451E-02  0.11912718416E-01 -0.68543950018E-02  0.10299551688E+01  0.10298603565E+01 0.  0.
     999903    2    3    3    0    0  0.10990228043E+00 -0.55829524877E-01  0.45670391874E-01  0.13929434889E+00  0.46061739520E-01 0.  0.
         14    1    1    2    0    0 -0.25298843451E-02 -0.11912718416E-01  0.68543950018E-02  0.13974831151E-01  0.00000000000E+00 0.  1.
     999901    1    3    3    0    0 -0.10737239609E+00  0.67742243293E-01 -0.52524786876E-01  0.89066081996E+00  0.88000000000E+00 0.  1.
        -11    1    4    4    0    0  0.24086220892E-01 -0.44454344008E-02 -0.80109597196E-02  0.25774881581E-01  0.51100000000E-03 0. -1.
         11    1    4    4    0    0  0.85816059539E-01 -0.51384090476E-01  0.53681351594E-01  0.11351946731E+00  0.51100000000E-03 0.  1.
</event>
<event>
 8    1  0.2091070E+004  0.1043930E+01  0.7957747E-01            NaN
         13   -1    0    0    0    0  0.00000000000E+00  0.00000000000E+00  0.74505805969E-08  0.10566000000E+00  0.10566000000E+00 0.  1.
     999900   -1    0    0    0    0 -0.00000000000E+00 -0.00000000000E+00 -0.74505805969E-08  0.93827000000E+00  0.93827000000E+00 0. -1.
     999902    2    1    2    0    0  0.12536929394E-01  0.19366378696E-02  0.54796468471E-02  0.10301114728E+01  0.10300187836E+01 0.  0.
     999903    2    3    3    0    0 -0.92406947655E-01  0.30368728363E-01  0.89173281011E-01  0.13947898657E+00  0.45179752224E-01 0.  0.
         14    1    1    2    0    0 -0.12536929394E-01 -0.19366378696E-02 -0.54796468471E-02  0.13818527217E-01  0.00000000000E+00 0. -1.
     999901    1    3    3    0    0  0.10494387705E+00 -0.28432090493E-01 -0.83693634164E-01  0.89063248621E+00  0.88000000000E+00 0. -1.
        -11    1    4    4    0    0 -0.32030252042E-01  0.14897893967E-01  0.62264306916E-01  0.71589030775E-01  0.51100000000E-03 0. -1.
         11    1    4    4    0    0 -0.60376695612E-01  0.15470834396E-01  0.26908974095E-01  0.67889955795E-01  0.51100000000E-03 0.  1.
</event>
<event>
 8    1  0.2091070E+004  0.1043930E+01  0.7957747E-01            NaN
         13   -1    0    0    0    0  0.00000000000E+00  0.00000000000E+00  0.74505805969E-08  0.10566000000E+00  0.10566000000E+00 0.  1.
     999900   -1    0    0    0    0 -0.00000000000E+00 -0.00000000000E+00 -0.74505805969E-08  0.93827000000E+00  0.93827000000E+00 0. -1.
     999902    2    1    2    0    0 -0.11571692354E-01  0.28553343179E-02 -0.89956191935E-02  0.10289975467E+01  0.10288891937E+01 0.  0.
     999903    2    3    3    0    0  0.10482999286E+00 -0.27614985564E-01 -0.73324867872E-01  0.13848306337E+00  0.45267071499E-01 0.  0.
         14    1    1    2    0    0  0.11571692354E-01 -0.28553343179E-02  0.89956191935E-02  0.14932453337E-01  0.00000000000E+00 0. -1.
     999901    1    3    3    0    0 -0.11640168521E+00  0.30470319882E-01  0.64329248679E-01  0.89051448329E+00  0.88000000000E+00 0.  1.
        -11    1    4    4    0    0  0.14960628475E-01 -0.11982602578E-01  0.31693659514E-02  0.19434741327E-01  0.51100000000E-03 0.  1.
         11    1    4    4    0    0  0.89869364384E-01 -0.15632382986E-01 -0.76494233824E-01  0.11904832205E+00  0.51100000000E-03 0. -1.
</event>
<event>
 8    1  0.2091070E+004  0.1043930E+01  0.7957747E-01            NaN
         13   -1    0    0    0    0  0.00000000000E+00  0.00000000000E+00  0.74505805969E-08  0.10566000000E+00  0.10566000000E+00 0.  1.
     999900   -1    0    0    0    0 -0.00000000000E+00 -0.00000000000E+00 -0.74505805969E-08  0.93827000000E+00  0.93827000000E+00 0.  1.
     999902    2    1    2    0    0  0.10421446122E-01  0.55597500111E-02 -0.78045549214E-02  0.10297727249E+01  0.10296754035E+01 0.  0.
     999903    2    3    3    0    0  0.31541459449E-01 -0.46881023600E-01  0.11862285875E+00  0.13894166317E+00  0.45174208447E-01 0.  0.
         14    1    1    2    0    0 -0.10421446122E-01 -0.55597500111E-02  0.78045549214E-02  0.14157275055E-01  0.00000000000E+00 0.  1.
     999901    1    3    3    0    0 -0.21120013327E-01  0.52440773611E-01 -0.12642741367E+00  0.89083106178E+00  0.88000000000E+00 0.  1.
        -11    1    4    4    0    0  0.37545903854E-01 -0.37867603445E-01  0.64250113056E-01  0.83498433732E-01  0.51100000000E-03 0.  1.
         11    1    4    4    0    0 -0.60044444051E-02 -0.90134201554E-02  0.54372745689E-01  0.55443229436E-01  0.51100000000E-03 0. -1.
</event>
<event>
 8    1  0.2091070E+004  0.1043930E+01  0.7957747E-01            NaN
         13   -1    0    0    0    0  0.00000000000E+00  0.00000000000E+00  0.74505805969E-08  0.10566000000E+00  0.10566000000E+00 0. -1.
     999900   -1    0    0    0    0 -0.00000000000E+00 -0.00000000000E+00 -0.74505805969E-08  0.93827000000E+00  0.93827000000E+00 0.  1.
     999902    2    1    2    0    0 -0.10371688482E-01  0.57939779433E-02 -0.73026238520E-02  0.10299847349E+01  0.10298903261E+01 0.  0.
     999903    2    3    3    0    0  0.54593604936E-01  0.72751802585E-01 -0.97251507558E-01  0.14049350884E+00  0.44802721183E-01 0.  0.
         14    1    1    2    0    0  0.10371688482E-01 -0.57939779433E-02  0.73026238520E-02  0.13945265056E-01  0.00000000000E+00 0. -1.
     999901    1    3    3    0    0 -0.64965293418E-01 -0.66957824642E-01  0.89948883706E-01  0.88949122610E+00  0.88000000000E+00 0. -1.
        -11    1    4    4    0    0 -0.46702701808E-03  0.16935433953E-01 -0.39901482134E-01  0.43352236792E-01  0.51100000000E-03 0. -1.
         11    1    4    4    0    0  0.55060631954E-01  0.55816368632E-01 -0.57350025424E-01  0.97141272051E-01  0.51100000000E-03 0.  1.
</event>
<event>
 8    1  0.2091070E+004  0.1043930E+01  0.7957747E-01            NaN
         13   -1    0    0    0    0  0.00000000000E+00  0.00000000000E+00  0.74505805969E-08  0.10566000000E+00  0.10566000000E+00 0. -1.
     999900   -1    0    0    0    0 -0.00000000000E+00 -0.00000000000E+00 -0.74505805969E-08  0.93827000000E+00  0.93827000000E+00 0. -1.
     999902    2    1    2    0    0  0.61516662515E-02 -0.11763204915E-01 -0.28133238351E-02  0.10303605203E+01  0.10302711639E+01 0.  0.
     999903    2    3    3    0    0  0.27392561038E-01  0.36036887382E-01  0.12421837248E+00  0.13970173252E+00  0.45137128330E-01 0.  0.
         14    1    1    2    0    0 -0.61516662515E-02  0.11763204915E-01  0.28133238351E-02  0.13569479671E-01  0.00000000000E+00 0.  1.
     999901    1    3    3    0    0 -0.21240894787E-01 -0.47800092297E-01 -0.12703169632E+00  0.89065878781E+00  0.88000000000E+00 0. -1.
        -11    1    4    4    0    0 -0.75826662935E-02  0.18392851341E-01  0.70238320348E-01  0.73003264139E-01  0.51100000000E-03 0. -1.
         11    1    4    4    0    0  0.34975227332E-01  0.17644036040E-01  0.53980052135E-01  0.66698468379E-01  0.51100000000E-03 0.  1.
</event>
<event>
 8    1  0.2091070E+004  0.1043930E+01  0.7957747E-01            NaN
         13   -1    0    0    0    0  0.00000000000E+00  0.00000000000E+00  0.74505805969E-08  0.10566000000E+00  0.10566000000E+00 0.  1.
     999900   -1    0    0    0    0 -0.00000000000E+00 -0.00000000000E+00 -0.74505805969E-08  0.93827000000E+00  0.93827000000E+00 0.  1.
     999902    2    1    2    0    0 -0.67064270145E-02 -0.32780768866E-02 -0.14026239444E-01  0.10280410937E+01  0.10279183007E+01 0.  0.
     999903    2    3    3    0    0 -0.54175284394E-02  0.26235631242E-01 -0.12928131910E+00  0.14003408153E+00  0.46671474811E-01 0.  0.
         14    1    1    2    0    0  0.67064270145E-02  0.32780768866E-02  0.14026239444E-01  0.15888906328E-01  0.00000000000E+00 0.  1.
     999901    1    3    3    0    0 -0.12888985751E-02 -0.29513708129E-01  0.11525507965E+00  0.88800701214E+00  0.88000000000E+00 0. -1.
        -11    1    4    4    0    0  0.19373147195E-01  0.20576131942E-01 -0.72583885341E-01  0.77893373082E-01  0.51100000000E-03 0.  1.
         11    1    4    4    0    0 -0.24790675634E-01  0.56594993004E-02 -0.56697433757E-01  0.62140708448E-01  0.51100000000E-03 0. -1.
</event>
<event>
 8    1  0.2091070E+004  0.1043930E+01  0.7957747E-01            NaN
         13   -1    0    0    0    0  0.00000000000E+00  0.00000000000E+00  0.74505805969E-08  0.10566000000E+00  0.10566000000E+00 0.  1.
     999900   -1    0    0    0    0 -0.00000000000E+00 -0.00000000000E+00 -0.74505805969E-08  0.93827000000E+00  0.93827000000E+00 0. -1.
     999902    2    1    2    0    0 -0.97328475259E-02  0.84737038168E-02 -0.29882539261E-02  0.10306838066E+01  0.10305986841E+01 0.  0.
     999903    2    3    3    0    0 -0.10785200590E+00 -0.17903513042E-01 -0.77995120284E-01  0.14166797054E+00  0.45099713240E-01 0.  0.
         14    1    1    2    0    0  0.97328475259E-02 -0.84737038168E-02  0.29882539261E-02  0.13246193373E-01  0.00000000000E+00 0. -1.
     999901    1    3    3    0    0  0.98119158371E-01  0.26377216858E-01  0.75006866357E-01  0.88901583608E+00  0.88000000000E+00 0.  1.
        -11    1    4    4    0    0 -0.69022994324E-01 -0.72878409967E-02 -0.73609324873E-01  0.10117252691E+00  0.51100000000E-03 0.  1.
         11    1    4    4    0    0 -0.38829011573E-01 -0.10615672045E-01 -0.43857954102E-02  0.40495443633E-01  0.51100000000E-03 0. -1.
</event>
<event>
 7    1  0.2091070E+004  0.1043930E+01  0.7957747E-01            NaN
         13   -1    0    0    0    0  0.00000000000E+00  0.00000000000E+00  0.74505805969E-08  0.10566000000E+00  0.10566000000E+00 0. -1.
     999900   -1    0    0    0    0 -0.00000000000E+00 -0.00000000000E+00 -0.74505805969E-08  0.93827000000E+00  0.93827000000E+00 0.  1.
     999903    2    1    2    0    0  0.85856657941E-01  0.29560461152E-01 -0.62462846548E-01  0.11902857204E+00  0.44955613511E-01 0.  0.
         14    1    1    2    0    0 -0.45472762861E-03  0.22697303793E-01  0.31312849152E-01  0.38676464403E-01  0.00000000000E+00 0. -1.
     999901    1    1    2    0    0 -0.85401930312E-01 -0.52257764946E-01  0.31149997395E-01  0.88622496356E+00  0.88000000000E+00 0. -1.
        -11    1    3    3    0    0  0.21586883552E-01  0.13886551592E-01 -0.42980497123E-01  0.50064100018E-01  0.51100000000E-03 0. -1.
         11    1    3    3    0    0  0.64269774389E-01  0.15673909560E-01 -0.19482349424E-01  0.68964472020E-01  0.51100000000E-03 0.  1.
</event>
<event>
 8    1  0.2091070E+004  0.1043930E+01  0.7957747E-01            NaN
         13   -1    0    0    0    0  0.00000000000E+00  0.00000000000E+00  0.74505805969E-08  0.10566000000E+00  0.10566000000E+00 0. -1.
     999900   -1    0    0    0    0 -0.00000000000E+00 -0.00000000000E+00 -0.74505805969E-08  0.93827000000E+00  0.93827000000E+00 0. -1.
     999902    2    1    2    0    0  0.29406379457E-02 -0.40409328416E-02  0.12793779442E-01  0.10301947431E+01  0.10301031751E+01 0.  0.
     999903    2    3    3    0    0  0.12901652787E-01  0.71647975449E-01 -0.10883070752E+00  0.13855549515E+00  0.45316854547E-01 0.  0.
         14    1    1    2    0    0 -0.29406379457E-02  0.40409328416E-02 -0.12793779442E-01  0.13735256902E-01  0.00000000000E+00 0.  1.
     999901    1    3    3    0    0 -0.99610148417E-02 -0.75688908290E-01  0.12162448696E+00  0.89163924795E+00  0.88000000000E+00 0.  1.
        -11    1    4    4    0    0  0.13904969843E-01  0.18568752477E-01 -0.67185752317E-01  0.71079766392E-01  0.51100000000E-03 0.  1.
         11    1    4    4    0    0 -0.10033170558E-02  0.53079222972E-01 -0.41644955203E-01  0.67475728757E-01  0.51100000000E-03 0. -1.
</event>
<event>
 8    1  0.2091070E+004  0.1043930E+01  0.7957747E-01            NaN
         13   -1    0    0    0    0  0.00000000000E+00  0.00000000000E+00  0.74505805969E-08  0.10566000000E+00  0.10566000000E+00 0.  1.
     999900   -1    0    0    0    0 -0.00000000000E+00 -0.00000000000E+00 -0.74505805969E-08  0.93827000000E+00  0.93827000000E+00 0.  1.
     999902    2    1    2    0    0  0.97214979654E-02 -0.36081373784E-02 -0.94035772861E-02  0.10299316628E+01  0.10298365291E+01 0.  0.
     999903    2    3    3    0    0 -0.98929035530E-01 -0.83097387194E-01  0.24384927174E-01  0.13905280332E+00  0.45265081568E-01 0.  0.
         14    1    1    2    0    0 -0.97214979654E-02  0.36081373784E-02  0.94035772861E-02  0.13998337180E-01  0.00000000000E+00 0.  1.
     999901    1    3    3    0    0  0.10865053350E+00  0.79489249815E-01 -0.33788504460E-01  0.89087885950E+00  0.88000000000E+00 0. -1.
        -11    1    4    4    0    0 -0.28815472123E-01 -0.45081074279E-01 -0.57003340188E-02  0.53808824748E-01  0.51100000000E-03 0. -1.
         11    1    4    4    0    0 -0.70113563407E-01 -0.38016312914E-01  0.30085261193E-01  0.85243978574E-01  0.51100000000E-03 0.  1.
</event>
<event>
 8    1  0.2091070E+004  0.1043930E+01  0.7957747E-01            NaN
         13   -1    0    0    0    0  0.00000000000E+00  0.00000000000E+00  0.74505805969E-08  0.10566000000E+00  0.10566000000E+00 0. -1.
     999900   -1    0    0    0    0 -0.00000000000E+00 -0.00000000000E+00 -0.74505805969E-08  0.93827000000E+00  0.93827000000E+00 0.  1.
     999902    2    1    2    0    0 -0.10245874567E-01 -0.13328806109E-02  0.86627953445E-02  0.10304467311E+01  0.10303585139E+01 0.  0.
     999903    2    3    3    0    0  0.57580042839E-01 -0.72333089359E-02 -0.11777075025E+00  0.13880744779E+00  0.45053033830E-01 0.  0.
         14    1    1    2    0    0  0.10245874567E-01  0.13328806109E-02 -0.86627953445E-02  0.13483268875E-01  0.00000000000E+00 0.  1.
     999901    1    3    3    0    0 -0.67825917406E-01  0.59004283251E-02  0.12643354559E+00  0.89163928333E+00  0.88000000000E+00 0. -1.
        -11    1    4    4    0    0  0.36745596862E-01 -0.81297188228E-02 -0.11047179326E+00  0.11670736671E+00  0.51100000000E-03 0.  1.
         11    1    4    4    0    0  0.20834445977E-01  0.89640988693E-03 -0.72989569894E-02  0.22100081086E-01  0.51100000000E-03 0. -1.
</event>
<event>
 8    1  0.2091070E+004  0.1043930E+01  0.7957747E-01            NaN
         13   -1    0    0    0    0  0.00000000000E+00  0.00000000000E+00  0.74505805969E-08  0.10566000000E+00  0.10566000000E+00 0.  1.
     999900   -1    0    0    0    0 -0.00000000000E+00 -0.00000000000E+00 -0.74505805969E-08  0.93827000000E+00  0.93827000000E+00 0. -1.
     999902    2    1    2    0    0  0.28149791747E-02  0.41883376357E-02  0.14132909676E-01  0.10289231544E+01  0.10288137111E+01 0.  0.
     999903    2    3    3    0    0  0.47915183772E-03 -0.11857509034E+00 -0.59264874069E-01  0.13737195001E+00  0.36033952266E-01 0.  0.
         14    1    1    2    0    0 -0.28149791747E-02 -0.41883376357E-02 -0.14132909676E-01  0.15006845632E-01  0.00000000000E+00 0. -1.
     999901    1    3    3    0    0  0.23358273370E-02  0.12276342797E+00  0.73397783746E-01  0.89155120436E+00  0.88000000000E+00 0.  1.
        -11    1    4    4    0    0 -0.62354362087E-02 -0.18195912661E-01 -0.24010207249E-01  0.30768865358E-01  0.51100000000E-03 0. -1.
         11    1    4    4    0    0  0.67145880464E-02 -0.10037917768E+00 -0.35254666821E-01  0.10660308465E+00  0.51100000000E-03 0.  1.
</event>
<event>
 8    1  0.2091070E+004  0.1043930E+01  0.7957747E-01            NaN
         13   -1    0    0    0    0  0.00000000000E+00  0.00000000000E+00  0.74505805969E-08  0.10566000000E+00  0.10566000000E+00 0. -1.
     999900   -1    0    0    0    0 -0.00000000000E+00 -0.00000000000E+00 -0.74505805969E-08  0.93827000000E+00  0.93827000000E+00 0. -1.
     999902    2    1    2    0    0  0.28094213500E-02 -0.13330836796E-01  0.29537634081E-02  0.10299898143E+01  0.10298954747E+01 0.  0.
     999903    2    3    3    0    0  0.10058143931E+00  0.79819879445E-01 -0.27618440802E-01  0.13916374652E+00  0.45999249825E-01 0.  0.
         14    1    1    2    0    0 -0.28094213500E-02  0.13330836796E-01 -0.29537634081E-02  0.13940185661E-01  0.00000000000E+00 0.  1.
     999901    1    3    3    0    0 -0.97772017964E-01 -0.93150716240E-01  0.30572204210E-01  0.89082606782E+00  0.88000000000E+00 0.  1.
        -11    1    4    4    0    0  0.16944634247E-01  0.40339159866E-01 -0.11935650941E-01  0.45355146707E-01  0.51100000000E-03 0. -1.
         11    1    4    4    0    0  0.83636805067E-01  0.39480719579E-01 -0.15682789861E-01  0.93808599814E-01  0.51100000000E-03 0.  1.
</event>
<event>
 8    1  0.2091070E+004  0.1043930E+01  0.7957747E-01            NaN
         13   -1    0    0    0    0  0.00000000000E+00  0.00000000000E+00  0.74505805969E-08  0.10566000000E+00  0.10566000000E+00 0. -1.
     999900   -1    0    0    0    0 -0.00000000000E+00 -0.00000000000E+00 -0.74505805969E-08  0.93827000000E+00  0.93827000000E+00 0. -1.
     999902    2    1    2    0    0 -0.82460218517E-02  0.10075434427E-01 -0.61811686336E-02  0.10295175713E+01  0.10294166851E+01 0.  0.
     999903    2    3    3    0    0 -0.10716808541E+00  0.48612887621E-01  0.62241654522E-01  0.14049991530E+00  0.44922057717E-01 0.  0.
         14    1    1    2    0    0  0.82460218517E-02 -0.10075434427E-01  0.61811686336E-02  0.14412428697E-01  0.00000000000E+00 0. -1.
     999901    1    3    3    0    0  0.98922063554E-01 -0.38537453194E-01 -0.68422823155E-01  0.88901765600E+00  0.88000000000E+00 0. -1.
        -11    1    4    4    0    0 -0.81046054419E-01  0.15973331440E-01  0.51457289734E-01  0.97322782749E-01  0.51100000000E-03 0. -1.
         11    1    4    4    0    0 -0.26122030986E-01  0.32639556180E-01  0.10784364788E-01  0.43177132551E-01  0.51100000000E-03 0.  1.
</event>
<event>
 8    1  0.2091070E+004  0.1043930E+01  0.7957747E-01            NaN
         13   -1    0    0    0    0  0.00000000000E+00  0.00000000000E+00  0.74505805969E-08  0.10566000000E+00  0.10566000000E+00 0. -1.
     999900   -1    0    0    0    0 -0.00000000000E+00 -0.00000000000E+00 -0.74505805969E-08  0.93827000000E+00  0.93827000000E+00 0. -1.
     999902    2    1    2    0    0 -0.25720988732E-02  0.18893546723E-01 -0.32964528093E-03  0.10248593297E+01  0.10246818800E+01 0.  0.
     999903    2    3    3    0    0 -0.83615999695E-01 -0.77174674755E-01  0.55742895719E-01  0.13416221680E+00  0.44098346514E-01 0.  0.
         14    1    1    2    0    0  0.25720988732E-02 -0.18893546723E-01  0.32964528093E-03  0.19070670319E-01  0.00000000000E+00 0. -1.
     999901    1    3    3    0    0  0.81043900822E-01  0.96068221478E-01 -0.56072541000E-01  0.89069711288E+00  0.88000000000E+00 0. -1.
        -11    1    4    4    0    0 -0.12464107494E-01 -0.24345824056E-01  0.32623279800E-01  0.42574788672E-01  0.51100000000E-03 0. -1.
         11    1    4    4    0    0 -0.71151892202E-01 -0.52828850699E-01  0.23119615920E-01  0.91587428129E-01  0.51100000000E-03 0.  1.
</event>
<event>
 8    1  0.2091070E+004  0.1043930E+01  0.7957747E-01            NaN
         13   -1    0    0    0    0  0.00000000000E+00  0.00000000000E+00  0.74505805969E-08  0.10566000000E+00  0.10566000000E+00 0. -1.
     999900   -1    0    0    0    0 -0.00000000000E+00 -0.00000000000E+00 -0.74505805969E-08  0.93827000000E+00  0.93827000000E+00 0.  1.
     999902    2    1    2    0    0  0.10260513376E-01 -0.63306123216E-02  0.61345283032E-02  0.10304027229E+01  0.10303139251E+01 0.  0.
     999903    2    3    3    0    0  0.10854862259E+00 -0.82036751319E-03 -0.77920552452E-01  0.14093312154E+00  0.44800176153E-01 0.  0.
         14    1    1    2    0    0 -0.10260513376E-01  0.63306123216E-02 -0.61345283032E-02  0.13527277058E-01  0.00000000000E+00 0.  1.
     999901    1    3    3    0    0 -0.98288109219E-01 -0.55102448084E-02  0.84055080755E-01  0.88946960140E+00  0.88000000000E+00 0. -1.
        -11    1    4    4    0    0  0.49367017776E-01 -0.20037013333E-01 -0.23365650042E-01  0.58179026034E-01  0.51100000000E-03 0. -1.
         11    1    4    4    0    0  0.59181604819E-01  0.19216645820E-01 -0.54554902411E-01  0.82754095509E-01  0.51100000000E-03 0.  1.
</event>
<event>
 8    1  0.2091070E+004  0.1043930E+01  0.7957747E-01            NaN
         13   -1    0    0    0    0  0.00000000000E+00  0.00000000000E+00  0.74505805969E-08  0.10566000000E+00  0.10566000000E+00 0.  1.
     999900   -1    0    0    0    0 -0.00000000000E+00 -0.00000000000E+00 -0.74505805969E-08  0.93827000000E+00  0.93827000000E+00 0.  1.
     999902    2    1    2    0    0  0.67533978633E-02  0.10833965704E-01 -0.51543268442E-02  0.10301622739E+01  0.10300702696E+01 0.  0.
     999903    2    3    3    0    0  0.89646702845E-01 -0.44630010143E-01  0.86390745798E-01  0.13980950512E+00  0.45331750747E-01 0.  0.
         14    1    1    2    0    0 -0.67533978633E-02 -0.10833965704E-01  0.51543268442E-02  0.13767726057E-01  0.00000000000E+00 0.  1.
     999901    1    3    3    0    0 -0.82893304982E-01  0.55463975847E-01 -0.91545072642E-01  0.89035276882E+00  0.88000000000E+00 0.  1.
        -11    1    4    4    0    0  0.51166445439E-01 -0.16136692373E-01  0.18544640150E-01  0.56767620867E-01  0.51100000000E-03 0.  1.
         11    1    4    4    0    0  0.38480257406E-01 -0.28493317769E-01  0.67846105647E-01  0.83041884251E-01  0.51100000000E-03 0. -1.
</event>
<event>
 8    1  0.2091070E+004  0.1043930E+01  0.7957747E-01            NaN
         13   -1    0    0    0    0  0.00000000000E+00  0.00000000000E+00  0.74505805969E-08  0.10566000000E+00  0.10566000000E+00 0. -1.
     999900   -1    0    0    0    0 -0.00000000000E+00 -0.00000000000E+00 -0.74505805969E-08  0.93827000000E+00  0.93827000000E+00 0. -1.
     999902    2    1    2    0    0  0.44094504842E-02  0.14761162535E-01 -0.88807937214E-02  0.10261478834E+01  0.10259937987E+01 0.  0.
     999903    2    3    3    0    0 -0.10347202732E+00 -0.53973610550E-01 -0.52581471099E-01  0.13582623846E+00  0.45435062197E-01 0.  0.
         14    1    1    2    0    0 -0.44094504842E-02 -0.14761162535E-01  0.88807937214E-02  0.17782116581E-01  0.00000000000E+00 0. -1.
     999901    1    3    3    0    0  0.10788147781E+00  0.68734773085E-01  0.43700677377E-01  0.89032164496E+00  0.88000000000E+00 0. -1.
        -11    1    4    4    0    0 -0.35726677150E-01 -0.11146387017E-01  0.41106462022E-02  0.37653631126E-01  0.51100000000E-03 0.  1.
         11    1    4    4    0    0 -0.67745350171E-01 -0.42827223533E-01 -0.56692117301E-01  0.98172607332E-01  0.51100000000E-03 0. -1.
</event>
<event>
 8    1  0.2091070E+004  0.1043930E+01  0.7957747E-01            NaN
         13   -1    0    0    0    0  0.00000000000E+00  0.00000000000E+00  0.74505805969E-08  0.10566000000E+00  0.10566000000E+00 0.  1.
     999900   -1    0    0    0    0 -0.00000000000E+00 -0.00000000000E+00 -0.74505805969E-08  0.93827000000E+00  0.93827000000E+00 0.  1.
     999902    2    1    2    0    0  0.30799715571E-02  0.14815209471E-01  0.40244295817E-02  0.10282720088E+01  0.10281527860E+01 0.  0.
     999903    2    3    3    0    0 -0.11407655900E+00  0.60362071553E-01 -0.77476964758E-02  0.13926202442E+00  0.51738222308E-01 0.  0.
         14    1    1    2    0    0 -0.30799715571E-02 -0.14815209471E-01 -0.40244295817E-02  0.15657991248E-01  0.00000000000E+00 0.  1.
     999901    1    3    3    0    0  0.11715653056E+00 -0.45546862082E-01  0.11772126057E-01  0.88900998434E+00  0.88000000000E+00 0.  1.
        -11    1    4    4    0    0 -0.63331946688E-01  0.26738391409E-01  0.21079377754E-01  0.71906038230E-01  0.51100000000E-03 0. -1.
         11    1    4    4    0    0 -0.50744612315E-01  0.33623680144E-01 -0.28827074230E-01  0.67355986186E-01  0.51100000000E-03 0.  1.
</event>
<event>
 8    1  0.2091070E+004  0.1043930E+01  0.7957747E-01            NaN
         13   -1    0    0    0    0  0.00000000000E+00  0.00000000000E+00  0.74505805969E-08  0.10566000000E+00  0.10566000000E+00 0. -1.
     999900   -1    0    0    0    0 -0.00000000000E+00 -0.00000000000E+00 -0.74505805969E-08  0.93827000000E+00  0.93827000000E+00 0.  1.
     999902    2    1    2    0    0 -0.92627011420E-02  0.10142237887E-01  0.36796212695E-03  0.10301896209E+01  0.10300979842E+01 0.  0.
     999903    2    3    3    0    0 -0.87500367411E-01  0.92582645062E-01 -0.44732174656E-01  0.14173502133E+00  0.43127582325E-01 0.  0.
         14    1    1    2    0    0  0.92627011420E-02 -0.10142237887E-01 -0.36796212695E-03  0.13740379105E-01  0.00000000000E+00 0.  1.
     999901    1    3    3    0    0  0.78237666269E-01 -0.82440407174E-01  0.45100136783E-01  0.88845459957E+00  0.88000000000E+00 0.  1.
        -11    1    4    4    0    0 -0.55649147282E-01  0.59153814696E-01 -0.59531539415E-02  0.81435266004E-01  0.51100000000E-03 0. -1.
         11    1    4    4    0    0 -0.31851220129E-01  0.33428830366E-01 -0.38779020714E-01  0.60299755322E-01  0.51100000000E-03 0.  1.
</event>
<event>
 8    1  0.2091070E+004  0.1043930E+01  0.7957747E-01            NaN
         13   -1    0    0    0    0  0.00000000000E+00  0.00000000000E+00  0.74505805969E-08  0.10566000000E+00  0.10566000000E+00 0. -1.
     999900   -1    0    0    0    0 -0.00000000000E+00 -0.00000000000E+00 -0.74505805969E-08  0.93827000000E+00  0.93827000000E+00 0.  1.
     999902    2    1    2    0    0  0.12822181186E-01 -0.23820506515E-02 -0.36157152484E-02  0.10303964900E+01  0.10303076098E+01 0.  0.
     999903    2    3    3    0    0  0.97820553962E-01 -0.85162624115E-01 -0.36793767897E-01  0.14181440045E+00  0.44000107914E-01 0.  0.
         14    1    1    2    0    0 -0.12822181186E-01  0.23820506515E-02  0.36157152484E-02  0.13533509982E-01  0.00000000000E+00 0.  1.
     999901    1    3    3    0    0 -0.84998372776E-01  0.82780573463E-01  0.33178052648E-01  0.88858208956E+00  0.88000000000E+00 0. -1.
        -11    1    4    4    0    0  0.43592319318E-01 -0.13195339415E-01 -0.21673825717E-01  0.50442275207E-01  0.51100000000E-03 0. -1.
         11    1    4    4    0    0  0.54228234644E-01 -0.71967284700E-01 -0.15119942179E-01  0.91372125247E-01  0.51100000000E-03 0.  1.
</event>
<event>
 8    1  0.2091070E+004  0.1043930E+01  0.7957747E-01            NaN
         13   -1    0    0    0    0  0.00000000000E+00  0.00000000000E+00  0.74505805969E-08  0.10566000000E+00  0.10566000000E+00 0. -1.
     999900   -1    0    0    0    0 -0.00000000000E+00 -0.00000000000E+00 -0.74505805969E-08  0.93827000000E+00  0.93827000000E+00 0. -1.
     999902    2    1    2    0    0  0.43038616150E-02 -0.10855929615E-01  0.79422437548E-02  0.10298071933E+01  0.10297103485E+01 0.  0.
     999903    2    3    3    0    0  0.12948962872E+00 -0.23809970587E-01 -0.21707989114E-01  0.14035881383E+00  0.43530232987E-01 0.  0.
         14    1    1    2    0    0 -0.43038616150E-02  0.10855929615E-01 -0.79422437548E-02  0.14122806678E-01  0.00000000000E+00 0. -1.
     999901    1    3    3    0    0 -0.12518576711E+00  0.12954040972E-01  0.29650232869E-01  0.88944837949E+00  0.88000000000E+00 0.  1.
        -11    1    4    4    0    0  0.30527847295E-01 -0.24778582053E-01 -0.15078769083E-02  0.39350507021E-01  0.51100000000E-03 0.  1.
         11    1    4    4    0    0  0.98961781427E-01  0.96861146585E-03 -0.20200112206E-01  0.10100830681E+00  0.51100000000E-03 0. -1.
</event>
<event>
 8    1  0.2091070E+004  0.1043930E+01  0.7957747E-01            NaN
         13   -1    0    0    0    0  0.00000000000E+00  0.00000000000E+00  0.74505805969E-08  0.10566000000E+00  0.10566000000E+00 0. -1.
     999900   -1    0    0    0    0 -0.00000000000E+00 -0.00000000000E+00 -0.74505805969E-08  0.93827000000E+00  0.93827000000E+00 0.  1.
     999902    2    1    2    0    0 -0.15814656127E-02 -0.14428242302E-01 -0.42743033320E-04  0.10294152821E+01  0.10293129485E+01 0.  0.
     999903    2    3    3    0    0  0.51770113660E-01 -0.12696590215E+00  0.29251775836E-02  0.14064088750E+00  0.31157945948E-01 0.  0.
         14    1    1    2    0    0  0.15814656127E-02  0.14428242302E-01  0.42743033320E-04  0.14514717923E-01  0.00000000000E+00 0.  1.
     999901    1    3    3    0    0 -0.53351579272E-01  0.11253765985E+00 -0.29679206169E-02  0.88877439457E+00  0.88000000000E+00 0. -1.
        -11    1    4    4    0    0  0.11424544775E-02 -0.39654147316E-01  0.14603704644E-02  0.39700760754E-01  0.51100000000E-03 0.  1.
         11    1    4    4    0    0  0.50627659182E-01 -0.87311754839E-01  0.14648071192E-02  0.10094012675E+00  0.51100000000E-03 0. -1.
</event>
<event>
 8    1  0.2091070E+004  0.1043930E+01  0.7957747E-01            NaN
         13   -1    0    0    0    0  0.00000000000E+00  0.00000000000E+00  0.74505805969E-08  0.10566000000E+00  0.10566000000E+00 0. -1.
     999900   -1    0    0    0    0 -0.00000000000E+00 -0.00000000000E+00 -0.74505805969E-08  0.93827000000E+00  0.93827000000E+00 0.  1.
     999902    2    1    2    0    0  0.23540327208E-02  0.12129177467E-01 -0.50614004565E-02  0.10305779893E+01  0.10304914923E+01 0.  0.
     999903    2    3    3    0    0 -0.12217839868E+00 -0.30935060653E-01 -0.42166743463E-01  0.13999410127E+00  0.43997443715E-01 0.  0.
         14    1    1    2    0    0 -0.23540327208E-02 -0.12129177467E-01  0.50614004565E-02  0.13352010735E-01  0.00000000000E+00 0. -1.
     999901    1    3    3    0    0  0.12453243141E+00  0.43064238120E-01  0.37105343006E-01  0.89058388799E+00  0.88000000000E+00 0.  1.
        -11    1    4    4    0    0 -0.88273547276E-01 -0.19125316875E-01 -0.50006225816E-01  0.10324185506E+00  0.51100000000E-03 0. -1.
         11    1    4    4    0    0 -0.33904851409E-01 -0.11809743779E-01  0.78394823531E-02  0.36752246213E-01  0.51100000000E-03 0.  1.
</event>
<event>
 8    1  0.2091070E+004  0.1043930E+01  0.7957747E-01            NaN
         13   -1    0    0    0    0  0.00000000000E+00  0.00000000000E+00  0.74505805969E-08  0.10566000000E+00  0.10566000000E+00 0.  1.
     999900   -1    0    0    0    0 -0.00000000000E+00 -0.00000000000E+00 -0.74505805969E-08  0.93827000000E+00  0.93827000000E+00 0. -1.
     999902    2    1    2    0    0 -0.12405153448E-01  0.63789593244E-02  0.62445969338E-02  0.10286468738E+01  0.10285333330E+01 0.  0.
     999903    2    3    3    0    0  0.43496091214E-01  0.43175128679E-01  0.11669667168E+00  0.13922089714E+00  0.44814543754E-01 0.  0.
         14    1    1    2    0    0  0.12405153448E-01 -0.63789593244E-02 -0.62445969338E-02  0.15283126153E-01  0.00000000000E+00 0. -1.
     999901    1    3    3    0    0 -0.55901244662E-01 -0.36796169354E-01 -0.11045207474E+00  0.88942597671E+00  0.88000000000E+00 0. -1.
        -11    1    4    4    0    0  0.41160069014E-01  0.48302641199E-01  0.80121011287E-01  0.10221024410E+00  0.51100000000E-03 0. -1.
         11    1    4    4    0    0  0.23360221997E-02 -0.51275125206E-02  0.36575660389E-01  0.37010653037E-01  0.51100000000E-03 0.  1.
</event>
<event>
 8    1  0.2091070E+004  0.1043930E+01  0.7957747E-01            NaN
         13   -1    0    0    0    0  0.00000000000E+00  0.00000000000E+00  0.74505805969E-08  0.10566000000E+00  0.10566000000E+00 0.  1.
     999900   -1    0    0    0    0 -0.00000000000E+00 -0.00000000000E+00 -0.74505805969E-08  0.93827000000E+00  0.93827000000E+00 0. -1.
     999902    2    1    2    0    0  0.63686061660E-02  0.50067550097E-03 -0.12672499009E-01  0.10297383809E+01  0.10296405835E+01 0.  0.
     999903    2    3    3    0    0 -0.46399092517E-01 -0.37515378587E-01  0.11637659650E+00  0.13795179243E+00  0.43896530676E-01 0.  0.
         14    1    1    2    0    0 -0.63686061660E-02 -0.50067550097E-03  0.12672499009E-01  0.14191619062E-01  0.00000000000E+00 0.  1.
     999901    1    3    3    0    0  0.52767698683E-01  0.38016054088E-01 -0.12904909551E+00  0.89178658851E+00  0.88000000000E+00 0. -1.
        -11    1    4    4    0    0  0.82941979446E-02 -0.90311113047E-02  0.22556162835E-01  0.25678712853E-01  0.51100000000E-03 0. -1.
         11    1    4    4    0    0 -0.54693290461E-01 -0.28484267282E-01  0.93820433663E-01  0.11227307958E+00  0.51100000000E-03 0.  1.
</event>
<event>
 8    1  0.2091070E+004  0.1043930E+01  0.7957747E-01            NaN
         13   -1    0    0    0    0  0.00000000000E+00  0.00000000000E+00  0.74505805969E-08  0.10566000000E+00  0.10566000000E+00 0. -1.
     999900   -1    0    0    0    0 -0.00000000000E+00 -0.00000000000E+00 -0.74505805969E-08  0.93827000000E+00  0.93827000000E+00 0. -1.
     999902    2    1    2    0    0  0.28586382015E-02 -0.12232988534E-01  0.87176601543E-02  0.10286389759E+01  0.10285253168E+01 0.  0.
     999903    2    3    3    0    0 -0.45911926097E-01 -0.27763071316E-01  0.12107767608E+00  0.14001952716E+00  0.45463955559E-01 0.  0.
         14    1    1    2    0    0 -0.28586382015E-02  0.12232988534E-01 -0.87176601543E-02  0.15291024145E-01  0.00000000000E+00 0. -1.
     999901    1    3    3    0    0  0.48770564298E-01  0.15530082782E-01 -0.11236001593E+00  0.88861944869E+00  0.88000000000E+00 0. -1.
        -11    1    4    4    0    0 -0.19538839706E-01 -0.36225993321E-01  0.85816917566E-01  0.95178218678E-01  0.51100000000E-03 0. -1.
         11    1    4    4    0    0 -0.26373086391E-01  0.84629220054E-02  0.35260758516E-01  0.44841308486E-01  0.51100000000E-03 0.  1.
</event>
<event>
 8    1  0.2091070E+004  0.1043930E+01  0.7957747E-01            NaN
         13   -1    0    0    0    0  0.00000000000E+00  0.00000000000E+00  0.74505805969E-08  0.10566000000E+00  0.10566000000E+00 0. -1.
     999900   -1    0    0    0    0 -0.00000000000E+00 -0.00000000000E+00 -0.74505805969E-08  0.93827000000E+00  0.93827000000E+00 0. -1.
     999902    2    1    2    0    0 -0.12918710012E-01  0.37267694686E-02  0.60895927450E-03  0.10304707017E+01  0.10303827999E+01 0.  0.
     999903    2    3    3    0    0 -0.36955889112E-01  0.11728448475E+00  0.53633703652E-01  0.14126613346E+00  0.44251081256E-01 0.  0.
         14    1    1    2    0    0  0.12918710012E-01 -0.37267694686E-02 -0.60895927450E-03  0.13459298289E-01  0.00000000000E+00 0. -1.
     999901    1    3    3    0    0  0.24037179100E-01 -0.11355771528E+00 -0.53024744377E-01  0.88920456825E+00  0.88000000000E+00 0. -1.
        -11    1    4    4    0    0 -0.30341490622E-01  0.45354905329E-01  0.63659971245E-02  0.54940518117E-01  0.51100000000E-03 0. -1.
         11    1    4    4    0    0 -0.66143984900E-02  0.71929579423E-01  0.47267706527E-01  0.86325615345E-01  0.51100000000E-03 0.  1.
</event>
<event>
 8    1  0.2091070E+004  0.1043930E+01  0.7957747E-01            NaN
         13   -1    0    0    0    0  0.00000000000E+00  0.00000000000E+00  0.74505805969E-08  0.10566000000E+00  0.10566000000E+00 0. -1.
     999900   -1    0    0    0    0 -0.00000000000E+00 -0.00000000000E+00 -0.74505805969E-08  0.93827000000E+00  0.93827000000E+00 0.  1.
     999902    2    1    2    0    0 -0.19064832193E-02  0.42412518855E-02 -0.13429371096E-01  0.10297183532E+01  0.10296202776E+01 0.  0.
     999903    2    3    3    0    0 -0.56783746104E-01  0.11907414280E+00 -0.18455446704E-01  0.14054830861E+00  0.44835011258E-01 0.  0.
         14    1    1    2    0    0  0.19064832193E-02 -0.42412518855E-02  0.13429371096E-01  0.14211646768E-01  0.00000000000E+00 0. -1.
     999901    1    3    3    0    0  0.54877262885E-01 -0.11483289092E+00  0.50260756084E-02  0.88917004462E+00  0.88000000000E+00 0.  1.
        -11    1    4    4    0    0  0.73223627686E-03  0.32823830436E-01 -0.16756587503E-01  0.36864405057E-01  0.51100000000E-03 0. -1.
         11    1    4    4    0    0 -0.57515982381E-01  0.86250312366E-01 -0.16988592011E-02  0.10368390355E+00  0.51100000000E-03 0.  1.
</event>
<event>
 8    1  0.2091070E+004  0.1043930E+01  0.7957747E-01            NaN
         13   -1    0    0    0    0  0.00000000000E+00  0.00000000000E+00  0.74505805969E-08  0.10566000000E+00  0.10566000000E+00 0.  1.
     999900   -1    0    0    0    0 -0.00000000000E+00 -0.00000000000E+00 -0.74505805969E-08  0.93827000000E+00  0.93827000000E+00 0.  1.
     999902    2    1    2    0    0 -0.14591667003E-01  0.22501879989E-02  0.37256702594E-02  0.10287030269E+01  0.10285903250E+01 0.  0.
     999903    2    3    3    0    0  0.10237824004E+00  0.52938272856E-01 -0.59577427652E-01  0.13726681305E+00  0.44821237297E-01 0.  0.
         14    1    1    2    0    0  0.14591667003E-01 -0.22501879989E-02 -0.37256702594E-02  0.15226973134E-01  0.00000000000E+00 0. -1.
     999901    1    3    3    0    0 -0.11696990704E+00 -0.50688084857E-01  0.63303097911E-01  0.89143621382E+00  0.88000000000E+00 0. -1.
        -11    1    4    4    0    0  0.26222337720E-01  0.25250561243E-01 -0.39627561665E-01  0.53812699273E-01  0.51100000000E-03 0.  1.
         11    1    4    4    0    0  0.76155902317E-01  0.27687711613E-01 -0.19949865987E-01  0.83454113776E-01  0.51100000000E-03 0. -1.
</event>
<event>
 8    1  0.2091070E+004  0.1043930E+01  0.7957747E-01            NaN
         13   -1    0    0    0    0  0.00000000000E+00  0.00000000000E+00  0.74505805969E-08  0.10566000000E+00  0.10566000000E+00 0.  1.
     999900   -1    0    0    0    0 -0.00000000000E+00 -0.00000000000E+00 -0.74505805969E-08  0.93827000000E+00  0.93827000000E+00 0.  1.
     999902    2    1    2    0    0  0.52683041592E-02  0.25533027530E-02  0.11775797250E-01  0.10307791907E+01  0.10306952975E+01 0.  0.
     999903    2    3    3    0    0 -0.59830791746E-02  0.13223038495E+00 -0.16410493072E-01  0.14075828859E+00  0.44976878326E-01 0.  0.
         14    1    1    2    0    0 -0.52683041592E-02 -0.25533027530E-02 -0.11775797250E-01  0.13150809273E-01  0.00000000000E+00 0. -1.
     999901    1    3    3    0    0  0.11251383334E-01 -0.12967708220E+00  0.28186290323E-01  0.89002090213E+00  0.88000000000E+00 0. -1.
        -11    1    4    4    0    0 -0.19370460923E-01  0.24609673008E-01 -0.25843423419E-02  0.31429137886E-01  0.51100000000E-03 0.  1.
         11    1    4    4    0    0  0.13387381748E-01  0.10762071194E+00 -0.13826150730E-01  0.10932915071E+00  0.51100000000E-03 0. -1.
</event>
<event>
 8    1  0.2091070E+004  0.1043930E+01  0.7957747E-01            NaN
         13   -1    0    0    0    0  0.00000000000E+00  0.00000000000E+00  0.74505805969E-08  0.10566000000E+00  0.10566000000E+00 0.  1.
     999900   -1    0    0    0    0 -0.00000000000E+00 -0.00000000000E+00 -0.74505805969E-08  0.93827000000E+00  0.93827000000E+00 0.  1.
     999902    2    1    2    0    0 -0.52433299135E-03 -0.79166936987E-02 -0.54043317906E-02  0.10343302205E+01  0.10342856710E+01 0.  0.
     999903    2    3    3    0    0 -0.74384595774E-01 -0.58692713507E-01  0.96419593630E-01  0.14393611990E+00  0.49426368157E-01 0.  0.
         14    1    1    2    0    0  0.52433299135E-03  0.79166936987E-02  0.54043317906E-02  0.95997794927E-02  0.00000000000E+00 0.  1.
     999901    1    3    3    0    0  0.73860262783E-01  0.50776019808E-01 -0.10182392542E+00  0.89039410061E+00  0.88000000000E+00 0.  1.
        -11    1    4    4    0    0 -0.51656482205E-01 -0.60197443328E-01  0.54556159634E-01  0.96274399568E-01  0.51100000000E-03 0. -1.
         11    1    4    4    0    0 -0.22728113569E-01  0.15047298217E-02  0.41863433996E-01  0.47661720334E-01  0.51100000000E-03 0.  1.
</event>
<event>
 8    1  0.2091070E+004  0.1043930E+01  0.7957747E-01            NaN
         13   -1    0    0    0    0  0.00000000000E+00  0.00000000000E+00  0.74505805969E-08  0.10566000000E+00  0.10566000000E+00 0. -1.
     999900   -1    0    0    0    0 -0.00000000000E+00 -0.00000000000E+00 -0.74505805969E-08  0.93827000000E+00  0.93827000000E+00 0. -1.
     999902    2    1    2    0    0 -0.11519579296E-01 -0.12537226695E-02  0.72414300988E-02  0.10302657826E+01  0.10301751657E+01 0.  0.
     999903    2    3    3    0    0 -0.10843638333E+00  0.34067072830E-01 -0.68852517277E-01  0.14097915032E+00  0.47068429004E-01 0.  0.
         14    1    1    2    0    0  0.11519579296E-01  0.12537226695E-02 -0.72414300988E-02  0.13664217415E-01  0.00000000000E+00 0.  1.
     999901    1    3    3    0    0  0.96916804033E-01 -0.35320795500E-01  0.76093947376E-01  0.88928663227E+00  0.88000000000E+00 0.  1.
        -11    1    4    4    0    0 -0.52993743462E-01 -0.18870237497E-02 -0.48421129501E-01  0.71810616262E-01  0.51100000000E-03 0.  1.
         11    1    4    4    0    0 -0.55442639867E-01  0.35954096580E-01 -0.20431387776E-01  0.69168534058E-01  0.51100000000E-03 0. -1.
</event>
<event>
 8    1  0.2091070E+004  0.1043930E+01  0.7957747E-01            NaN
         13   -1    0    0    0    0  0.00000000000E+00  0.00000000000E+00  0.74505805969E-08  0.10566000000E+00  0.10566000000E+00 0.  1.
     999900   -1    0    0    0    0 -0.00000000000E+00 -0.00000000000E+00 -0.74505805969E-08  0.93827000000E+00  0.93827000000E+00 0.  1.
     999902    2    1    2    0    0  0.96323656149E-02  0.64159039060E-02  0.76262961435E-02  0.10300697445E+01  0.10299764909E+01 0.  0.
     999903    2    3    3    0    0  0.26549320530E-01 -0.12652158863E+00  0.27589826934E-01  0.13970066210E+00  0.45193999958E-01 0.  0.
         14    1    1    2    0    0 -0.96323656149E-02 -0.64159039060E-02 -0.76262961435E-02  0.13860255522E-01  0.00000000000E+00 0. -1.
     999901    1    3    3    0    0 -0.16916954915E-01  0.13293749254E+00 -0.19963530791E-01  0.89036908237E+00  0.88000000000E+00 0.  1.
        -11    1    4    4    0    0 -0.15030834067E-02 -0.40543595657E-01 -0.99534390418E-02  0.41777679187E-01  0.51100000000E-03 0.  1.
         11    1    4    4    0    0  0.28052403936E-01 -0.85977992973E-01  0.37543265976E-01  0.97922982917E-01  0.51100000000E-03 0. -1.
</event>
<event>
 8    1  0.2091070E+004  0.1043930E+01  0.7957747E-01            NaN
         13   -1    0    0    0    0  0.00000000000E+00  0.00000000000E+00  0.74505805969E-08  0.10566000000E+00  0.10566000000E+00 0. -1.
     999900   -1    0    0    0    0 -0.00000000000E+00 -0.00000000000E+00 -0.74505805969E-08  0.93827000000E+00  0.93827000000E+00 0.  1.
     999902    2    1    2    0    0  0.62257910686E-02 -0.26964255712E-02 -0.12429374447E-01  0.10297694727E+01  0.10296721062E+01 0.  0.
     999903    2    3    3    0    0 -0.64642511006E-01  0.28448535790E-01  0.10864726614E+00  0.13811265653E+00  0.47779745042E-01 0.  0.
         14    1    1    2    0    0 -0.62257910686E-02  0.26964255712E-02  0.12429374447E-01  0.14160527336E-01  0.00000000000E+00 0. -1.
     999901    1    3    3    0    0  0.70868302075E-01 -0.31144961361E-01 -0.12107664059E+00  0.89165681613E+00  0.88000000000E+00 0.  1.
        -11    1    4    4    0    0 -0.22604788509E-01 -0.13393867949E-03  0.57320616481E-02  0.23326209611E-01  0.51100000000E-03 0.  1.
         11    1    4    4    0    0 -0.42037722498E-01  0.28582474469E-01  0.10291520449E+00  0.11478644692E+00  0.51100000000E-03 0. -1.
</event>
<event>
 8    1  0.2091070E+004  0.1043930E+01  0.7957747E-01            NaN
         13   -1    0    0    0    0  0.00000000000E+00  0.00000000000E+00  0.74505805969E-08  0.10566000000E+00  0.10566000000E+00 0. -1.
     999900   -1    0    0    0    0 -0.00000000000E+00 -0.00000000000E+00 -0.74505805969E-08  0.93827000000E+00  0.93827000000E+00 0.  1.
     999902    2    1    2    0    0 -0.10070861716E-01 -0.40070132067E-02 -0.10330374629E-01  0.10289568557E+01  0.10288479070E+01 0.  0.
     999903    2    3    3    0    0  0.12738122828E+00 -0.26995663394E-01 -0.23381822252E-02  0.13795436960E+00  0.45510414583E-01 0.  0.
         14    1    1    2    0    0  0.10070861716E-01  0.40070132067E-02  0.10330374629E-01  0.14973144309E-01  0.00000000000E+00 0. -1.
     999901    1    3    3    0    0 -0.13745208999E+00  0.22988650187E-01 -0.79921924037E-02  0.89100248609E+00  0.88000000000E+00 0. -1.
        -11    1    4    4    0    0  0.43499065814E-01 -0.23856697249E-01 -0.17585149394E-01  0.52638477661E-01  0.51100000000E-03 0. -1.
         11    1    4    4    0    0  0.83882162465E-01 -0.31389661449E-02  0.15246967169E-01  0.85315891938E-01  0.51100000000E-03 0.  1.
</event>
<event>
 8    1  0.2091070E+004  0.1043930E+01  0.7957747E-01            NaN
         13   -1    0    0    0    0  0.00000000000E+00  0.00000000000E+00  0.74505805969E-08  0.10566000000E+00  0.10566000000E+00 0. -1.
     999900   -1    0    0    0    0 -0.00000000000E+00 -0.00000000000E+00 -0.74505805969E-08  0.93827000000E+00  0.93827000000E+00 0.  1.
     999902    2    1    2    0    0 -0.12745532064E-01  0.10671203238E-01 -0.15878784458E-03  0.10273062706E+01  0.10271717603E+01 0.  0.
     999903    2    3    3    0    0 -0.40818418599E-01 -0.15982295240E-01 -0.12278049518E+00  0.13796124246E+00  0.45129561990E-01 0.  0.
         14    1    1    2    0    0  0.12745532064E-01 -0.10671203238E-01  0.15878784458E-03  0.16623729417E-01  0.00000000000E+00 0. -1.
     999901    1    3    3    0    0  0.28072886535E-01  0.26653498478E-01  0.12262170734E+00  0.88934502812E+00  0.88000000000E+00 0. -1.
        -11    1    4    4    0    0 -0.38210620501E-01 -0.12151960286E-02 -0.46408697706E-01  0.60129498286E-01  0.51100000000E-03 0. -1.
         11    1    4    4    0    0 -0.26077980984E-02 -0.14767099211E-01 -0.76371797476E-01  0.77831744172E-01  0.51100000000E-03 0.  1.
</event>
<event>
 8    1  0.2091070E+004  0.1043930E+01  0.7957747E-01            NaN
         13   -1    0    0    0    0  0.00000000000E+00  0.00000000000E+00  0.74505805969E-08  0.10566000000E+00  0.10566000000E+00 0. -1.
     999900   -1    0    0    0    0 -0.00000000000E+00 -0.00000000000E+00 -0.74505805969E-08  0.93827000000E+00  0.93827000000E+00 0. -1.
     999902    2    1    2    0    0  0.91311381329E-02 -0.92961043539E-02  0.76031047320E-03  0.10308772872E+01  0.10307946488E+01 0.  0.
     999903    2    3    3    0    0 -0.69948299183E-01 -0.10625203908E+00  0.42131732947E-01  0.14106516922E+00  0.44068567930E-01 0.  0.
         14    1    1    2    0    0 -0.91311381329E-02  0.92961043539E-02 -0.76031047320E-03  0.13052712813E-01  0.00000000000E+00 0. -1.
     999901    1    3    3    0    0  0.79079437316E-01  0.96955934722E-01 -0.41371422473E-01  0.88981211797E+00  0.88000000000E+00 0. -1.
        -11    1    4    4    0    0 -0.43358358055E-01 -0.60169980032E-01  0.46731421664E-01  0.87661055218E-01  0.51100000000E-03 0.  1.
         11    1    4    4    0    0 -0.26589941129E-01 -0.46082059044E-01 -0.45996887175E-02  0.53404114001E-01  0.51100000000E-03 0. -1.
</event>
<event>
 8    1  0.2091070E+004  0.1043930E+01  0.7957747E-01            NaN
         13   -1    0    0    0    0  0.00000000000E+00  0.00000000000E+00  0.74505805969E-08  0.10566000000E+00  0.10566000000E+00 0.  1.
     999900   -1    0    0    0    0 -0.00000000000E+00 -0.00000000000E+00 -0.74505805969E-08  0.93827000000E+00  0.93827000000E+00 0. -1.
     999902    2    1    2    0    0  0.99625320714E-02 -0.13508186402E-02  0.97750901834E-02  0.10299075486E+01  0.10298120845E+01 0.  0.
     999903    2    3    3    0    0 -0.88728875332E-01  0.63793970059E-01  0.74330791032E-01  0.13965405887E+00  0.45118795758E-01 0.  0.
         14    1    1    2    0    0 -0.99625320714E-02  0.13508186402E-02 -0.97750901834E-02  0.14022451439E-01  0.00000000000E+00 0. -1.
     999901    1    3    3    0    0  0.98691407403E-01 -0.65144788699E-01 -0.64555700849E-01  0.89025348969E+00  0.88000000000E+00 0. -1.
        -11    1    4    4    0    0 -0.12280274425E-01  0.16625143334E-01  0.36981028622E-01  0.42368126342E-01  0.51100000000E-03 0. -1.
         11    1    4    4    0    0 -0.76448600907E-01  0.47168826725E-01  0.37349762410E-01  0.97285932530E-01  0.51100000000E-03 0.  1.
</event>
<event>
 8    1  0.2091070E+004  0.1043930E+01  0.7957747E-01            NaN
         13   -1    0    0    0    0  0.00000000000E+00  0.00000000000E+00  0.74505805969E-08  0.10566000000E+00  0.10566000000E+00 0. -1.
     999900   -1    0    0    0    0 -0.00000000000E+00 -0.00000000000E+00 -0.74505805969E-08  0.93827000000E+00  0.93827000000E+00 0. -1.
     999902    2    1    2    0    0 -0.10401711091E-02  0.40944764177E-02  0.13163420969E-01  0.10301052995E+01  0.10300125269E+01 0.  0.
     999903    2    3    3    0    0 -0.98034106311E-02 -0.92174351264E-01  0.96020551409E-01  0.14094289270E+00  0.45307116652E-01 0.  0.
         14    1    1    2    0    0  0.10401711091E-02 -0.40944764177E-02 -0.13163420969E-01  0.13824700528E-01  0.00000000000E+00 0.  1.
     999901    1    3    3    0    0  0.87632395219E-02  0.96268827681E-01 -0.82857130440E-01  0.88916240677E+00  0.88000000000E+00 0. -1.
        -11    1    4    4    0    0 -0.23233880423E-02 -0.63093606009E-01  0.90593429543E-01  0.11042477914E+00  0.51100000000E-03 0. -1.
         11    1    4    4    0    0 -0.74800225887E-02 -0.29080745254E-01  0.54271218661E-02  0.30518113559E-01  0.51100000000E-03 0.  1.
</event>
<event>
 8    1  0.2091070E+004  0.1043930E+01  0.7957747E-01            NaN
         13   -1    0    0    0    0  0.00000000000E+00  0.00000000000E+00  0.74505805969E-08  0.10566000000E+00  0.10566000000E+00 0. -1.
     999900   -1    0    0    0    0 -0.00000000000E+00 -0.00000000000E+00 -0.74505805969E-08  0.93827000000E+00  0.93827000000E+00 0. -1.
     999902    2    1    2    0    0  0.56532491274E-02  0.37511332098E-02  0.11831016975E-01  0.10302917014E+01  0.10302014302E+01 0.  0.
     999903    2    3    3    0    0  0.54544499637E-01 -0.11962374523E-01 -0.11851756215E+00  0.13920920197E+00  0.47059414914E-01 0.  0.
         14    1    1    2    0    0 -0.56532491274E-02 -0.37511332098E-02 -0.11831016975E-01  0.13638298600E-01  0.00000000000E+00 0.  1.
     999901    1    3    3    0    0 -0.48891250510E-01  0.15713507733E-01  0.13034857912E+00  0.89108249942E+00  0.88000000000E+00 0.  1.
        -11    1    4    4    0    0  0.22221481846E-01 -0.27075212184E-01 -0.76113259236E-01  0.83787533218E-01  0.51100000000E-03 0.  1.
         11    1    4    4    0    0  0.32323017792E-01  0.15112837661E-01 -0.42404302912E-01  0.55421668757E-01  0.51100000000E-03 0. -1.
</event>
<event>
 8    1  0.2091070E+004  0.1043930E+01  0.7957747E-01            NaN
         13   -1    0    0    0    0  0.00000000000E+00  0.00000000000E+00  0.74505805969E-08  0.10566000000E+00  0.10566000000E+00 0. -1.
     999900   -1    0    0    0    0 -0.00000000000E+00 -0.00000000000E+00 -0.74505805969E-08  0.93827000000E+00  0.93827000000E+00 0.  1.
     999902    2    1    2    0    0 -0.60123664248E-03  0.14171800430E-01 -0.15737978757E-02  0.10296584110E+01  0.10295595005E+01 0.  0.
     999903    2    3    3    0    0  0.11823029180E+00 -0.60541045778E-01 -0.74177991169E-02  0.13851471109E+00  0.38570472132E-01 0.  0.
         14    1    1    2    0    0  0.60123664248E-03 -0.14171800430E-01  0.15737978757E-02  0.14271589003E-01  0.00000000000E+00 0. -1.
     999901    1    3    3    0    0 -0.11883152844E+00  0.74712846208E-01  0.58440012412E-02  0.89114369991E+00  0.88000000000E+00 0.  1.
        -11    1    4    4    0    0  0.81195615263E-01 -0.23387117378E-01  0.48511762014E-02  0.84637345355E-01  0.51100000000E-03 0. -1.
         11    1    4    4    0    0  0.37034676537E-01 -0.37153928400E-01 -0.12268975318E-01  0.53877365731E-01  0.51100000000E-03 0.  1.
</event>
<event>
 8    1  0.2091070E+004  0.1043930E+01  0.7957747E-01            NaN
         13   -1    0    0    0    0  0.00000000000E+00  0.00000000000E+00  0.74505805969E-08  0.10566000000E+00  0.10566000000E+00 0. -1.
     999900   -1    0    0    0    0 -0.00000000000E+00 -0.00000000000E+00 -0.74505805969E-08  0.93827000000E+00  0.93827000000E+00 0.  1.
     999902    2    1    2    0    0  0.12272669562E-02  0.12485260553E-01 -0.12414551021E-01  0.10262803827E+01  0.10261286054E+01 0.  0.
     999903    2    3    3    0    0  0.12669078765E+00 -0.36039633144E-02 -0.27546390518E-01  0.13710721015E+00  0.44452662644E-01 0.  0.
         14    1    1    2    0    0 -0.12272669562E-02 -0.12485260553E-01  0.12414551021E-01  0.17649617341E-01  0.00000000000E+00 0. -1.
     999901    1    3    3    0    0 -0.12546352070E+00  0.16089223867E-01  0.15131839497E-01  0.88917317251E+00  0.88000000000E+00 0. -1.
        -11    1    4    4    0    0  0.45537963312E-01 -0.56791606116E-02  0.11069754621E-01  0.47209740056E-01  0.51100000000E-03 0. -1.
         11    1    4    4    0    0  0.81152824340E-01  0.20751972971E-02 -0.38616145139E-01  0.89897470090E-01  0.51100000000E-03 0.  1.
</event>
<event>
 8    1  0.2091070E+004  0.1043930E+01  0.7957747E-01            NaN
         13   -1    0    0    0    0  0.00000000000E+00  0.00000000000E+00  0.74505805969E-08  0.10566000000E+00  0.10566000000E+00 0.  1.
     999900   -1    0    0    0    0 -0.00000000000E+00 -0.00000000000E+00 -0.74505805969E-08  0.93827000000E+00  0.93827000000E+00 0. -1.
     999902    2    1    2    0    0 -0.89101565585E-02  0.21797193910E-02 -0.87115152745E-02  0.10312796022E+01  0.10312020099E+01 0.  0.
     999903    2    3    3    0    0  0.29971523834E-01  0.96334440232E-01 -0.88860748000E-01  0.14178491640E+00  0.45034579697E-01 0.  0.
         14    1    1    2    0    0  0.89101565585E-02 -0.21797193910E-02  0.87115152745E-02  0.12650397816E-01  0.00000000000E+00 0.  1.
     999901    1    3    3    0    0 -0.38881680393E-01 -0.94154720841E-01  0.80149232725E-01  0.88949468578E+00  0.88000000000E+00 0.  1.
        -11    1    4    4    0    0  0.19572465959E-02  0.74682092680E-01 -0.65558563980E-01  0.99395332956E-01  0.51100000000E-03 0.  1.
         11    1    4    4    0    0  0.28014277238E-01  0.21652347552E-01 -0.23302184019E-01  0.42389583447E-01  0.51100000000E-03 0. -1.
</event>
<event>
 8    1  0.2091070E+004  0.1043930E+01  0.7957747E-01            NaN
         13   -1    0    0    0    0  0.00000000000E+00  0.00000000000E+00  0.74505805969E-08  0.10566000000E+00  0.10566000000E+00 0. -1.
     999900   -1    0    0    0    0 -0.00000000000E+00 -0.00000000000E+00 -0.74505805969E-08  0.93827000000E+00  0.93827000000E+00 0.  1.
     999902    2    1    2    0    0  0.10532351730E-01  0.26610077474E-03  0.10405922813E-01  0.10291217431E+01  0.10290151980E+01 0.  0.
     999903    2    3    3    0    0  0.40514096514E-01 -0.11470798176E+00 -0.50440567013E-01  0.13905419511E+00  0.44637487394E-01 0.  0.
         14    1    1    2    0    0 -0.10532351730E-01 -0.26610077474E-03 -0.10405922813E-01  0.14808256892E-01  0.00000000000E+00 0.  1.
     999901    1    3    3    0    0 -0.29981744783E-01  0.11497408254E+00  0.60846489827E-01  0.89006754800E+00  0.88000000000E+00 0. -1.
        -11    1    4    4    0    0  0.33793281445E-01 -0.35608719625E-01 -0.28177366422E-01  0.56605581735E-01  0.51100000000E-03 0. -1.
         11    1    4    4    0    0  0.67208150686E-02 -0.79099262137E-01 -0.22263200592E-01  0.82448613374E-01  0.51100000000E-03 0.  1.
</event>
<event>
 8    1  0.2091070E+004  0.1043930E+01  0.7957747E-01            NaN
         13   -1    0    0    0    0  0.00000000000E+00  0.00000000000E+00  0.74505805969E-08  0.10566000000E+00  0.10566000000E+00 0.  1.
     999900   -1    0    0    0    0 -0.00000000000E+00 -0.00000000000E+00 -0.74505805969E-08  0.93827000000E+00  0.93827000000E+00 0.  1.
     999902    2    1    2    0    0 -0.78749479079E-02 -0.35474998064E-02 -0.11286617686E-01  0.10297177765E+01  0.10296196928E+01 0.  0.
     999903    2    3    3    0    0 -0.13258851417E-01  0.11175467365E+00 -0.70584545273E-01  0.14020115388E+00  0.44825007443E-01 0.  0.
         14    1    1    2    0    0  0.78749479079E-02  0.35474998064E-02  0.11286617686E-01  0.14212223550E-01  0.00000000000E+00 0.  1.
     999901    1    3    3    0    0  0.53839035091E-02 -0.11530217346E+00  0.59297927587E-01  0.88951662258E+00  0.88000000000E+00 0. -1.
        -11    1    4    4    0    0 -0.17684964108E-01  0.56344857684E-01 -0.13618791901E-01  0.60607207136E-01  0.51100000000E-03 0. -1.
         11    1    4    4    0    0  0.44261126915E-02  0.55409815969E-01 -0.56965753372E-01  0.79593946739E-01  0.51100000000E-03 0.  1.
</event>
<event>
 8    1  0.2091070E+004  0.1043930E+01  0.7957747E-01            NaN
         13   -1    0    0    0    0  0.00000000000E+00  0.00000000000E+00  0.74505805969E-08  0.10566000000E+00  0.10566000000E+00 0. -1.
     999900   -1    0    0    0    0 -0.00000000000E+00 -0.00000000000E+00 -0.74505805969E-08  0.93827000000E+00  0.93827000000E+00 0.  1.
     999902    2    1    2    0    0 -0.10769918075E-02 -0.16873643021E-02  0.13268493007E-01  0.10305113556E+01  0.10304239875E+01 0.  0.
     999903    2    3    3    0    0 -0.71561655598E-01 -0.95629229985E-01 -0.57473836057E-01  0.13989491796E+00  0.44736182894E-01 0.  0.
         14    1    1    2    0    0  0.10769918075E-02  0.16873643021E-02 -0.13268493007E-01  0.13418644355E-01  0.00000000000E+00 0.  1.
     999901    1    3    3    0    0  0.70484663791E-01  0.93941865683E-01  0.70742329063E-01  0.89061643769E+00  0.88000000000E+00 0. -1.
        -11    1    4    4    0    0 -0.14884307054E-01 -0.26733347705E-01  0.49638975435E-02  0.31001868909E-01  0.51100000000E-03 0.  1.
         11    1    4    4    0    0 -0.56677348544E-01 -0.68895882280E-01 -0.62437733600E-01  0.10889304905E+00  0.51100000000E-03 0. -1.
</event>
<event>
 8    1  0.2091070E+004  0.1043930E+01  0.7957747E-01            NaN
         13   -1    0    0    0    0  0.00000000000E+00  0.00000000000E+00  0.74505805969E-08  0.10566000000E+00  0.10566000000E+00 0. -1.
     999900   -1    0    0    0    0 -0.00000000000E+00 -0.00000000000E+00 -0.74505805969E-08  0.93827000000E+00  0.93827000000E+00 0.  1.
     999902    2    1    2    0    0 -0.24619208476E-02  0.12662744132E-01 -0.50298286454E-02  0.10300842310E+01  0.10299911736E+01 0.  0.
     999903    2    3    3    0    0  0.12809259958E+00 -0.26170201732E-01  0.18527778459E-01  0.13929388453E+00  0.44349906058E-01 0.  0.
         14    1    1    2    0    0  0.24619208476E-02 -0.12662744132E-01  0.50298286454E-02  0.13845769008E-01  0.00000000000E+00 0.  1.
     999901    1    3    3    0    0 -0.13055452043E+00  0.38832945864E-01 -0.23557607105E-01  0.89079034646E+00  0.88000000000E+00 0.  1.
        -11    1    4    4    0    0  0.92394516258E-01  0.22472919004E-02  0.12768500358E-01  0.93301086156E-01  0.51100000000E-03 0.  1.
         11    1    4    4    0    0  0.35698083325E-01 -0.28417493633E-01  0.57592781018E-02  0.45992798379E-01  0.51100000000E-03 0. -1.
</event>
<event>
 8    1  0.2091070E+004  0.1043930E+01  0.7957747E-01            NaN
         13   -1    0    0    0    0  0.00000000000E+00  0.00000000000E+00  0.74505805969E-08  0.10566000000E+00  0.10566000000E+00 0. -1.
     999900   -1    0    0    0    0 -0.00000000000E+00 -0.00000000000E+00 -0.74505805969E-08  0.93827000000E+00  0.93827000000E+00 0.  1.
     999902    2    1    2    0    0  0.11130756526E-01  0.32329649695E-02  0.69877522868E-02  0.10303958031E+01  0.10303069138E+01 0.  0.
     999903    2    3    3    0    0  0.15896822868E-01  0.27265170041E-01  0.13048590541E+00  0.14143458006E+00  0.44509217595E-01 0.  0.
         14    1    1    2    0    0 -0.11130756526E-01 -0.32329649695E-02 -0.69877522868E-02  0.13534196886E-01  0.00000000000E+00 0.  1.
     999901    1    3    3    0    0 -0.47660663421E-02 -0.24032205072E-01 -0.12349815312E+00  0.88896122305E+00  0.88000000000E+00 0.  1.
        -11    1    4    4    0    0  0.43545051515E-02  0.36800235037E-01  0.70987692699E-01  0.80079539519E-01  0.51100000000E-03 0.  1.
         11    1    4    4    0    0  0.11542317717E-01 -0.95350649957E-02  0.59498212712E-01  0.61355040540E-01  0.51100000000E-03 0. -1.
</event>
<event>
 8    1  0.2091070E+004  0.1043930E+01  0.7957747E-01            NaN
         13   -1    0    0    0    0  0.00000000000E+00  0.00000000000E+00  0.74505805969E-08  0.10566000000E+00  0.10566000000E+00 0.  1.
     999900   -1    0    0    0    0 -0.00000000000E+00 -0.00000000000E+00 -0.74505805969E-08  0.93827000000E+00  0.93827000000E+00 0.  1.
     999902    2    1    2    0    0  0.76685457588E-02  0.11397144944E-01  0.32807560834E-02  0.10298067968E+01  0.10297099465E+01 0.  0.
     999903    2    3    3    0    0 -0.86191246896E-01  0.98040502538E-01  0.24393171780E-01  0.14033365718E+00  0.45361187455E-01 0.  0.
         14    1    1    2    0    0 -0.76685457588E-02 -0.11397144944E-01 -0.32807560834E-02  0.14123203157E-01  0.00000000000E+00 0.  1.
     999901    1    3    3    0    0  0.93859792655E-01 -0.86643357594E-01 -0.21112415697E-01  0.88947313967E+00  0.88000000000E+00 0. -1.
        -11    1    4    4    0    0 -0.43089083497E-01  0.75115611589E-01  0.28925474725E-01  0.91301524796E-01  0.51100000000E-03 0. -1.
         11    1    4    4    0    0 -0.43102163399E-01  0.22924890949E-01 -0.45323029448E-02  0.49032132380E-01  0.51100000000E-03 0.  1.
</event>
<event>
 8    1  0.2091070E+004  0.1043930E+01  0.7957747E-01            NaN
         13   -1    0    0    0    0  0.00000000000E+00  0.00000000000E+00  0.74505805969E-08  0.10566000000E+00  0.10566000000E+00 0. -1.
     999900   -1    0    0    0    0 -0.00000000000E+00 -0.00000000000E+00 -0.74505805969E-08  0.93827000000E+00  0.93827000000E+00 0. -1.
     999902    2    1    2    0    0 -0.10298401151E-01 -0.20979129793E-02 -0.71843355506E-02  0.10311992112E+01  0.10311206235E+01 0.  0.
     999903    2    3    3    0    0  0.39806688815E-01 -0.43585078839E-01  0.11850243630E+00  0.13989181781E+00  0.45195815173E-01 0.  0.
         14    1    1    2    0    0  0.10298401151E-01  0.20979129793E-02  0.71843355506E-02  0.12730788760E-01  0.00000000000E+00 0.  1.
     999901    1    3    3    0    0 -0.50105089966E-01  0.41487165860E-01 -0.12568677185E+00  0.89130739343E+00  0.88000000000E+00 0. -1.
        -11    1    4    4    0    0  0.21231011537E-01  0.29652352148E-02  0.19773426292E-01  0.29168441492E-01  0.51100000000E-03 0. -1.
         11    1    4    4    0    0  0.18575677277E-01 -0.46550314054E-01  0.98729010005E-01  0.11072337631E+00  0.51100000000E-03 0.  1.
</event>
<event>
 8    1  0.2091070E+004  0.1043930E+01  0.7957747E-01            NaN
         13   -1    0    0    0    0  0.00000000000E+00  0.00000000000E+00  0.74505805969E-08  0.10566000000E+00  0.10566000000E+00 0. -1.
     999900   -1    0    0    0    0 -0.00000000000E+00 -0.00000000000E+00 -0.74505805969E-08  0.93827000000E+00  0.93827000000E+00 0.  1.
     999902    2    1    2    0    0 -0.50232648989E-02  0.99633474383E-03 -0.12557059530E-01  0.10303688195E+01  0.10302795730E+01 0.  0.
     999903    2    3    3    0    0  0.98112964013E-01 -0.47067706548E-01 -0.77054726821E-01  0.14070192515E+00  0.44923024246E-01 0.  0.
         14    1    1    2    0    0  0.50232648989E-02 -0.99633474383E-03  0.12557059530E-01  0.13561180524E-01  0.00000000000E+00 0. -1.
     999901    1    3    3    0    0 -0.10313622891E+00  0.48064041292E-01  0.64497667291E-01  0.88966689433E+00  0.88000000000E+00 0. -1.
        -11    1    4    4    0    0  0.64503264392E-01 -0.52004959545E-01 -0.46528887165E-01  0.95028339964E-01  0.51100000000E-03 0. -1.
         11    1    4    4    0    0  0.33609699621E-01  0.49372529961E-02 -0.30525839656E-01  0.45673585183E-01  0.51100000000E-03 0.  1.
</event>
<event>
 8    1  0.2091070E+004  0.1043930E+01  0.7957747E-01            NaN
         13   -1    0    0    0    0  0.00000000000E+00  0.00000000000E+00  0.74505805969E-08  0.10566000000E+00  0.10566000000E+00 0.  1.
     999900   -1    0    0    0    0 -0.00000000000E+00 -0.00000000000E+00 -0.74505805969E-08  0.93827000000E+00  0.93827000000E+00 0. -1.
     999902    2    1    2    0    0 -0.34526267387E-02 -0.13787607102E-01 -0.19644378218E-01  0.10196829314E+01  0.10193946048E+01 0.  0.
     999903    2    3    3    0    0 -0.80656336810E-01 -0.68930880641E-01  0.61494329696E-01  0.13087210596E+00  0.45706066992E-01 0.  0.
         14    1    1    2    0    0  0.34526267387E-02  0.13787607102E-01  0.19644378218E-01  0.24247068618E-01  0.00000000000E+00 0.  1.
     999901    1    3    3    0    0  0.77203710072E-01  0.55143273539E-01 -0.81138707914E-01  0.88881082542E+00  0.88000000000E+00 0. -1.
        -11    1    4    4    0    0 -0.25549274277E-01  0.20424904610E-02  0.12381493276E-01  0.28469276072E-01  0.51100000000E-03 0.  1.
         11    1    4    4    0    0 -0.55107062534E-01 -0.70973371102E-01  0.49112836420E-01  0.10240282989E+00  0.51100000000E-03 0. -1.
</event>
<event>
 8    1  0.2091070E+004  0.1043930E+01  0.7957747E-01            NaN
         13   -1    0    0    0    0  0.00000000000E+00  0.00000000000E+00  0.74505805969E-08  0.10566000000E+00  0.10566000000E+00 0. -1.
     999900   -1    0    0    0    0 -0.00000000000E+00 -0.00000000000E+00 -0.74505805969E-08  0.93827000000E+00  0.93827000000E+00 0. -1.
     999902    2    1    2    0    0  0.44060660656E-03 -0.98370686163E-02 -0.11020167400E-01  0.10291514296E+01  0.10290453143E+01 0.  0.
     999903    2    3    3    0    0  0.85953804428E-01  0.94906294337E-01 -0.28188333454E-01  0.13865806916E+00  0.45124458999E-01 0.  0.
         14    1    1    2    0    0 -0.44060660656E-03  0.98370686163E-02  0.11020167400E-01  0.14778570386E-01  0.00000000000E+00 0. -1.
     999901    1    3    3    0    0 -0.85513197822E-01 -0.10474336295E+00  0.17168166054E-01  0.89049336045E+00  0.88000000000E+00 0.  1.
        -11    1    4    4    0    0  0.33153890359E-01  0.23936976681E-01 -0.29106603572E-01  0.50195764673E-01  0.51100000000E-03 0. -1.
         11    1    4    4    0    0  0.52799914069E-01  0.70969317657E-01  0.91827011821E-03  0.88462304488E-01  0.51100000000E-03 0.  1.
</event>
<event>
 8    1  0.2091070E+004  0.1043930E+01  0.7957747E-01            NaN
         13   -1    0    0    0    0  0.00000000000E+00  0.00000000000E+00  0.74505805969E-08  0.10566000000E+00  0.10566000000E+00 0. -1.
     999900   -1    0    0    0    0 -0.00000000000E+00 -0.00000000000E+00 -0.74505805969E-08  0.93827000000E+00  0.93827000000E+00 0. -1.
     999902    2    1    2    0    0  0.10539230015E-02  0.11165081664E-01  0.87634598734E-02  0.10296973604E+01  0.10295989928E+01 0.  0.
     999903    2    3    3    0    0  0.44484464019E-02 -0.11642797709E+00  0.60926236008E-01  0.13896032473E+00  0.44974471525E-01 0.  0.
         14    1    1    2    0    0 -0.10539230015E-02 -0.11165081664E-01 -0.87634598734E-02  0.14232639643E-01  0.00000000000E+00 0.  1.
     999901    1    3    3    0    0 -0.33945234004E-02  0.12759305875E+00 -0.52162776135E-01  0.89073703563E+00  0.88000000000E+00 0.  1.
        -11    1    4    4    0    0  0.13128888561E-01 -0.69764975838E-01  0.57525001219E-01  0.91372350604E-01  0.51100000000E-03 0.  1.
         11    1    4    4    0    0 -0.86804421596E-02 -0.46663001252E-01  0.34012347889E-02  0.47587974122E-01  0.51100000000E-03 0. -1.
</event>
<event>
 8    1  0.2091070E+004  0.1043930E+01  0.7957747E-01            NaN
         13   -1    0    0    0    0  0.00000000000E+00  0.00000000000E+00  0.74505805969E-08  0.10566000000E+00  0.10566000000E+00 0.  1.
     999900   -1    0    0    0    0 -0.00000000000E+00 -0.00000000000E+00 -0.74505805969E-08  0.93827000000E+00  0.93827000000E+00 0.  1.
     999902    2    1    2    0    0 -0.22444056275E-02 -0.63855687229E-02 -0.11865036084E-01  0.10302701345E+01  0.10301795757E+01 0.  0.
     999903    2    3    3    0    0  0.76479387222E-01 -0.10670000837E+00 -0.25483763077E-01  0.14097496859E+00  0.44615368783E-01 0.  0.
         14    1    1    2    0    0  0.22444056275E-02  0.63855687229E-02  0.11865036084E-01  0.13659865512E-01  0.00000000000E+00 0.  1.
     999901    1    3    3    0    0 -0.78723792849E-01  0.10031443965E+00  0.13618726993E-01  0.88929516590E+00  0.88000000000E+00 0. -1.
        -11    1    4    4    0    0  0.39654081688E-01 -0.25981105854E-01 -0.21780664478E-01  0.52173964025E-01  0.51100000000E-03 0.  1.
         11    1    4    4    0    0  0.36825305534E-01 -0.80718902520E-01 -0.37030985988E-02  0.88801004566E-01  0.51100000000E-03 0. -1.
</event>
<event>
 8    1  0.2091070E+004  0.1043930E+01  0.7957747E-01            NaN
         13   -1    0    0    0    0  0.00000000000E+00  0.00000000000E+00  0.74505805969E-08  0.10566000000E+00  0.10566000000E+00 0.  1.
     999900   -1    0    0    0    0 -0.00000000000E+00 -0.00000000000E+00 -0.74505805969E-08  0.93827000000E+00  0.93827000000E+00 0. -1.
     999902    2    1    2    0    0  0.57206489645E-02 -0.49306009201E-02 -0.11316044470E-01  0.10303252393E+01  0.10302354145E+01 0.  0.
     999903    2    3    3    0    0  0.15271511503E-02  0.10751672096E+00 -0.78489094653E-01  0.14062067923E+00  0.45293045491E-01 0.  0.
         14    1    1    2    0    0 -0.57206489645E-02  0.49306009201E-02  0.11316044470E-01  0.13604760654E-01  0.00000000000E+00 0.  1.
     999901    1    3    3    0    0  0.41934978142E-02 -0.11244732188E+00  0.67173050183E-01  0.88970456012E+00  0.88000000000E+00 0.  1.
        -11    1    4    4    0    0  0.11770994335E-01  0.70568916804E-01 -0.27108910592E-01  0.76509362048E-01  0.51100000000E-03 0.  1.
         11    1    4    4    0    0 -0.10243843185E-01  0.36947804159E-01 -0.51380184062E-01  0.64111317180E-01  0.51100000000E-03 0. -1.
</event>
<event>
 8    1  0.2091070E+004  0.1043930E+01  0.7957747E-01            NaN
         13   -1    0    0    0    0  0.00000000000E+00  0.00000000000E+00  0.74505805969E-08  0.10566000000E+00  0.10566000000E+00 0.  1.
     999900   -1    0    0    0    0 -0.00000000000E+00 -0.00000000000E+00 -0.74505805969E-08  0.93827000000E+00  0.93827000000E+00 0. -1.
     999902    2    1    2    0    0  0.11497101373E-01 -0.87369325138E-03 -0.83219190207E-02  0.10297102596E+01  0.10296120715E+01 0.  0.
     999903    2    3    3    0    0 -0.10818322965E+00 -0.38085231546E-01  0.60828845232E-01  0.13814427306E+00  0.47218595153E-01 0.  0.
         14    1    1    2    0    0 -0.11497101373E-01  0.87369325138E-03  0.83219190207E-02  0.14219740365E-01  0.00000000000E+00 0.  1.
     999901    1    3    3    0    0  0.11968033102E+00  0.37211538295E-01 -0.69150764253E-01  0.89156598657E+00  0.88000000000E+00 0. -1.
        -11    1    4    4    0    0 -0.16385487827E-03 -0.78767691785E-03  0.14981993595E-01  0.15012279521E-01  0.51100000000E-03 0.  1.
         11    1    4    4    0    0 -0.10801937477E+00 -0.37297554628E-01  0.45846851637E-01  0.12313199354E+00  0.51100000000E-03 0. -1.
</event>
<event>
 8    1  0.2091070E+004  0.1043930E+01  0.7957747E-01            NaN
         13   -1    0    0    0    0  0.00000000000E+00  0.00000000000E+00  0.74505805969E-08  0.10566000000E+00  0.10566000000E+00 0. -1.
     999900   -1    0    0    0    0 -0.00000000000E+00 -0.00000000000E+00 -0.74505805969E-08  0.93827000000E+00  0.93827000000E+00 0.  1.
     999902    2    1    2    0    0 -0.11149495580E-01  0.73457209895E-02 -0.33363064202E-03  0.10305740209E+01  0.10304874722E+01 0.  0.
     999903    2    3    3    0    0 -0.97756368139E-01  0.69803655119E-01  0.60644186643E-01  0.14202461984E+00  0.45435861244E-01 0.  0.
         14    1    1    2    0    0  0.11149495580E-01 -0.73457209895E-02  0.33363064202E-03  0.13355979109E-01  0.00000000000E+00 0.  1.
     999901    1    3    3    0    0  0.86606872558E-01 -0.62457934130E-01 -0.60977817285E-01  0.88854940105E+00  0.88000000000E+00 0.  1.
        -11    1    4    4    0    0 -0.48993025176E-01  0.56939106648E-01  0.21358200782E-01  0.78094892557E-01  0.51100000000E-03 0.  1.
         11    1    4    4    0    0 -0.48763342962E-01  0.12864548471E-01  0.39285985861E-01  0.63929727282E-01  0.51100000000E-03 0. -1.
</event>
<event>
 8    1  0.2091070E+004  0.1043930E+01  0.7957747E-01            NaN
         13   -1    0    0    0    0  0.00000000000E+00  0.00000000000E+00  0.74505805969E-08  0.10566000000E+00  0.10566000000E+00 0. -1.
     999900   -1    0    0    0    0 -0.00000000000E+00 -0.00000000000E+00 -0.74505805969E-08  0.93827000000E+00  0.93827000000E+00 0. -1.
     999902    2    1    2    0    0  0.78990217200E-02  0.89149842373E-02  0.62234792296E-02  0.10304911317E+01  0.10304034983E+01 0.  0.
     999903    2    3    3    0    0  0.11929741714E+00 -0.24984014757E-01 -0.54231798587E-01  0.14076444036E+00  0.44916199328E-01 0.  0.
         14    1    1    2    0    0 -0.78990217200E-02 -0.89149842373E-02 -0.62234792296E-02  0.13438868323E-01  0.00000000000E+00 0. -1.
     999901    1    3    3    0    0 -0.11139839542E+00  0.33898998994E-01  0.60455277817E-01  0.88972669132E+00  0.88000000000E+00 0.  1.
        -11    1    4    4    0    0  0.64695829475E-01 -0.33729839011E-01 -0.19725279838E-01  0.75581744998E-01  0.51100000000E-03 0.  1.
         11    1    4    4    0    0  0.54601587660E-01  0.87458242543E-02 -0.34506518750E-01  0.65182695358E-01  0.51100000000E-03 0. -1.
</event>
<event>
 8    1  0.2091070E+004  0.1043930E+01  0.7957747E-01            NaN
         13   -1    0    0    0    0  0.00000000000E+00  0.00000000000E+00  0.74505805969E-08  0.10566000000E+00  0.10566000000E+00 0.  1.
     999900   -1    0    0    0    0 -0.00000000000E+00 -0.00000000000E+00 -0.74505805969E-08  0.93827000000E+00  0.93827000000E+00 0.  1.
     999902    2    1    2    0    0 -0.70224886454E-02 -0.10329877494E-01  0.50488654922E-02  0.10304573329E+01  0.10303692553E+01 0.  0.
     999903    2    3    3    0    0 -0.10504256069E+00 -0.81623821836E-01  0.22376603553E-01  0.14198054000E+00  0.44287396685E-01 0.  0.
         14    1    1    2    0    0  0.70224886454E-02  0.10329877494E-01 -0.50488654922E-02  0.13472667092E-01  0.00000000000E+00 0. -1.
     999901    1    3    3    0    0  0.98020072047E-01  0.71293944342E-01 -0.17327738060E-01  0.88847679290E+00  0.88000000000E+00 0.  1.
        -11    1    4    4    0    0 -0.86988495569E-01 -0.54126044422E-01  0.32623251395E-01  0.10752285663E+00  0.51100000000E-03 0. -1.
         11    1    4    4    0    0 -0.18054065123E-01 -0.27497777414E-01 -0.10246647842E-01  0.34457683369E-01  0.51100000000E-03 0.  1.
</event>
<event>
 8    1  0.2091070E+004  0.1043930E+01  0.7957747E-01            NaN
         13   -1    0    0    0    0  0.00000000000E+00  0.00000000000E+00  0.74505805969E-08  0.10566000000E+00  0.10566000000E+00 0. -1.
     999900   -1    0    0    0    0 -0.00000000000E+00 -0.00000000000E+00 -0.74505805969E-08  0.93827000000E+00  0.93827000000E+00 0.  1.
     999902    2    1    2    0    0 -0.54698803497E-02  0.18360909357E-01 -0.24628150634E-02  0.10246139952E+01  0.10244319065E+01 0.  0.
     999903    2    3    3    0    0 -0.56269310982E-01 -0.23881024135E-01  0.11161050701E+00  0.13479508896E+00  0.44455281570E-01 0.  0.
         14    1    1    2    0    0  0.54698803497E-02 -0.18360909357E-01  0.24628150634E-02  0.19316004801E-01  0.00000000000E+00 0.  1.
     999901    1    3    3    0    0  0.50799430632E-01  0.42241933491E-01 -0.11407332207E+00  0.88981890624E+00  0.88000000000E+00 0.  1.
        -11    1    4    4    0    0 -0.32141872258E-01 -0.21592438354E-01  0.10130537759E+00  0.10845447891E+00  0.51100000000E-03 0. -1.
         11    1    4    4    0    0 -0.24127438724E-01 -0.22885857805E-02  0.10305129424E-01  0.26340610048E-01  0.51100000000E-03 0.  1.
</event>
<event>
 8    1  0.2091070E+004  0.1043930E+01  0.7957747E-01            NaN
         13   -1    0    0    0    0  0.00000000000E+00  0.00000000000E+00  0.74505805969E-08  0.10566000000E+00  0.10566000000E+00 0. -1.
     999900   -1    0    0    0    0 -0.00000000000E+00 -0.00000000000E+00 -0.74505805969E-08  0.93827000000E+00  0.93827000000E+00 0.  1.
     999902    2    1    2    0    0  0.22968146406E-02  0.13494612980E-01  0.36269017815E-02  0.10297689847E+01  0.10296716115E+01 0.  0.
     999903    2    3    3    0    0  0.77684143466E-01 -0.75364355479E-02  0.10757170684E+00  0.14020163098E+00  0.44645282074E-01 0.  0.
         14    1    1    2    0    0 -0.22968146406E-02 -0.13494612980E-01 -0.36269017815E-02  0.14161015271E-01  0.00000000000E+00 0.  1.
     999901    1    3    3    0    0 -0.75387328826E-01  0.21031048528E-01 -0.10394480506E+00  0.88956735374E+00  0.88000000000E+00 0.  1.
        -11    1    4    4    0    0  0.33943631490E-01  0.12081382358E-01  0.71971870424E-01  0.80488143051E-01  0.51100000000E-03 0.  1.
         11    1    4    4    0    0  0.43740511977E-01 -0.19617817906E-01  0.35599836414E-01  0.59713487933E-01  0.51100000000E-03 0. -1.
</event>
<event>
 8    1  0.2091070E+004  0.1043930E+01  0.7957747E-01            NaN
         13   -1    0    0    0    0  0.00000000000E+00  0.00000000000E+00  0.74505805969E-08  0.10566000000E+00  0.10566000000E+00 0. -1.
     999900   -1    0    0    0    0 -0.00000000000E+00 -0.00000000000E+00 -0.74505805969E-08  0.93827000000E+00  0.93827000000E+00 0. -1.
     999902    2    1    2    0    0 -0.96512616638E-02 -0.94964851083E-02 -0.19153267165E-02  0.10302552584E+01  0.10301645009E+01 0.  0.
     999903    2    3    3    0    0  0.75800292191E-01 -0.38440128377E-01 -0.10151054185E+00  0.14005364674E+00  0.45687045122E-01 0.  0.
         14    1    1    2    0    0  0.96512616638E-02  0.94964851083E-02  0.19153267165E-02  0.13674741590E-01  0.00000000000E+00 0. -1.
     999901    1    3    3    0    0 -0.85451553855E-01  0.28943643268E-01  0.99595215137E-01  0.89020161167E+00  0.88000000000E+00 0.  1.
        -11    1    4    4    0    0  0.38945266260E-01 -0.19624322449E-01 -0.18649522804E-01  0.47433254342E-01  0.51100000000E-03 0. -1.
         11    1    4    4    0    0  0.36855025931E-01 -0.18815805927E-01 -0.82861019050E-01  0.92620392398E-01  0.51100000000E-03 0.  1.
</event>
<event>
 8    1  0.2091070E+004  0.1043930E+01  0.7957747E-01            NaN
         13   -1    0    0    0    0  0.00000000000E+00  0.00000000000E+00  0.74505805969E-08  0.10566000000E+00  0.10566000000E+00 0.  1.
     999900   -1    0    0    0    0 -0.00000000000E+00 -0.00000000000E+00 -0.74505805969E-08  0.93827000000E+00  0.93827000000E+00 0. -1.
     999902    2    1    2    0    0  0.12926886241E-01 -0.43136397376E-02 -0.26070424848E-02  0.10300552551E+01  0.10299618051E+01 0.  0.
     999903    2    3    3    0    0 -0.97489304647E-01  0.99405743067E-02 -0.87467980730E-01  0.13899055673E+00  0.45439494598E-01 0.  0.
         14    1    1    2    0    0 -0.12926886241E-01  0.43136397376E-02  0.26070424848E-02  0.13874744906E-01  0.00000000000E+00 0.  1.
     999901    1    3    3    0    0  0.11041619089E+00 -0.14254214044E-01  0.84860938246E-01  0.89106469836E+00  0.88000000000E+00 0.  1.
        -11    1    4    4    0    0 -0.26506240158E-01  0.23778869007E-01 -0.31447647299E-01  0.47510325406E-01  0.51100000000E-03 0.  1.
         11    1    4    4    0    0 -0.70983064490E-01 -0.13838294701E-01 -0.56020333431E-01  0.91480231325E-01  0.51100000000E-03 0. -1.
</event>
<event>
 8    1  0.2559867E+004  0.1043930E+01  0.7957747E-01            NaN
         13   -1    0    0    0    0  0.00000000000E+00  0.00000000000E+00  0.74505805969E-08  0.10566000000E+00  0.10566000000E+00 0.  1.
     999900   -1    0    0    0    0 -0.00000000000E+00 -0.00000000000E+00 -0.74505805969E-08  0.93827000000E+00  0.93827000000E+00 0.  1.
     999902    2    1    2    0    0 -0.16319396591E-01  0.10817288699E-01  0.17709617467E-01  0.10175298676E+01  0.10171873301E+01 0.  0.
     999903    2    3    3    0    0  0.11471224784E+00  0.10319983308E-01  0.28763209168E-01  0.12775926736E+00  0.47219766371E-01 0.  0.
         14    1    1    2    0    0  0.16319396591E-01 -0.10817288699E-01 -0.17709617467E-01  0.26400132399E-01  0.00000000000E+00 0. -1.
     999901    1    3    3    0    0 -0.13103164443E+00  0.49730539180E-03 -0.11053591701E-01  0.88977060024E+00  0.88000000000E+00 0.  1.
        -11    1    4    4    0    0  0.51457877259E-01  0.27973457772E-01  0.96568132616E-02  0.59362805148E-01  0.51100000000E-03 0.  1.
         11    1    4    4    0    0  0.63254370580E-01 -0.17653474465E-01  0.19106395907E-01  0.68396462217E-01  0.51100000000E-03 0. -1.
</event>
<event>
 8    1  0.2091070E+004  0.1043930E+01  0.7957747E-01            NaN
         13   -1    0    0    0    0  0.00000000000E+00  0.00000000000E+00  0.74505805969E-08  0.10566000000E+00  0.10566000000E+00 0.  1.
     999900   -1    0    0    0    0 -0.00000000000E+00 -0.00000000000E+00 -0.74505805969E-08  0.93827000000E+00  0.93827000000E+00 0. -1.
     999902    2    1    2    0    0  0.31685215075E-02 -0.10006408771E-01  0.93596005540E-02  0.10298669325E+01  0.10297709108E+01 0.  0.
     999903    2    3    3    0    0 -0.67527414282E-01 -0.92384299262E-01  0.69675380819E-01  0.14114761487E+00  0.44420491453E-01 0.  0.
         14    1    1    2    0    0 -0.31685215075E-02  0.10006408771E-01 -0.93596005540E-02  0.14063067502E-01  0.00000000000E+00 0.  1.
     999901    1    3    3    0    0  0.70695935790E-01  0.82377890492E-01 -0.60315780265E-01  0.88871931763E+00  0.88000000000E+00 0. -1.
        -11    1    4    4    0    0 -0.69793934767E-01 -0.65513187537E-01  0.52599099586E-01  0.10922498556E+00  0.51100000000E-03 0.  1.
         11    1    4    4    0    0  0.22665204846E-02 -0.26871111725E-01  0.17076281233E-01  0.31922629312E-01  0.51100000000E-03 0. -1.
</event>
<event>
 8    1  0.2091070E+004  0.1043930E+01  0.7957747E-01            NaN
         13   -1    0    0    0    0  0.00000000000E+00  0.00000000000E+00  0.74505805969E-08  0.10566000000E+00  0.10566000000E+00 0. -1.
     999900   -1    0    0    0    0 -0.00000000000E+00 -0.00000000000E+00 -0.74505805969E-08  0.93827000000E+00  0.93827000000E+00 0. -1.
     999902    2    1    2    0    0  0.10174882279E-02  0.13827928665E-01  0.11564351957E-02  0.10300165448E+01  0.10299225691E+01 0.  0.
     999903    2    3    3    0    0 -0.23968446401E-01  0.58552054705E-01 -0.11712268680E+00  0.14062658809E+00  0.45335239953E-01 0.  0.
         14    1    1    2    0    0 -0.10174882279E-02 -0.13827928665E-01 -0.11564351957E-02  0.13913455208E-01  0.00000000000E+00 0.  1.
     999901    1    3    3    0    0  0.24985934628E-01 -0.44724126040E-01  0.11827912200E+00  0.88938995670E+00  0.88000000000E+00 0.  1.
        -11    1    4    4    0    0  0.86135610848E-02 -0.15099388393E-02 -0.20399861781E-01  0.22201099782E-01  0.51100000000E-03 0. -1.
         11    1    4    4    0    0 -0.32582007485E-01  0.60061993544E-01 -0.96722825021E-01  0.11842548831E+00  0.51100000000E-03 0.  1.
</event>
<event>
 8    1  0.2091070E+004  0.1043930E+01  0.7957747E-01            NaN
         13   -1    0    0    0    0  0.00000000000E+00  0.00000000000E+00  0.74505805969E-08  0.10566000000E+00  0.10566000000E+00 0. -1.
     999900   -1    0    0    0    0 -0.00000000000E+00 -0.00000000000E+00 -0.74505805969E-08  0.93827000000E+00  0.93827000000E+00 0.  1.
     999902    2    1    2    0    0  0.99362962414E-02  0.72709057161E-02 -0.61177648398E-02  0.10301814328E+01  0.10300896861E+01 0.  0.
     999903    2    3    3    0    0  0.76789082671E-01  0.26337869966E-01 -0.10695312938E+00  0.14169923552E+00  0.45270905127E-01 0.  0.
         14    1    1    2    0    0 -0.99362962414E-02 -0.72709057161E-02  0.61177648398E-02  0.13748567182E-01  0.00000000000E+00 0.  1.
     999901    1    3    3    0    0 -0.66852786430E-01 -0.19066964250E-01  0.10083536454E+00  0.88848219730E+00  0.88000000000E+00 0. -1.
        -11    1    4    4    0    0  0.13022890459E-02  0.16763034164E-01 -0.20893995725E-01  0.26823785145E-01  0.51100000000E-03 0. -1.
         11    1    4    4    0    0  0.75486793626E-01  0.95748358015E-02 -0.86059133651E-01  0.11487545037E+00  0.51100000000E-03 0.  1.
</event>
<event>
 8    1  0.2091070E+004  0.1043930E+01  0.7957747E-01            NaN
         13   -1    0    0    0    0  0.00000000000E+00  0.00000000000E+00  0.74505805969E-08  0.10566000000E+00  0.10566000000E+00 0. -1.
     999900   -1    0    0    0    0 -0.00000000000E+00 -0.00000000000E+00 -0.74505805969E-08  0.93827000000E+00  0.93827000000E+00 0. -1.
     999902    2    1    2    0    0 -0.15432265795E-02 -0.29700017257E-02 -0.11637882342E-01  0.10318203855E+01  0.10317493228E+01 0.  0.
     999903    2    3    3    0    0  0.65868798503E-01  0.49312930687E-01  0.10402631607E+00  0.14016120566E+00  0.45312530166E-01 0.  0.
         14    1    1    2    0    0  0.15432265795E-02  0.29700017257E-02  0.11637882342E-01  0.12109614525E-01  0.00000000000E+00 0. -1.
     999901    1    3    3    0    0 -0.67412025082E-01 -0.52282932413E-01 -0.11566419841E+00  0.89165917981E+00  0.88000000000E+00 0. -1.
        -11    1    4    4    0    0  0.25749077549E-01  0.36536918115E-01  0.26577407229E-01  0.52005586969E-01  0.51100000000E-03 0. -1.
         11    1    4    4    0    0  0.40119720954E-01  0.12776012571E-01  0.77448908836E-01  0.88155618695E-01  0.51100000000E-03 0.  1.
</event>
<event>
 8    1  0.2091070E+004  0.1043930E+01  0.7957747E-01            NaN
         13   -1    0    0    0    0  0.00000000000E+00  0.00000000000E+00  0.74505805969E-08  0.10566000000E+00  0.10566000000E+00 0.  1.
     999900   -1    0    0    0    0 -0.00000000000E+00 -0.00000000000E+00 -0.74505805969E-08  0.93827000000E+00  0.93827000000E+00 0.  1.
     999902    2    1    2    0    0  0.49653205911E-02 -0.99181932749E-02 -0.79049680190E-02  0.10303096665E+01  0.10302196345E+01 0.  0.
     999903    2    3    3    0    0 -0.90731439341E-01 -0.94815510657E-01 -0.24809153515E-01  0.14089908869E+00  0.44887458707E-01 0.  0.
         14    1    1    2    0    0 -0.49653205911E-02  0.99181932749E-02  0.79049680190E-02  0.13620333542E-01  0.00000000000E+00 0.  1.
     999901    1    3    3    0    0  0.95696759932E-01  0.84897317383E-01  0.16904185496E-01  0.88941057777E+00  0.88000000000E+00 0. -1.
        -11    1    4    4    0    0 -0.79492707957E-01 -0.80775512570E-01 -0.36940232519E-01  0.11919989911E+00  0.51100000000E-03 0. -1.
         11    1    4    4    0    0 -0.11238731383E-01 -0.14039998087E-01  0.12131079004E-01  0.21699189575E-01  0.51100000000E-03 0.  1.
</event>
<event>
 8    1  0.2091070E+004  0.1043930E+01  0.7957747E-01            NaN
         13   -1    0    0    0    0  0.00000000000E+00  0.00000000000E+00  0.74505805969E-08  0.10566000000E+00  0.10566000000E+00 0. -1.
     999900   -1    0    0    0    0 -0.00000000000E+00 -0.00000000000E+00 -0.74505805969E-08  0.93827000000E+00  0.93827000000E+00 0.  1.
     999902    2    1    2    0    0 -0.13805786719E-01  0.28328379387E-02 -0.39022656489E-02  0.10293063071E+01  0.10292024200E+01 0.  0.
     999903    2    3    3    0    0  0.31567751799E-01  0.70066127038E-01 -0.10724852214E+00  0.13955380109E+00  0.45466831717E-01 0.  0.
         14    1    1    2    0    0  0.13805786719E-01 -0.28328379387E-02  0.39022656489E-02  0.14623692930E-01  0.00000000000E+00 0. -1.
     999901    1    3    3    0    0 -0.45373538519E-01 -0.67233289099E-01  0.10334625649E+00  0.88975250598E+00  0.88000000000E+00 0.  1.
        -11    1    4    4    0    0 -0.11212957862E-01  0.23099870867E-01 -0.28282077345E-01  0.38203029697E-01  0.51100000000E-03 0. -1.
         11    1    4    4    0    0  0.42780709661E-01  0.46966256171E-01 -0.78966444796E-01  0.10135077140E+00  0.51100000000E-03 0.  1.
</event>
<event>
 8    1  0.2091070E+004  0.1043930E+01  0.7957747E-01            NaN
         13   -1    0    0    0    0  0.00000000000E+00  0.00000000000E+00  0.74505805969E-08  0.10566000000E+00  0.10566000000E+00 0. -1.
     999900   -1    0    0    0    0 -0.00000000000E+00 -0.00000000000E+00 -0.74505805969E-08  0.93827000000E+00  0.93827000000E+00 0.  1.
     999902    2    1    2    0    0  0.61724703495E-02 -0.10652693874E-01 -0.68368676044E-02  0.10298473143E+01  0.10297510227E+01 0.  0.
     999903    2    3    3    0    0 -0.61247586002E-01 -0.10890303971E+00 -0.50918095598E-01  0.14072316714E+00  0.39990229566E-01 0.  0.
         14    1    1    2    0    0 -0.61724703495E-02  0.10652693874E-01  0.68368676044E-02  0.14082685668E-01  0.00000000000E+00 0. -1.
     999901    1    3    3    0    0  0.67420056351E-01  0.98250345841E-01  0.44081227993E-01  0.88912414719E+00  0.88000000000E+00 0. -1.
        -11    1    4    4    0    0 -0.53706449553E-01 -0.62281307955E-01 -0.43098403218E-01  0.92849757809E-01  0.51100000000E-03 0. -1.
         11    1    4    4    0    0 -0.75411364492E-02 -0.46621731760E-01 -0.78196923796E-02  0.47873409333E-01  0.51100000000E-03 0.  1.
</event>
<event>
 7    1  0.2091070E+004  0.1043930E+01  0.7957747E-01            NaN
         13   -1    0    0    0    0  0.00000000000E+00  0.00000000000E+00  0.74505805969E-08  0.10566000000E+00  0.10566000000E+00 0.  1.
     999900   -1    0    0    0    0 -0.00000000000E+00 -0.00000000000E+00 -0.74505805969E-08  0.93827000000E+00  0.93827000000E+00 0.  1.
     999902    2    1    2    0    0  0.34863887552E-02 -0.33764023246E-04  0.13436301808E-01  0.10300487085E+01  0.10299551697E+01 0.  0.
         14    1    1    2    0    0 -0.34863887552E-02  0.33764023246E-04 -0.13436301808E-01  0.13881291469E-01  0.00000000000E+00 0. -1.
     999901    1    3    3    0    0 -0.60270237973E-01 -0.77993850609E-01 -0.80644126206E-01  0.88916759804E+00  0.88000000000E+00 0.  1.
        -11    1    3    3    0    0  0.98827705131E-02  0.29287617773E-01  0.38888501849E-01  0.49679074115E-01  0.51100000000E-03 0. -1.
         11    1    3    3    0    0  0.53873856215E-01  0.48672468813E-01  0.55191926165E-01  0.91202036373E-01  0.51100000000E-03 0.  1.
</event>
<event>
 8    1  0.2091070E+004  0.1043930E+01  0.7957747E-01            NaN
         13   -1    0    0    0    0  0.00000000000E+00  0.00000000000E+00  0.74505805969E-08  0.10566000000E+00  0.10566000000E+00 0. -1.
     999900   -1    0    0    0    0 -0.00000000000E+00 -0.00000000000E+00 -0.74505805969E-08  0.93827000000E+00  0.93827000000E+00 0. -1.
     999902    2    1    2    0    0  0.95657324160E-02 -0.92796288723E-02 -0.42361044124E-02  0.10299457471E+01  0.10298508060E+01 0.  0.
     999903    2    3    3    0    0  0.92524649153E-01  0.94389287607E-01 -0.99406662269E-02  0.13996711357E+00  0.44964738631E-01 0.  0.
         14    1    1    2    0    0 -0.95657324160E-02  0.92796288723E-02  0.42361044124E-02  0.13984252903E-01  0.00000000000E+00 0.  1.
     999901    1    3    3    0    0 -0.82958916737E-01 -0.10366891648E+00  0.57045618145E-02  0.88997863353E+00  0.88000000000E+00 0.  1.
        -11    1    4    4    0    0  0.69028203848E-01  0.38630441618E-01 -0.57070986100E-02  0.79309747457E-01  0.51100000000E-03 0. -1.
         11    1    4    4    0    0  0.23496445305E-01  0.55758845989E-01 -0.42335676168E-02  0.60657366113E-01  0.51100000000E-03 0.  1.
</event>
<event>
 8    1  0.2091070E+004  0.1043930E+01  0.7957747E-01            NaN
         13   -1    0    0    0    0  0.00000000000E+00  0.00000000000E+00  0.74505805969E-08  0.10566000000E+00  0.10566000000E+00 0.  1.
     999900   -1    0    0    0    0 -0.00000000000E+00 -0.00000000000E+00 -0.74505805969E-08  0.93827000000E+00  0.93827000000E+00 0.  1.
     999902    2    1    2    0    0 -0.46319851676E-03 -0.95700965799E-02  0.80986979276E-02  0.10313844745E+01  0.10313081712E+01 0.  0.
     999903    2    3    3    0    0 -0.11623794805E+00  0.15884066522E-01 -0.63313074991E-01  0.14056948343E+00  0.44583293605E-01 0.  0.
         14    1    1    2    0    0  0.46319851676E-03  0.95700965799E-02 -0.80986979276E-02  0.12545525479E-01  0.00000000000E+00 0. -1.
     999901    1    3    3    0    0  0.11577474954E+00 -0.25454163102E-01  0.71411772919E-01  0.89081499110E+00  0.88000000000E+00 0. -1.
        -11    1    4    4    0    0 -0.98450913199E-01  0.29582629441E-01 -0.48497458571E-01  0.11366608502E+00  0.51100000000E-03 0. -1.
         11    1    4    4    0    0 -0.17787034855E-01 -0.13698562920E-01 -0.14815616420E-01  0.26903398408E-01  0.51100000000E-03 0.  1.
</event>
<event>
 8    1  0.2091070E+004  0.1043930E+01  0.7957747E-01            NaN
         13   -1    0    0    0    0  0.00000000000E+00  0.00000000000E+00  0.74505805969E-08  0.10566000000E+00  0.10566000000E+00 0.  1.
     999900   -1    0    0    0    0 -0.00000000000E+00 -0.00000000000E+00 -0.74505805969E-08  0.93827000000E+00  0.93827000000E+00 0.  1.
     999902    2    1    2    0    0  0.15403874784E-02  0.10197353217E-01  0.97150615276E-02  0.10297616823E+01  0.10296642079E+01 0.  0.
     999903    2    3    3    0    0 -0.56536354259E-01  0.11832108334E+00 -0.24261757989E-01  0.14059461519E+00  0.44519375621E-01 0.  0.
         14    1    1    2    0    0 -0.15403874784E-02 -0.10197353217E-01 -0.97150615276E-02  0.14168317709E-01  0.00000000000E+00 0. -1.
     999901    1    3    3    0    0  0.58076741737E-01 -0.10812373012E+00  0.33976819517E-01  0.88916706710E+00  0.88000000000E+00 0. -1.
        -11    1    4    4    0    0 -0.17333708855E-01  0.36194937010E-01 -0.28923533275E-01  0.49470828030E-01  0.51100000000E-03 0. -1.
         11    1    4    4    0    0 -0.39202645404E-01  0.82126146328E-01  0.46617752858E-02  0.91123787164E-01  0.51100000000E-03 0.  1.
</event>
<event>
 8    1  0.2091070E+004  0.1043930E+01  0.7957747E-01            NaN
         13   -1    0    0    0    0  0.00000000000E+00  0.00000000000E+00  0.74505805969E-08  0.10566000000E+00  0.10566000000E+00 0.  1.
     999900   -1    0    0    0    0 -0.00000000000E+00 -0.00000000000E+00 -0.74505805969E-08  0.93827000000E+00  0.93827000000E+00 0. -1.
     999902    2    1    2    0    0  0.40675796148E-02  0.12639048190E-01 -0.77393549404E-02  0.10285615792E+01  0.10284467579E+01 0.  0.
     999903    2    3    3    0    0  0.11618186321E+00  0.22347479898E-01 -0.60204019218E-01  0.13984542247E+00  0.43983895448E-01 0.  0.
         14    1    1    2    0    0 -0.40675796148E-02 -0.12639048190E-01  0.77393549404E-02  0.15368420803E-01  0.00000000000E+00 0.  1.
     999901    1    3    3    0    0 -0.11211428360E+00 -0.97084317076E-02  0.52464664277E-01  0.88871615673E+00  0.88000000000E+00 0.  1.
        -11    1    4    4    0    0  0.39689827925E-01  0.91272903040E-02  0.13859760462E-02  0.40752569485E-01  0.51100000000E-03 0. -1.
         11    1    4    4    0    0  0.76492035286E-01  0.13220189594E-01 -0.61589995264E-01  0.99092852984E-01  0.51100000000E-03 0.  1.
</event>
<event>
 8    1  0.2091070E+004  0.1043930E+01  0.7957747E-01            NaN
         13   -1    0    0    0    0  0.00000000000E+00  0.00000000000E+00  0.74505805969E-08  0.10566000000E+00  0.10566000000E+00 0. -1.
     999900   -1    0    0    0    0 -0.00000000000E+00 -0.00000000000E+00 -0.74505805969E-08  0.93827000000E+00  0.93827000000E+00 0.  1.
     999902    2    1    2    0    0 -0.12361804806E-01  0.49446390376E-02  0.12251406601E-01  0.10258368898E+01  0.10256773195E+01 0.  0.
     999903    2    3    3    0    0  0.35190204598E-01 -0.12137292787E+00  0.19377127219E-01  0.13551779126E+00  0.44942858937E-01 0.  0.
         14    1    1    2    0    0  0.12361804806E-01 -0.49446390376E-02 -0.12251406601E-01  0.18093110208E-01  0.00000000000E+00 0.  1.
     999901    1    3    3    0    0 -0.47552009404E-01  0.12631756691E+00 -0.71257206187E-02  0.89031909853E+00  0.88000000000E+00 0. -1.
        -11    1    4    4    0    0  0.21516761461E-01 -0.57444647218E-01  0.31606015485E-01  0.69007679671E-01  0.51100000000E-03 0.  1.
         11    1    4    4    0    0  0.13673443137E-01 -0.63928280657E-01 -0.12228888265E-01  0.66510111594E-01  0.51100000000E-03 0. -1.
</event>
<event>
 8    1  0.2091070E+004  0.1043930E+01  0.7957747E-01            NaN
         13   -1    0    0    0    0  0.00000000000E+00  0.00000000000E+00  0.74505805969E-08  0.10566000000E+00  0.10566000000E+00 0. -1.
     999900   -1    0    0    0    0 -0.00000000000E+00 -0.00000000000E+00 -0.74505805969E-08  0.93827000000E+00  0.93827000000E+00 0.  1.
     999902    2    1    2    0    0 -0.36031124534E-02 -0.13471452938E-01  0.12661226676E-02  0.10299276598E+01  0.10298324713E+01 0.  0.
     999903    2    3    3    0    0 -0.13212075618E+00 -0.13029774281E-01 -0.67770794856E-02  0.14055615538E+00  0.45655610565E-01 0.  0.
         14    1    1    2    0    0  0.36031124534E-02  0.13471452938E-01 -0.12661226676E-02  0.14002340169E-01  0.00000000000E+00 0. -1.
     999901    1    3    3    0    0  0.12851764373E+00 -0.44167865670E-03  0.80432021532E-02  0.88937150445E+00  0.88000000000E+00 0.  1.
        -11    1    4    4    0    0 -0.90741781838E-01 -0.18567527723E-01  0.14408936429E-01  0.93737413166E-01  0.51100000000E-03 0.  1.
         11    1    4    4    0    0 -0.41378974346E-01  0.55377534422E-02 -0.21186015915E-01  0.46818742213E-01  0.51100000000E-03 0. -1.
</event>
<event>
 8    1  0.2091070E+004  0.1043930E+01  0.7957747E-01            NaN
         13   -1    0    0    0    0  0.00000000000E+00  0.00000000000E+00  0.74505805969E-08  0.10566000000E+00  0.10566000000E+00 0.  1.
     999900   -1    0    0    0    0 -0.00000000000E+00 -0.00000000000E+00 -0.74505805969E-08  0.93827000000E+00  0.93827000000E+00 0. -1.
     999902    2    1    2    0    0  0.92485285300E-02 -0.80855749583E-03 -0.10807638435E-01  0.10296824004E+01  0.10295838245E+01 0.  0.
     999903    2    3    3    0    0 -0.11784941983E+00 -0.20912659864E-01  0.52658494080E-01  0.13806251875E+00  0.44300304630E-01 0.  0.
         14    1    1    2    0    0 -0.92485285300E-02  0.80855749583E-03  0.10807638435E-01  0.14247599578E-01  0.00000000000E+00 0.  1.
     999901    1    3    3    0    0  0.12709794836E+00  0.20104102369E-01 -0.63466132515E-01  0.89161988167E+00  0.88000000000E+00 0.  1.
        -11    1    4    4    0    0 -0.67351848091E-01 -0.24891746829E-01  0.49682924466E-01  0.87318523842E-01  0.51100000000E-03 0. -1.
         11    1    4    4    0    0 -0.50497571734E-01  0.39790869646E-02  0.29755696137E-02  0.50743994912E-01  0.51100000000E-03 0.  1.
</event>
<event>
 8    1  0.2091070E+004  0.1043930E+01  0.7957747E-01            NaN
         13   -1    0    0    0    0  0.00000000000E+00  0.00000000000E+00  0.74505805969E-08  0.10566000000E+00  0.10566000000E+00 0. -1.
     999900   -1    0    0    0    0 -0.00000000000E+00 -0.00000000000E+00 -0.74505805969E-08  0.93827000000E+00  0.93827000000E+00 0.  1.
     999902    2    1    2    0    0  0.13753726181E-01 -0.16263845859E-02  0.85200189520E-03  0.10300542651E+01  0.10299608017E+01 0.  0.
     999903    2    3    3    0    0 -0.81902477556E-01  0.76012787424E-02 -0.10229704319E+00  0.13883320133E+00  0.45212580951E-01 0.  0.
         14    1    1    2    0    0 -0.13753726181E-01  0.16263845859E-02 -0.85200189520E-03  0.13875734860E-01  0.00000000000E+00 0.  1.
     999901    1    3    3    0    0  0.95656203737E-01 -0.92276633283E-02  0.10314904509E+00  0.89122106381E+00  0.88000000000E+00 0. -1.
        -11    1    4    4    0    0 -0.30250993101E-01  0.17262813688E-01 -0.17274976051E-01  0.38882042624E-01  0.51100000000E-03 0. -1.
         11    1    4    4    0    0 -0.51651484455E-01 -0.96615349460E-02 -0.85022067141E-01  0.99951158702E-01  0.51100000000E-03 0.  1.
</event>
<event>
 8    1  0.2091070E+004  0.1043930E+01  0.7957747E-01            NaN
         13   -1    0    0    0    0  0.00000000000E+00  0.00000000000E+00  0.74505805969E-08  0.10566000000E+00  0.10566000000E+00 0. -1.
     999900   -1    0    0    0    0 -0.00000000000E+00 -0.00000000000E+00 -0.74505805969E-08  0.93827000000E+00  0.93827000000E+00 0. -1.
     999902    2    1    2    0    0  0.70536635488E-02  0.30814706637E-02 -0.10571219606E-01  0.10308532911E+01  0.10307703466E+01 0.  0.
     999903    2    3    3    0    0  0.34262526813E-01  0.11490898171E+00 -0.60907081064E-01  0.14193292720E+00  0.45357342040E-01 0.  0.
         14    1    1    2    0    0 -0.70536635488E-02 -0.30814706637E-02  0.10571219606E-01  0.13076708870E-01  0.00000000000E+00 0. -1.
     999901    1    3    3    0    0 -0.27208863264E-01 -0.11182751105E+00  0.50335861458E-01  0.88892036393E+00  0.88000000000E+00 0.  1.
        -11    1    4    4    0    0 -0.11190677314E-01  0.18885540813E-01 -0.10797388504E-01  0.24469156709E-01  0.51100000000E-03 0.  1.
         11    1    4    4    0    0  0.45453204127E-01  0.96023440900E-01 -0.50109692560E-01  0.11746377049E+00  0.51100000000E-03 0. -1.
</event>
<event>
 8    1  0.2091070E+004  0.1043930E+01  0.7957747E-01            NaN
         13   -1    0    0    0    0  0.00000000000E+00  0.00000000000E+00  0.74505805969E-08  0.10566000000E+00  0.10566000000E+00 0. -1.
     999900   -1    0    0    0    0 -0.00000000000E+00 -0.00000000000E+00 -0.74505805969E-08  0.93827000000E+00  0.93827000000E+00 0.  1.
     999902    2    1    2    0    0 -0.56167381415E-02  0.78952328180E-02  0.37672504898E-02  0.10335341054E+01  0.10334818200E+01 0.  0.
     999903    2    3    3    0    0  0.32676004552E-03 -0.11225991280E+00 -0.74071693134E-01  0.14194480232E+00  0.45379691369E-01 0.  0.
         14    1    1    2    0    0  0.56167381415E-02 -0.78952328180E-02 -0.37672504898E-02  0.10395894615E-01  0.00000000000E+00 0.  1.
     999901    1    3    3    0    0 -0.59434981871E-02  0.12015514562E+00  0.77838943624E-01  0.89158930306E+00  0.88000000000E+00 0. -1.
        -11    1    4    4    0    0  0.21340253944E-01 -0.38706862807E-01 -0.21737987873E-01  0.49258795199E-01  0.51100000000E-03 0.  1.
         11    1    4    4    0    0 -0.21013493898E-01 -0.73553049994E-01 -0.52333705261E-01  0.92686007124E-01  0.51100000000E-03 0. -1.
</event>
<event>
 8    1  0.2091070E+004  0.1043930E+01  0.7957747E-01            NaN
         13   -1    0    0    0    0  0.00000000000E+00  0.00000000000E+00  0.74505805969E-08  0.10566000000E+00  0.10566000000E+00 0.  1.
     999900   -1    0    0    0    0 -0.00000000000E+00 -0.00000000000E+00 -0.74505805969E-08  0.93827000000E+00  0.93827000000E+00 0.  1.
     999902    2    1    2    0    0  0.51596296295E-02 -0.10675450715E-01  0.68632927557E-02  0.10302299338E+01  0.10301388376E+01 0.  0.
     999903    2    3    3    0    0  0.31794228496E-01 -0.91247951459E-01 -0.91903294991E-01  0.14064791479E+00  0.44705242337E-01 0.  0.
         14    1    1    2    0    0 -0.51596296295E-02  0.10675450715E-01 -0.68632927557E-02  0.13700066180E-01  0.00000000000E+00 0.  1.
     999901    1    3    3    0    0 -0.26634598866E-01  0.80572500745E-01  0.98766587747E-01  0.88958201903E+00  0.88000000000E+00 0. -1.
        -11    1    4    4    0    0  0.92116238469E-02 -0.13567980934E-01  0.21971929792E-02  0.16553939063E-01  0.51100000000E-03 0. -1.
         11    1    4    4    0    0  0.22582604649E-01 -0.77679970525E-01 -0.94100487971E-01  0.12409397572E+00  0.51100000000E-03 0.  1.
</event>
<event>
 8    1  0.2091070E+004  0.1043930E+01  0.7957747E-01            NaN
         13   -1    0    0    0    0  0.00000000000E+00  0.00000000000E+00  0.74505805969E-08  0.10566000000E+00  0.10566000000E+00 0. -1.
     999900   -1    0    0    0    0 -0.00000000000E+00 -0.00000000000E+00 -0.74505805969E-08  0.93827000000E+00  0.93827000000E+00 0.  1.
     999902    2    1    2    0    0 -0.11738136934E-01  0.49650404106E-02 -0.50370819058E-02  0.10302257058E+01  0.10301345530E+01 0.  0.
     999903    2    3    3    0    0 -0.10888894681E+00 -0.60640873238E-01 -0.49081488473E-01  0.14135995357E+00  0.45161108460E-01 0.  0.
         14    1    1    2    0    0  0.11738136934E-01 -0.49650404106E-02  0.50370819058E-02  0.13704294184E-01  0.00000000000E+00 0.  1.
     999901    1    3    3    0    0  0.97150809880E-01  0.65605913648E-01  0.44044406567E-01  0.88886575225E+00  0.88000000000E+00 0. -1.
        -11    1    4    4    0    0 -0.16622185969E-01  0.70516031203E-02 -0.51785842038E-02  0.18790982633E-01  0.51100000000E-03 0.  1.
         11    1    4    4    0    0 -0.92266760845E-01 -0.67692476358E-01 -0.43902904269E-01  0.12256897094E+00  0.51100000000E-03 0. -1.
</event>
<event>
 8    1  0.2091070E+004  0.1043930E+01  0.7957747E-01            NaN
         13   -1    0    0    0    0  0.00000000000E+00  0.00000000000E+00  0.74505805969E-08  0.10566000000E+00  0.10566000000E+00 0.  1.
     999900   -1    0    0    0    0 -0.00000000000E+00 -0.00000000000E+00 -0.74505805969E-08  0.93827000000E+00  0.93827000000E+00 0.  1.
     999902    2    1    2    0    0  0.13625428465E-02  0.13191605654E-01  0.69196252986E-03  0.10306501734E+01  0.10305646152E+01 0.  0.
     999903    2    3    3    0    0  0.26049871944E-01 -0.46804380659E-01 -0.12062893149E+00  0.13996069780E+00  0.46566210288E-01 0.  0.
         14    1    1    2    0    0 -0.13625428465E-02 -0.13191605654E-01 -0.69196252986E-03  0.13279826614E-01  0.00000000000E+00 0.  1.
     999901    1    3    3    0    0 -0.24687329097E-01  0.59995986313E-01  0.12132089402E+00  0.89068947558E+00  0.88000000000E+00 0.  1.
        -11    1    4    4    0    0  0.15394941304E-01 -0.46613773678E-01 -0.11954997235E+00  0.12923739832E+00  0.51100000000E-03 0. -1.
         11    1    4    4    0    0  0.10654930640E-01 -0.19060698034E-03 -0.10789591344E-02  0.10723299482E-01  0.51100000000E-03 0.  1.
</event>
<event>
 8    1  0.2091070E+004  0.1043930E+01  0.7957747E-01            NaN
         13   -1    0    0    0    0  0.00000000000E+00  0.00000000000E+00  0.74505805969E-08  0.10566000000E+00  0.10566000000E+00 0.  1.
     999900   -1    0    0    0    0 -0.00000000000E+00 -0.00000000000E+00 -0.74505805969E-08  0.93827000000E+00  0.93827000000E+00 0. -1.
     999902    2    1    2    0    0 -0.73871328058E-03 -0.14186461332E-01 -0.24199457033E-03  0.10297222576E+01  0.10296242363E+01 0.  0.
     999903    2    3    3    0    0  0.34368325874E-01 -0.11822805100E+00 -0.52691561695E-01  0.14134839843E+00  0.45209680363E-01 0.  0.
         14    1    1    2    0    0  0.73871328058E-03  0.14186461332E-01  0.24199457033E-03  0.14207742390E-01  0.00000000000E+00 0.  1.
     999901    1    3    3    0    0 -0.35107039154E-01  0.10404158967E+00  0.52449567125E-01  0.88837385918E+00  0.88000000000E+00 0. -1.
        -11    1    4    4    0    0  0.36829656474E-01 -0.73428824300E-01 -0.16705022427E-01  0.83830392635E-01  0.51100000000E-03 0.  1.
         11    1    4    4    0    0 -0.24613306001E-02 -0.44799226701E-01 -0.35986539269E-01  0.57518005797E-01  0.51100000000E-03 0. -1.
</event>
<event>
 8    1  0.2091070E+004  0.1043930E+01  0.7957747E-01            NaN
         13   -1    0    0    0    0  0.00000000000E+00  0.00000000000E+00  0.74505805969E-08  0.10566000000E+00  0.10566000000E+00 0. -1.
     999900   -1    0    0    0    0 -0.00000000000E+00 -0.00000000000E+00 -0.74505805969E-08  0.93827000000E+00  0.93827000000E+00 0. -1.
     999902    2    1    2    0    0  0.84983507201E-03  0.13709468879E-01 -0.88930159216E-03  0.10301654581E+01  0.10300734966E+01 0.  0.
     999903    2    3    3    0    0 -0.49762489368E-01 -0.10070491782E+00  0.67863866308E-01  0.13866152800E+00  0.44763033606E-01 0.  0.
         14    1    1    2    0    0 -0.84983507201E-03 -0.13709468879E-01  0.88930159216E-03  0.13764541907E-01  0.00000000000E+00 0.  1.
     999901    1    3    3    0    0  0.50612324440E-01  0.11441438670E+00 -0.68753167900E-01  0.89150393009E+00  0.88000000000E+00 0. -1.
        -11    1    4    4    0    0  0.25122214722E-02 -0.30672855064E-01  0.54213609647E-02  0.31253600916E-01  0.51100000000E-03 0.  1.
         11    1    4    4    0    0 -0.52274710840E-01 -0.70032062752E-01  0.62442505343E-01  0.10740792709E+00  0.51100000000E-03 0. -1.
</event>
<event>
 8    1  0.2091070E+004  0.1043930E+01  0.7957747E-01            NaN
         13   -1    0    0    0    0  0.00000000000E+00  0.00000000000E+00  0.74505805969E-08  0.10566000000E+00  0.10566000000E+00 0. -1.
     999900   -1    0    0    0    0 -0.00000000000E+00 -0.00000000000E+00 -0.74505805969E-08  0.93827000000E+00  0.93827000000E+00 0. -1.
     999902    2    1    2    0    0  0.13559031275E-01  0.32477690323E-02 -0.18594949124E-02  0.10298639752E+01  0.10297679128E+01 0.  0.
     999903    2    3    3    0    0  0.25324917956E-01  0.12950885806E+00  0.17922354373E-01  0.14055434392E+00  0.44949049209E-01 0.  0.
         14    1    1    2    0    0 -0.13559031275E-01 -0.32477690323E-02  0.18594949124E-02  0.14066024816E-01  0.00000000000E+00 0. -1.
     999901    1    3    3    0    0 -0.11765886681E-01 -0.12626108902E+00 -0.19781849285E-01  0.88930963126E+00  0.88000000000E+00 0.  1.
        -11    1    4    4    0    0  0.50167895601E-02  0.75537713917E-01 -0.10208781713E-01  0.76391064572E-01  0.51100000000E-03 0.  1.
         11    1    4    4    0    0  0.20308128396E-01  0.53971144139E-01  0.28131136086E-01  0.64163279352E-01  0.51100000000E-03 0. -1.
</event>
<event>
 8    1  0.2091070E+004  0.1043930E+01  0.7957747E-01            NaN
         13   -1    0    0    0    0  0.00000000000E+00  0.00000000000E+00  0.74505805969E-08  0.10566000000E+00  0.10566000000E+00 0.  1.
     999900   -1    0    0    0    0 -0.00000000000E+00 -0.00000000000E+00 -0.74505805969E-08  0.93827000000E+00  0.93827000000E+00 0.  1.
     999902    2    1    2    0    0 -0.48452420473E-02  0.11293678043E-01 -0.12075731983E-01  0.10267007563E+01  0.10265561827E+01 0.  0.
     999903    2    3    3    0    0 -0.11538206726E+00 -0.55863575439E-01  0.17479567071E-01  0.13675581303E+00  0.44304137801E-01 0.  0.
         14    1    1    2    0    0  0.48452420473E-02 -0.11293678043E-01  0.12075731983E-01  0.17229243662E-01  0.00000000000E+00 0.  1.
     999901    1    3    3    0    0  0.11053682521E+00  0.67157253482E-01 -0.29555299054E-01  0.88994494331E+00  0.88000000000E+00 0.  1.
        -11    1    4    4    0    0 -0.66647475335E-01 -0.49829741728E-01 -0.36415703090E-02  0.83297126508E-01  0.51100000000E-03 0.  1.
         11    1    4    4    0    0 -0.48734591922E-01 -0.60338337114E-02  0.21121137381E-01  0.53458686519E-01  0.51100000000E-03 0. -1.
</event>
<event>
 8    1  0.2091070E+004  0.1043930E+01  0.7957747E-01            NaN
         13   -1    0    0    0    0  0.00000000000E+00  0.00000000000E+00  0.74505805969E-08  0.10566000000E+00  0.10566000000E+00 0.  1.
     999900   -1    0    0    0    0 -0.00000000000E+00 -0.00000000000E+00 -0.74505805969E-08  0.93827000000E+00  0.93827000000E+00 0. -1.
     999902    2    1    2    0    0 -0.84581505658E-02 -0.10667304392E-01  0.31337075964E-02  0.10299603251E+01  0.10298655832E+01 0.  0.
     999903    2    3    3    0    0  0.16344785402E-01  0.12456595345E+00  0.38030371063E-01  0.13860125222E+00  0.44499092407E-01 0.  0.
         14    1    1    2    0    0  0.84581505658E-02  0.10667304392E-01 -0.31337075964E-02  0.13969674917E-01  0.00000000000E+00 0. -1.
     999901    1    3    3    0    0 -0.24802935968E-01 -0.13523325784E+00 -0.34896663467E-01  0.89135907287E+00  0.88000000000E+00 0.  1.
        -11    1    4    4    0    0 -0.12484014613E-01  0.49619073389E-01  0.26027454817E-01  0.57407252069E-01  0.51100000000E-03 0. -1.
         11    1    4    4    0    0  0.28828800015E-01  0.74946880059E-01  0.12002916246E-01  0.81194000149E-01  0.51100000000E-03 0.  1.
</event>
<event>
 8    1  0.2091070E+004  0.1043930E+01  0.7957747E-01            NaN
         13   -1    0    0    0    0  0.00000000000E+00  0.00000000000E+00  0.74505805969E-08  0.10566000000E+00  0.10566000000E+00 0. -1.
     999900   -1    0    0    0    0 -0.00000000000E+00 -0.00000000000E+00 -0.74505805969E-08  0.93827000000E+00  0.93827000000E+00 0. -1.
     999902    2    1    2    0    0 -0.31466779476E-02  0.16173063169E-02 -0.10527908092E-01  0.10328235104E+01  0.10327637918E+01 0.  0.
     999903    2    3    3    0    0 -0.11127302823E+00  0.73979508113E-01 -0.24129173905E-01  0.14315357708E+00  0.45343965030E-01 0.  0.
         14    1    1    2    0    0  0.31466779476E-02 -0.16173063169E-02  0.10527908092E-01  0.11106489572E-01  0.00000000000E+00 0. -1.
     999901    1    3    3    0    0  0.10812635028E+00 -0.72362201796E-01  0.13601265813E-01  0.88966993335E+00  0.88000000000E+00 0.  1.
        -11    1    4    4    0    0 -0.89836377302E-01  0.76287592766E-01 -0.28249723740E-01  0.12119686262E+00  0.51100000000E-03 0.  1.
         11    1    4    4    0    0 -0.21436650929E-01 -0.23080846528E-02  0.41205498352E-02  0.21956714457E-01  0.51100000000E-03 0. -1.
</event>
<event>
 8    1  0.2091070E+004  0.1043930E+01  0.7957747E-01            NaN
         13   -1    0    0    0    0  0.00000000000E+00  0.00000000000E+00  0.74505805969E-08  0.10566000000E+00  0.10566000000E+00 0. -1.
     999900   -1    0    0    0    0 -0.00000000000E+00 -0.00000000000E+00 -0.74505805969E-08  0.93827000000E+00  0.93827000000E+00 0. -1.
     999902    2    1    2    0    0 -0.54324680658E-02 -0.11179221784E-01  0.57120344741E-02  0.10302510363E+01  0.10301602224E+01 0.  0.
     999903    2    3    3    0    0 -0.76726294839E-01  0.74700121236E-01  0.78295276925E-01  0.14023620591E+00  0.45486378488E-01 0.  0.
         14    1    1    2    0    0  0.54324680658E-02  0.11179221784E-01 -0.57120344741E-02  0.13678963660E-01  0.00000000000E+00 0.  1.
     999901    1    3    3    0    0  0.71293826774E-01 -0.85879343019E-01 -0.72583242451E-01  0.89001483043E+00  0.88000000000E+00 0. -1.
        -11    1    4    4    0    0 -0.33483403131E-01  0.19332737338E-01  0.54791731530E-02  0.39053495076E-01  0.51100000000E-03 0. -1.
         11    1    4    4    0    0 -0.43242891708E-01  0.55367383898E-01  0.72816103772E-01  0.10118271084E+00  0.51100000000E-03 0.  1.
</event>
<event>
 8    1  0.2091070E+004  0.1043930E+01  0.7957747E-01            NaN
         13   -1    0    0    0    0  0.00000000000E+00  0.00000000000E+00  0.74505805969E-08  0.10566000000E+00  0.10566000000E+00 0.  1.
     999900   -1    0    0    0    0 -0.00000000000E+00 -0.00000000000E+00 -0.74505805969E-08  0.93827000000E+00  0.93827000000E+00 0. -1.
     999902    2    1    2    0    0  0.33690889030E-02 -0.52841559664E-03 -0.15085944921E-01  0.10284633999E+01  0.10283470957E+01 0.  0.
     999903    2    3    3    0    0 -0.23455480862E-01 -0.12318767640E+00 -0.38669723099E-01  0.13923843044E+00  0.46547071083E-01 0.  0.
         14    1    1    2    0    0 -0.33690889030E-02  0.52841559664E-03  0.15085944921E-01  0.15466600055E-01  0.00000000000E+00 0.  1.
     999901    1    3    3    0    0  0.26824569765E-01  0.12265926080E+00  0.23583778178E-01  0.88922496951E+00  0.88000000000E+00 0. -1.
        -11    1    4    4    0    0 -0.97368647252E-02 -0.26640847189E-01 -0.30072938497E-01  0.41342278898E-01  0.51100000000E-03 0. -1.
         11    1    4    4    0    0 -0.13718616136E-01 -0.96546829212E-01 -0.85967846021E-02  0.97896151539E-01  0.51100000000E-03 0.  1.
</event>
<event>
 8    1  0.2091070E+004  0.1043930E+01  0.7957747E-01            NaN
         13   -1    0    0    0    0  0.00000000000E+00  0.00000000000E+00  0.74505805969E-08  0.10566000000E+00  0.10566000000E+00 0.  1.
     999900   -1    0    0    0    0 -0.00000000000E+00 -0.00000000000E+00 -0.74505805969E-08  0.93827000000E+00  0.93827000000E+00 0. -1.
     999902    2    1    2    0    0 -0.15508706665E-02 -0.13266973274E-01  0.21287751900E-02  0.10304041188E+01  0.10303153393E+01 0.  0.
     999903    2    3    3    0    0  0.76088327179E-01  0.96088489512E-01  0.47901369388E-01  0.13906714955E+00  0.44974432138E-01 0.  0.
         14    1    1    2    0    0  0.15508706665E-02  0.13266973274E-01 -0.21287751900E-02  0.13525881246E-01  0.00000000000E+00 0. -1.
     999901    1    3    3    0    0 -0.77639197845E-01 -0.10935546279E+00 -0.45772594198E-01  0.89133696920E+00  0.88000000000E+00 0.  1.
        -11    1    4    4    0    0  0.18770231809E-01  0.19243211840E-01 -0.80496166057E-02  0.28065641852E-01  0.51100000000E-03 0. -1.
         11    1    4    4    0    0  0.57318095370E-01  0.76845277672E-01  0.55950985994E-01  0.11100150770E+00  0.51100000000E-03 0.  1.
</event>
<event>
 8    1  0.2091070E+004  0.1043930E+01  0.7957747E-01            NaN
         13   -1    0    0    0    0  0.00000000000E+00  0.00000000000E+00  0.74505805969E-08  0.10566000000E+00  0.10566000000E+00 0. -1.
     999900   -1    0    0    0    0 -0.00000000000E+00 -0.00000000000E+00 -0.74505805969E-08  0.93827000000E+00  0.93827000000E+00 0. -1.
     999902    2    1    2    0    0  0.11046527308E-01 -0.69566881633E-02  0.46710095262E-02  0.10300649502E+01  0.10299716317E+01 0.  0.
     999903    2    3    3    0    0 -0.23759671326E-01  0.38692130935E-01  0.12469872844E+00  0.14006386063E+00  0.44794075504E-01 0.  0.
         14    1    1    2    0    0 -0.11046527308E-01  0.69566881633E-02 -0.46710095262E-02  0.13865049793E-01  0.00000000000E+00 0. -1.
     999901    1    3    3    0    0  0.34806198634E-01 -0.45648819098E-01 -0.12002771892E+00  0.89000108958E+00  0.88000000000E+00 0. -1.
        -11    1    4    4    0    0 -0.34701951678E-01  0.35915512925E-01  0.83064856979E-01  0.96923583843E-01  0.51100000000E-03 0. -1.
         11    1    4    4    0    0  0.10942280352E-01  0.27766180104E-02  0.41633871463E-01  0.43140276783E-01  0.51100000000E-03 0.  1.
</event>
<event>
 8    1  0.2091070E+004  0.1043930E+01  0.7957747E-01            NaN
         13   -1    0    0    0    0  0.00000000000E+00  0.00000000000E+00  0.74505805969E-08  0.10566000000E+00  0.10566000000E+00 0. -1.
     999900   -1    0    0    0    0 -0.00000000000E+00 -0.00000000000E+00 -0.74505805969E-08  0.93827000000E+00  0.93827000000E+00 0. -1.
     999902    2    1    2    0    0 -0.11969411771E-01  0.50682308703E-02 -0.43571137342E-02  0.10302209438E+01  0.10301297272E+01 0.  0.
     999903    2    3    3    0    0  0.49373337673E-01  0.12129231003E+00 -0.21174202232E-01  0.14030309142E+00  0.45684348259E-01 0.  0.
         14    1    1    2    0    0  0.11969411771E-01 -0.50682308703E-02  0.43571137342E-02  0.13709056218E-01  0.00000000000E+00 0. -1.
     999901    1    3    3    0    0 -0.61342749444E-01 -0.11622407916E+00  0.16817088498E-01  0.88991785236E+00  0.88000000000E+00 0. -1.
        -11    1    4    4    0    0  0.11630561827E-01  0.58082171989E-01  0.10491618531E-01  0.60159320573E-01  0.51100000000E-03 0. -1.
         11    1    4    4    0    0  0.37742775845E-01  0.63210138043E-01 -0.31665820763E-01  0.80143770847E-01  0.51100000000E-03 0.  1.
</event>
<event>
 8    1  0.2091070E+004  0.1043930E+01  0.7957747E-01            NaN
         13   -1    0    0    0    0  0.00000000000E+00  0.00000000000E+00  0.74505805969E-08  0.10566000000E+00  0.10566000000E+00 0. -1.
     999900   -1    0    0    0    0 -0.00000000000E+00 -0.00000000000E+00 -0.74505805969E-08  0.93827000000E+00  0.93827000000E+00 0. -1.
     999902    2    1    2    0    0  0.37681604162E-02  0.13279316241E-01 -0.26909377379E-02  0.10298665574E+01  0.10297705305E+01 0.  0.
     999903    2    3    3    0    0 -0.12188207533E+00 -0.20719059229E-01 -0.41988387767E-01  0.13942388046E+00  0.48902699658E-01 0.  0.
         14    1    1    2    0    0 -0.37681604162E-02 -0.13279316241E-01  0.26909377379E-02  0.14063442632E-01  0.00000000000E+00 0. -1.
     999901    1    3    3    0    0  0.12565023575E+00  0.33998375470E-01  0.39297450029E-01  0.89044267691E+00  0.88000000000E+00 0.  1.
        -11    1    4    4    0    0 -0.67154416372E-01 -0.56644529105E-02  0.22898750072E-02  0.67433717928E-01  0.51100000000E-03 0. -1.
         11    1    4    4    0    0 -0.54727658957E-01 -0.15054606318E-01 -0.44278262774E-01  0.71990162534E-01  0.51100000000E-03 0.  1.
</event>
<event>
 7    1  0.2091070E+004  0.1043930E+01  0.7957747E-01            NaN
         13   -1    0    0    0    0  0.00000000000E+00  0.00000000000E+00  0.74505805969E-08  0.10566000000E+00  0.10566000000E+00 0.  1.
     999900   -1    0    0    0    0 -0.00000000000E+00 -0.00000000000E+00 -0.74505805969E-08  0.93827000000E+00  0.93827000000E+00 0.  1.
     999903    2    1    2    0    0 -0.80356790525E-01  0.42916990019E-01  0.76227185709E-01  0.12711321247E+00  0.45255973387E-01 0.  0.
         14    1    1    2    0    0  0.30237536802E-01 -0.16525546849E-03 -0.10100799264E-01  0.31880434235E-01  0.00000000000E+00 0. -1.
     999901    1    1    2    0    0  0.50119253723E-01 -0.42751734550E-01 -0.66126386445E-01  0.88493635330E+00  0.88000000000E+00 0.  1.
        -11    1    3    3    0    0 -0.18177982949E-01  0.32241511114E-01  0.39399249072E-01  0.54060300142E-01  0.51100000000E-03 0. -1.
         11    1    3    3    0    0 -0.62178807577E-01  0.10675478905E-01  0.36827936638E-01  0.73052912327E-01  0.51100000000E-03 0.  1.
</event>
<event>
 8    1  0.2114843E+004  0.1043930E+01  0.7957747E-01            NaN
         13   -1    0    0    0    0  0.00000000000E+00  0.00000000000E+00  0.74505805969E-08  0.10566000000E+00  0.10566000000E+00 0.  1.
     999900   -1    0    0    0    0 -0.00000000000E+00 -0.00000000000E+00 -0.74505805969E-08  0.93827000000E+00  0.93827000000E+00 0.  1.
     999902    2    1    2    0    0  0.59601635098E-02  0.10589581358E-01 -0.66977239596E-02  0.10300547599E+01  0.10299613032E+01 0.  0.
     999903    2    3    3    0    0  0.13089213741E-01  0.13186558767E+00 -0.22290496066E-01  0.14157188012E+00  0.44563104677E-01 0.  0.
         14    1    1    2    0    0 -0.59601635098E-02 -0.10589581358E-01  0.66977239596E-02  0.13875240129E-01  0.00000000000E+00 0.  1.
     999901    1    3    3    0    0 -0.71290502310E-02 -0.12127600631E+00  0.15592772107E-01  0.88848287975E+00  0.88000000000E+00 0. -1.
        -11    1    4    4    0    0 -0.35199184236E-02  0.71126186752E-01  0.80568586159E-02  0.71669368348E-01  0.51100000000E-03 0.  1.
         11    1    4    4    0    0  0.16609132164E-01  0.60739400918E-01 -0.30347354682E-01  0.69902511775E-01  0.51100000000E-03 0. -1.
</event>
<event>
 8    1  0.2091070E+004  0.1043930E+01  0.7957747E-01            NaN
         13   -1    0    0    0    0  0.00000000000E+00  0.00000000000E+00  0.74505805969E-08  0.10566000000E+00  0.10566000000E+00 0. -1.
     999900   -1    0    0    0    0 -0.00000000000E+00 -0.00000000000E+00 -0.74505805969E-08  0.93827000000E+00  0.93827000000E+00 0.  1.
     999902    2    1    2    0    0 -0.28828757421E-02  0.51215603931E-03  0.13811807455E-01  0.10298112429E+01  0.10297144540E+01 0.  0.
     999903    2    3    3    0    0  0.60882081199E-01 -0.94258649064E-01  0.64706765231E-01  0.14097055305E+00  0.55627426931E-01 0.  0.
         14    1    1    2    0    0  0.28828757421E-02 -0.51215603931E-03 -0.13811807455E-01  0.14118757081E-01  0.00000000000E+00 0.  1.
     999901    1    3    3    0    0 -0.63764956941E-01  0.94770805103E-01 -0.50894957776E-01  0.88884068987E+00  0.88000000000E+00 0.  1.
        -11    1    4    4    0    0  0.63226055447E-01 -0.52910764323E-01  0.32979185023E-01  0.88797358263E-01  0.51100000000E-03 0.  1.
         11    1    4    4    0    0 -0.23439742480E-02 -0.41347884740E-01  0.31727580208E-01  0.52173194790E-01  0.51100000000E-03 0. -1.
</event>
<event>
 8    1  0.2091070E+004  0.1043930E+01  0.7957747E-01            NaN
         13   -1    0    0    0    0  0.00000000000E+00  0.00000000000E+00  0.74505805969E-08  0.10566000000E+00  0.10566000000E+00 0.  1.
     999900   -1    0    0    0    0 -0.00000000000E+00 -0.00000000000E+00 -0.74505805969E-08  0.93827000000E+00  0.93827000000E+00 0. -1.
     999902    2    1    2    0    0 -0.54869390565E-02  0.29141099970E-02 -0.12785969805E-01  0.10297145309E+01  0.10296164022E+01 0.  0.
     999903    2    3    3    0    0 -0.11167614592E+00  0.27193865842E-01  0.65337516352E-01  0.13956345763E+00  0.44697871935E-01 0.  0.
         14    1    1    2    0    0  0.54869390565E-02 -0.29141099970E-02  0.12785969805E-01  0.14215469079E-01  0.00000000000E+00 0.  1.
     999901    1    3    3    0    0  0.10618920686E+00 -0.24279755845E-01 -0.78123486157E-01  0.89015107329E+00  0.88000000000E+00 0. -1.
        -11    1    4    4    0    0 -0.29777643985E-01 -0.11286734246E-01  0.25005985396E-01  0.40492701538E-01  0.51100000000E-03 0. -1.
         11    1    4    4    0    0 -0.81898501931E-01  0.38480600088E-01  0.40331530956E-01  0.99070756088E-01  0.51100000000E-03 0.  1.
</event>
<event>
 7    1  0.2759863E+004  0.1043930E+01  0.7957747E-01            NaN
         13   -1    0    0    0    0  0.00000000000E+00  0.00000000000E+00  0.74505805969E-08  0.10566000000E+00  0.10566000000E+00 0. -1.
     999900   -1    0    0    0    0 -0.00000000000E+00 -0.00000000000E+00 -0.74505805969E-08  0.93827000000E+00  0.93827000000E+00 0. -1.
     999903    2    1    2    0    0  0.30584988957E-03 -0.11109091833E+00 -0.96715251218E-03  0.12084115197E+00  0.47543274436E-01 0.  0.
         14    1    1    2    0    0  0.35216757593E-01 -0.97489788715E-03 -0.16141448526E-02  0.35267207216E-01  0.00000000000E+00 0.  1.
     999901    1    1    2    0    0 -0.35522607482E-01  0.11206581622E+00  0.25812973648E-02  0.88782164082E+00  0.88000000000E+00 0. -1.
        -11    1    3    3    0    0 -0.21251803023E-01 -0.36012594976E-01  0.67000917032E-02  0.42352077617E-01  0.51100000000E-03 0. -1.
         11    1    3    3    0    0  0.21557652912E-01 -0.75078323358E-01 -0.76672442154E-02  0.78489074349E-01  0.51100000000E-03 0.  1.
</event>
<event>
 8    1  0.2091070E+004  0.1043930E+01  0.7957747E-01            NaN
         13   -1    0    0    0    0  0.00000000000E+00  0.00000000000E+00  0.74505805969E-08  0.10566000000E+00  0.10566000000E+00 0. -1.
     999900   -1    0    0    0    0 -0.00000000000E+00 -0.00000000000E+00 -0.74505805969E-08  0.93827000000E+00  0.93827000000E+00 0.  1.
     999902    2    1    2    0    0 -0.39259002044E-02  0.11646444651E-01  0.62246360458E-02  0.10301532638E+01  0.10300611383E+01 0.  0.
     999903    2    3    3    0    0 -0.21393336608E-01  0.10303673454E-01  0.13135539600E+00  0.14112873017E+00  0.45817440822E-01 0.  0.
         14    1    1    2    0    0  0.39259002044E-02 -0.11646444651E-01 -0.62246360458E-02  0.13776736164E-01  0.00000000000E+00 0.  1.
     999901    1    3    3    0    0  0.17467436404E-01  0.13427711963E-02 -0.12513075996E+00  0.88902453366E+00  0.88000000000E+00 0.  1.
        -11    1    4    4    0    0 -0.32550121327E-01  0.46293438603E-02  0.57665221618E-01  0.66381323640E-01  0.51100000000E-03 0.  1.
         11    1    4    4    0    0  0.11156784719E-01  0.56743295941E-02  0.73690174384E-01  0.74747406533E-01  0.51100000000E-03 0. -1.
</event>
<event>
 8    1  0.2091070E+004  0.1043930E+01  0.7957747E-01            NaN
         13   -1    0    0    0    0  0.00000000000E+00  0.00000000000E+00  0.74505805969E-08  0.10566000000E+00  0.10566000000E+00 0.  1.
     999900   -1    0    0    0    0 -0.00000000000E+00 -0.00000000000E+00 -0.74505805969E-08  0.93827000000E+00  0.93827000000E+00 0. -1.
     999902    2    1    2    0    0  0.84886539902E-03 -0.73901431940E-02 -0.10597466826E-01  0.10309823712E+01  0.10309010663E+01 0.  0.
     999903    2    3    3    0    0 -0.80576729027E-01 -0.10723031188E+00 -0.61204761063E-02  0.14159031469E+00  0.44937823042E-01 0.  0.
         14    1    1    2    0    0 -0.84886539902E-03  0.73901431940E-02  0.10597466826E-01  0.12947628818E-01  0.00000000000E+00 0. -1.
     999901    1    3    3    0    0  0.81425594426E-01  0.99840168681E-01 -0.44769907195E-02  0.88939205649E+00  0.88000000000E+00 0.  1.
        -11    1    4    4    0    0 -0.70487009108E-01 -0.74769357845E-01 -0.20319751198E-01  0.10474745217E+00  0.51100000000E-03 0.  1.
         11    1    4    4    0    0 -0.10089719919E-01 -0.32460954030E-01  0.14199275091E-01  0.36842862521E-01  0.51100000000E-03 0. -1.
</event>
<event>
 8    1  0.2091070E+004  0.1043930E+01  0.7957747E-01            NaN
         13   -1    0    0    0    0  0.00000000000E+00  0.00000000000E+00  0.74505805969E-08  0.10566000000E+00  0.10566000000E+00 0. -1.
     999900   -1    0    0    0    0 -0.00000000000E+00 -0.00000000000E+00 -0.74505805969E-08  0.93827000000E+00  0.93827000000E+00 0. -1.
     999902    2    1    2    0    0 -0.83416260196E-02 -0.98171322538E-02  0.77172881501E-02  0.10289128316E+01  0.10288032366E+01 0.  0.
     999903    2    3    3    0    0  0.64845154381E-01 -0.94634825312E-01 -0.64508665741E-01  0.13887522886E+00  0.44320616265E-01 0.  0.
         14    1    1    2    0    0  0.83416260196E-02  0.98171322538E-02 -0.77172881501E-02  0.15017168399E-01  0.00000000000E+00 0. -1.
     999901    1    3    3    0    0 -0.73186780401E-01  0.84817693058E-01  0.72225953891E-01  0.89003760274E+00  0.88000000000E+00 0.  1.
        -11    1    4    4    0    0  0.47698177011E-01 -0.34690159951E-01 -0.42719110974E-01  0.72826553200E-01  0.51100000000E-03 0. -1.
         11    1    4    4    0    0  0.17146977370E-01 -0.59944665362E-01 -0.21789554767E-01  0.66048675658E-01  0.51100000000E-03 0.  1.
</event>
<event>
 8    1  0.2091070E+004  0.1043930E+01  0.7957747E-01            NaN
         13   -1    0    0    0    0  0.00000000000E+00  0.00000000000E+00  0.74505805969E-08  0.10566000000E+00  0.10566000000E+00 0. -1.
     999900   -1    0    0    0    0 -0.00000000000E+00 -0.00000000000E+00 -0.74505805969E-08  0.93827000000E+00  0.93827000000E+00 0.  1.
     999902    2    1    2    0    0 -0.26865181674E-02 -0.12969632569E-01  0.37117982019E-02  0.10301747757E+01  0.10300829396E+01 0.  0.
     999903    2    3    3    0    0 -0.40931283514E-01 -0.12100287145E+00 -0.42346265483E-01  0.14154932707E+00  0.43885543458E-01 0.  0.
         14    1    1    2    0    0  0.26865181674E-02  0.12969632569E-01 -0.37117982019E-02  0.13755224270E-01  0.00000000000E+00 0. -1.
     999901    1    3    3    0    0  0.38244765347E-01  0.10803323888E+00  0.46058063685E-01  0.88862544866E+00  0.88000000000E+00 0.  1.
        -11    1    4    4    0    0 -0.35023237163E-01 -0.56495173894E-01 -0.38130906323E-01  0.76632623293E-01  0.51100000000E-03 0. -1.
         11    1    4    4    0    0 -0.59080463517E-02 -0.64507697552E-01 -0.42153591596E-02  0.64916703775E-01  0.51100000000E-03 0.  1.
</event>
<event>
 8    1  0.2091070E+004  0.1043930E+01  0.7957747E-01            NaN
         13   -1    0    0    0    0  0.00000000000E+00  0.00000000000E+00  0.74505805969E-08  0.10566000000E+00  0.10566000000E+00 0. -1.
     999900   -1    0    0    0    0 -0.00000000000E+00 -0.00000000000E+00 -0.74505805969E-08  0.93827000000E+00  0.93827000000E+00 0.  1.
     999902    2    1    2    0    0 -0.10963926093E-01 -0.92679648382E-02 -0.33889870062E-02  0.10291791329E+01  0.10290734179E+01 0.  0.
     999903    2    3    3    0    0 -0.77366969368E-01 -0.56928249048E-01 -0.92327206203E-01  0.14092755046E+00  0.45932428472E-01 0.  0.
         14    1    1    2    0    0  0.10963926093E-01  0.92679648382E-02  0.33889870062E-02  0.14750867112E-01  0.00000000000E+00 0.  1.
     999901    1    3    3    0    0  0.66403043275E-01  0.47660284210E-01  0.88938219197E-01  0.88825158243E+00  0.88000000000E+00 0. -1.
        -11    1    4    4    0    0 -0.79581593650E-02  0.12361510160E-02 -0.29815354426E-01  0.30888134460E-01  0.51100000000E-03 0. -1.
         11    1    4    4    0    0 -0.69408810003E-01 -0.58164400064E-01 -0.62511851777E-01  0.11003941600E+00  0.51100000000E-03 0.  1.
</event>
<event>
 8    1  0.2091070E+004  0.1043930E+01  0.7957747E-01            NaN
         13   -1    0    0    0    0  0.00000000000E+00  0.00000000000E+00  0.74505805969E-08  0.10566000000E+00  0.10566000000E+00 0. -1.
     999900   -1    0    0    0    0 -0.00000000000E+00 -0.00000000000E+00 -0.74505805969E-08  0.93827000000E+00  0.93827000000E+00 0. -1.
     999902    2    1    2    0    0  0.11730815329E-02 -0.57418031421E-02  0.12131921342E-01  0.10304567695E+01  0.10303686845E+01 0.  0.
     999903    2    3    3    0    0 -0.87835846743E-01 -0.76661391627E-01 -0.61746861701E-01  0.14005784101E+00  0.47025726563E-01 0.  0.
         14    1    1    2    0    0 -0.11730815329E-02  0.57418031421E-02 -0.12131921342E-01  0.13473230461E-01  0.00000000000E+00 0.  1.
     999901    1    3    3    0    0  0.89008928276E-01  0.70919588485E-01  0.73878783043E-01  0.89039892853E+00  0.88000000000E+00 0.  1.
        -11    1    4    4    0    0 -0.18465491837E-01 -0.32789519513E-01 -0.40468650534E-01  0.55263910246E-01  0.51100000000E-03 0.  1.
         11    1    4    4    0    0 -0.69370354907E-01 -0.43871872114E-01 -0.21278211167E-01  0.84793930763E-01  0.51100000000E-03 0. -1.
</event>
<event>
 8    1  0.2091070E+004  0.1043930E+01  0.7957747E-01            NaN
         13   -1    0    0    0    0  0.00000000000E+00  0.00000000000E+00  0.74505805969E-08  0.10566000000E+00  0.10566000000E+00 0.  1.
     999900   -1    0    0    0    0 -0.00000000000E+00 -0.00000000000E+00 -0.74505805969E-08  0.93827000000E+00  0.93827000000E+00 0.  1.
     999902    2    1    2    0    0 -0.32070775286E-02 -0.13335865324E-01 -0.21220379277E-02  0.10300507459E+01  0.10299572347E+01 0.  0.
     999903    2    3    3    0    0 -0.20281716822E-01 -0.11398758982E+00 -0.68590483279E-01  0.14165873376E+00  0.44249562540E-01 0.  0.
         14    1    1    2    0    0  0.32070775286E-02  0.13335865324E-01  0.21220379277E-02  0.13879254129E-01  0.00000000000E+00 0.  1.
     999901    1    3    3    0    0  0.17074639293E-01  0.10065172449E+00  0.66468445351E-01  0.88839201211E+00  0.88000000000E+00 0. -1.
        -11    1    4    4    0    0  0.76149760849E-02 -0.62734448487E-01 -0.49449789758E-01  0.80244262822E-01  0.51100000000E-03 0. -1.
         11    1    4    4    0    0 -0.27896692907E-01 -0.51253141331E-01 -0.19140693521E-01  0.61414470941E-01  0.51100000000E-03 0.  1.
</event>
<event>
 8    1  0.2091070E+004  0.1043930E+01  0.7957747E-01            NaN
         13   -1    0    0    0    0  0.00000000000E+00  0.00000000000E+00  0.74505805969E-08  0.10566000000E+00  0.10566000000E+00 0. -1.
     999900   -1    0    0    0    0 -0.00000000000E+00 -0.00000000000E+00 -0.74505805969E-08  0.93827000000E+00  0.93827000000E+00 0.  1.
     999902    2    1    2    0    0  0.13564938972E-01 -0.59715248895E-02  0.11545450778E-02  0.10290639429E+01  0.10289565583E+01 0.  0.
     999903    2    3    3    0    0  0.46520963103E-01 -0.42454731926E-01 -0.11633375124E+00  0.13989544162E+00  0.45503721140E-01 0.  0.
         14    1    1    2    0    0 -0.13564938972E-01  0.59715248895E-02 -0.11545450778E-02  0.14866057082E-01  0.00000000000E+00 0.  1.
     999901    1    3    3    0    0 -0.32956024130E-01  0.36483207036E-01  0.11748829632E+00  0.88916850129E+00  0.88000000000E+00 0. -1.
        -11    1    4    4    0    0  0.48893253720E-01 -0.16778547068E-01 -0.72612465323E-01  0.89134174941E-01  0.51100000000E-03 0.  1.
         11    1    4    4    0    0 -0.23722906177E-02 -0.25676184858E-01 -0.43721285921E-01  0.50761266683E-01  0.51100000000E-03 0. -1.
</event>
<event>
 8    1  0.2091070E+004  0.1043930E+01  0.7957747E-01            NaN
         13   -1    0    0    0    0  0.00000000000E+00  0.00000000000E+00  0.74505805969E-08  0.10566000000E+00  0.10566000000E+00 0. -1.
     999900   -1    0    0    0    0 -0.00000000000E+00 -0.00000000000E+00 -0.74505805969E-08  0.93827000000E+00  0.93827000000E+00 0.  1.
     999902    2    1    2    0    0 -0.94480802095E-02 -0.60958688911E-03  0.96275417506E-02  0.10304271345E+01  0.10303386590E+01 0.  0.
     999903    2    3    3    0    0  0.11992632212E+00 -0.26728555929E-01 -0.46364845451E-01  0.13882459755E+00  0.45009238526E-01 0.  0.
         14    1    1    2    0    0  0.94480802095E-02  0.60958688911E-03 -0.96275417506E-02  0.13502865473E-01  0.00000000000E+00 0.  1.
     999901    1    3    3    0    0 -0.12937440233E+00  0.26118969040E-01  0.55992387201E-01  0.89160253698E+00  0.88000000000E+00 0.  1.
        -11    1    4    4    0    0  0.33104799699E-01 -0.13274440765E-01 -0.35449594358E-01  0.50289893636E-01  0.51100000000E-03 0.  1.
         11    1    4    4    0    0  0.86821522417E-01 -0.13454115164E-01 -0.10915251093E-01  0.88534703913E-01  0.51100000000E-03 0. -1.
</event>
<event>
 8    1  0.2091070E+004  0.1043930E+01  0.7957747E-01            NaN
         13   -1    0    0    0    0  0.00000000000E+00  0.00000000000E+00  0.74505805969E-08  0.10566000000E+00  0.10566000000E+00 0. -1.
     999900   -1    0    0    0    0 -0.00000000000E+00 -0.00000000000E+00 -0.74505805969E-08  0.93827000000E+00  0.93827000000E+00 0.  1.
     999902    2    1    2    0    0 -0.23130982644E-02 -0.14918582857E-02 -0.14268736365E-01  0.10293982106E+01  0.10292956345E+01 0.  0.
     999903    2    3    3    0    0  0.88283569320E-01 -0.59421818235E-01 -0.79564299844E-01  0.14045099789E+00  0.45508943123E-01 0.  0.
         14    1    1    2    0    0  0.23130982644E-02  0.14918582857E-02  0.14268736365E-01  0.14531789366E-01  0.00000000000E+00 0. -1.
     999901    1    3    3    0    0 -0.90596667584E-01  0.57929959949E-01  0.65295563479E-01  0.88894721275E+00  0.88000000000E+00 0.  1.
        -11    1    4    4    0    0  0.52756209257E-01 -0.15870138136E-01 -0.20150104502E-01  0.58663163331E-01  0.51100000000E-03 0.  1.
         11    1    4    4    0    0  0.35527360063E-01 -0.43551680100E-01 -0.59414195342E-01  0.81787834558E-01  0.51100000000E-03 0. -1.
</event>
<event>
 8    1  0.2091070E+004  0.1043930E+01  0.7957747E-01            NaN
         13   -1    0    0    0    0  0.00000000000E+00  0.00000000000E+00  0.74505805969E-08  0.10566000000E+00  0.10566000000E+00 0.  1.
     999900   -1    0    0    0    0 -0.00000000000E+00 -0.00000000000E+00 -0.74505805969E-08  0.93827000000E+00  0.93827000000E+00 0. -1.
     999902    2    1    2    0    0  0.66241816962E-02  0.13343132293E-01  0.17315262081E-02  0.10289327621E+01  0.10288234599E+01 0.  0.
     999903    2    3    3    0    0 -0.92968740670E-01  0.10109233138E-01 -0.91825939896E-01  0.13838113091E+00  0.44406652868E-01 0.  0.
         14    1    1    2    0    0 -0.66241816962E-02 -0.13343132293E-01 -0.17315262081E-02  0.14997237931E-01  0.00000000000E+00 0. -1.
     999901    1    3    3    0    0  0.99592922366E-01  0.32338991554E-02  0.93557466104E-01  0.89055163116E+00  0.88000000000E+00 0.  1.
        -11    1    4    4    0    0 -0.30903590319E-01 -0.10335576376E-01 -0.10899036115E-01  0.34364314963E-01  0.51100000000E-03 0.  1.
         11    1    4    4    0    0 -0.62065150351E-01  0.20444809514E-01 -0.80926903780E-01  0.10401681595E+00  0.51100000000E-03 0. -1.
</event>
<event>
 8    1  0.2091070E+004  0.1043930E+01  0.7957747E-01            NaN
         13   -1    0    0    0    0  0.00000000000E+00  0.00000000000E+00  0.74505805969E-08  0.10566000000E+00  0.10566000000E+00 0.  1.
     999900   -1    0    0    0    0 -0.00000000000E+00 -0.00000000000E+00 -0.74505805969E-08  0.93827000000E+00  0.93827000000E+00 0. -1.
     999902    2    1    2    0    0 -0.59392839714E-02 -0.12174209317E-02 -0.11732475082E-01  0.10307236311E+01  0.10306390229E+01 0.  0.
     999903    2    3    3    0    0 -0.10654465914E+00  0.29271741987E-01  0.73927323515E-01  0.14033684343E+00  0.44950875333E-01 0.  0.
         14    1    1    2    0    0  0.59392839714E-02  0.12174209317E-02  0.11732475082E-01  0.13206368894E-01  0.00000000000E+00 0.  1.
     999901    1    3    3    0    0  0.10060537516E+00 -0.30489162919E-01 -0.85659798597E-01  0.89038678767E+00  0.88000000000E+00 0.  1.
        -11    1    4    4    0    0 -0.83612716109E-01  0.40493235658E-02  0.42123941573E-01  0.93713237545E-01  0.51100000000E-03 0. -1.
         11    1    4    4    0    0 -0.22931943026E-01  0.25222418421E-01  0.31803381942E-01  0.46623605888E-01  0.51100000000E-03 0.  1.
</event>
<event>
 8    1  0.2091070E+004  0.1043930E+01  0.7957747E-01            NaN
         13   -1    0    0    0    0  0.00000000000E+00  0.00000000000E+00  0.74505805969E-08  0.10566000000E+00  0.10566000000E+00 0.  1.
     999900   -1    0    0    0    0 -0.00000000000E+00 -0.00000000000E+00 -0.74505805969E-08  0.93827000000E+00  0.93827000000E+00 0.  1.
     999902    2    1    2    0    0  0.16033617538E-02  0.70901243544E-02  0.11708094290E-01  0.10301488497E+01  0.10300566647E+01 0.  0.
     999903    2    3    3    0    0 -0.53032421162E-01  0.21369983415E-01 -0.11816243522E+00  0.13882660852E+00  0.45181326355E-01 0.  0.
         14    1    1    2    0    0 -0.16033617538E-02 -0.70901243544E-02 -0.11708094290E-01  0.13781150321E-01  0.00000000000E+00 0. -1.
     999901    1    3    3    0    0  0.54635782916E-01 -0.14279859060E-01  0.12987052951E+00  0.89132224116E+00  0.88000000000E+00 0. -1.
        -11    1    4    4    0    0 -0.25990057805E-01 -0.12828610160E-01 -0.41290443445E-01  0.50450155443E-01  0.51100000000E-03 0.  1.
         11    1    4    4    0    0 -0.27042363357E-01  0.34198593575E-01 -0.76871991773E-01  0.88376453078E-01  0.51100000000E-03 0. -1.
</event>
<event>
 7    1  0.2858639E+004  0.1043930E+01  0.7957747E-01            NaN
         13   -1    0    0    0    0  0.00000000000E+00  0.00000000000E+00  0.74505805969E-08  0.10566000000E+00  0.10566000000E+00 0. -1.
     999900   -1    0    0    0    0 -0.00000000000E+00 -0.00000000000E+00 -0.74505805969E-08  0.93827000000E+00  0.93827000000E+00 0. -1.
     999903    2    1    2    0    0 -0.60085876460E-01  0.40728105252E-01 -0.84625432356E-01  0.12029107911E+00  0.45159592618E-01 0.  0.
         14    1    1    2    0    0 -0.29255844775E-01 -0.14516848570E-01 -0.87580338722E-02  0.33813407151E-01  0.00000000000E+00 0. -1.
     999901    1    1    2    0    0  0.89341721235E-01 -0.26211256682E-01  0.93383466228E-01  0.88982551374E+00  0.88000000000E+00 0.  1.
        -11    1    3    3    0    0 -0.30635509369E-01 -0.46675280696E-02 -0.36389358300E-01  0.47799234001E-01  0.51100000000E-03 0.  1.
         11    1    3    3    0    0 -0.29450367091E-01  0.45395633322E-01 -0.48236074055E-01  0.72491845112E-01  0.51100000000E-03 0. -1.
</event>
<event>
 8    1  0.2091070E+004  0.1043930E+01  0.7957747E-01            NaN
         13   -1    0    0    0    0  0.00000000000E+00  0.00000000000E+00  0.74505805969E-08  0.10566000000E+00  0.10566000000E+00 0.  1.
     999900   -1    0    0    0    0 -0.00000000000E+00 -0.00000000000E+00 -0.74505805969E-08  0.93827000000E+00  0.93827000000E+00 0.  1.
     999902    2    1    2    0    0 -0.56493032860E-02  0.10862224449E-01 -0.67933372939E-02  0.10299281437E+01  0.10298329618E+01 0.  0.
     999903    2    3    3    0    0  0.10197591543E+00  0.74604339614E-01  0.39169956345E-01  0.13989507169E+00  0.45513193533E-01 0.  0.
         14    1    1    2    0    0  0.56493032860E-02 -0.10862224449E-01  0.67933372939E-02  0.14001856277E-01  0.00000000000E+00 0.  1.
     999901    1    3    3    0    0 -0.10762521872E+00 -0.63742115165E-01 -0.45963293639E-01  0.89003307203E+00  0.88000000000E+00 0. -1.
        -11    1    4    4    0    0  0.38802433139E-01  0.36610648158E-02  0.70083379533E-02  0.39603158144E-01  0.51100000000E-03 0. -1.
         11    1    4    4    0    0  0.63173482294E-01  0.70943274799E-01  0.32161618392E-01  0.10029191355E+00  0.51100000000E-03 0.  1.
</event>
<event>
 8    1  0.2091070E+004  0.1043930E+01  0.7957747E-01            NaN
         13   -1    0    0    0    0  0.00000000000E+00  0.00000000000E+00  0.74505805969E-08  0.10566000000E+00  0.10566000000E+00 0. -1.
     999900   -1    0    0    0    0 -0.00000000000E+00 -0.00000000000E+00 -0.74505805969E-08  0.93827000000E+00  0.93827000000E+00 0.  1.
     999902    2    1    2    0    0  0.13815589364E-01 -0.12778177053E-01  0.28334025642E-02  0.10248989599E+01  0.10247222538E+01 0.  0.
     999903    2    3    3    0    0  0.56908756210E-01 -0.11175321763E+00 -0.33625334687E-01  0.13755330050E+00  0.45418709387E-01 0.  0.
         14    1    1    2    0    0 -0.13815589364E-01  0.12778177053E-01 -0.28334025642E-02  0.19031040128E-01  0.00000000000E+00 0.  1.
     999901    1    3    3    0    0 -0.43093166846E-01  0.98975040572E-01  0.36458737251E-01  0.88734565937E+00  0.88000000000E+00 0. -1.
        -11    1    4    4    0    0  0.31020789078E-01 -0.34970085394E-01  0.63839084922E-02  0.47182747230E-01  0.51100000000E-03 0.  1.
         11    1    4    4    0    0  0.25887967132E-01 -0.76783132231E-01 -0.40009243179E-01  0.90370553269E-01  0.51100000000E-03 0. -1.
</event>
<event>
 8    1  0.2091070E+004  0.1043930E+01  0.7957747E-01            NaN
         13   -1    0    0    0    0  0.00000000000E+00  0.00000000000E+00  0.74505805969E-08  0.10566000000E+00  0.10566000000E+00 0.  1.
     999900   -1    0    0    0    0 -0.00000000000E+00 -0.00000000000E+00 -0.74505805969E-08  0.93827000000E+00  0.93827000000E+00 0. -1.
     999902    2    1    2    0    0  0.12569025860E-01 -0.10214928399E-01  0.81481100535E-02  0.10257994492E+01  0.10256392120E+01 0.  0.
     999903    2    3    3    0    0  0.11858373965E+00 -0.42551036860E-01  0.35125698067E-01  0.13843676482E+00  0.45367710344E-01 0.  0.
         14    1    1    2    0    0 -0.12569025860E-01  0.10214928399E-01 -0.81481100535E-02  0.18130550756E-01  0.00000000000E+00 0. -1.
     999901    1    3    3    0    0 -0.10601471379E+00  0.32336108461E-01 -0.26977588014E-01  0.88736268442E+00  0.88000000000E+00 0. -1.
        -11    1    4    4    0    0  0.90217145436E-01 -0.23102822377E-01  0.59274964447E-02  0.93318112216E-01  0.51100000000E-03 0.  1.
         11    1    4    4    0    0  0.28366594216E-01 -0.19448214483E-01  0.29198201622E-01  0.45118652606E-01  0.51100000000E-03 0. -1.
</event>
<event>
 8    1  0.2091070E+004  0.1043930E+01  0.7957747E-01            NaN
         13   -1    0    0    0    0  0.00000000000E+00  0.00000000000E+00  0.74505805969E-08  0.10566000000E+00  0.10566000000E+00 0. -1.
     999900   -1    0    0    0    0 -0.00000000000E+00 -0.00000000000E+00 -0.74505805969E-08  0.93827000000E+00  0.93827000000E+00 0. -1.
     999902    2    1    2    0    0 -0.89202435717E-02 -0.67494194156E-02  0.86549729036E-02  0.10297866636E+01  0.10296895351E+01 0.  0.
     999903    2    3    3    0    0 -0.74108499537E-01  0.10580079477E+00 -0.21954675338E-01  0.13970014536E+00  0.48458693421E-01 0.  0.
         14    1    1    2    0    0  0.89202435717E-02  0.67494194156E-02 -0.86549729036E-02  0.14143336374E-01  0.00000000000E+00 0.  1.
     999901    1    3    3    0    0  0.65188255966E-01 -0.11255021418E+00  0.30609648241E-01  0.89008651826E+00  0.88000000000E+00 0. -1.
        -11    1    4    4    0    0 -0.21751686282E-01  0.79306199857E-02 -0.16753195145E-01  0.28582534143E-01  0.51100000000E-03 0. -1.
         11    1    4    4    0    0 -0.52356813256E-01  0.97870174782E-01 -0.52014801930E-02  0.11111761122E+00  0.51100000000E-03 0.  1.
</event>
<event>
 8    1  0.2091070E+004  0.1043930E+01  0.7957747E-01            NaN
         13   -1    0    0    0    0  0.00000000000E+00  0.00000000000E+00  0.74505805969E-08  0.10566000000E+00  0.10566000000E+00 0. -1.
     999900   -1    0    0    0    0 -0.00000000000E+00 -0.00000000000E+00 -0.74505805969E-08  0.93827000000E+00  0.93827000000E+00 0.  1.
     999902    2    1    2    0    0 -0.81879302132E-02 -0.98932017139E-02  0.61465081890E-02  0.10296928232E+01  0.10295943924E+01 0.  0.
     999903    2    3    3    0    0 -0.13176627500E+00  0.97838620140E-02 -0.26930964765E-01  0.14022505345E+00  0.38467045247E-01 0.  0.
         14    1    1    2    0    0  0.81879302132E-02  0.98932017139E-02 -0.61465081890E-02  0.14237176836E-01  0.00000000000E+00 0. -1.
     999901    1    3    3    0    0  0.12357834479E+00 -0.19677063728E-01  0.33077472954E-01  0.88946776971E+00  0.88000000000E+00 0.  1.
        -11    1    4    4    0    0 -0.11426451245E+00 -0.15189736308E-02 -0.32206007195E-01  0.11872730986E+00  0.51100000000E-03 0.  1.
         11    1    4    4    0    0 -0.17501762546E-01  0.11302835645E-01  0.52750424308E-02  0.21497743591E-01  0.51100000000E-03 0. -1.
</event>
<event>
 8    1  0.2091070E+004  0.1043930E+01  0.7957747E-01            NaN
         13   -1    0    0    0    0  0.00000000000E+00  0.00000000000E+00  0.74505805969E-08  0.10566000000E+00  0.10566000000E+00 0.  1.
     999900   -1    0    0    0    0 -0.00000000000E+00 -0.00000000000E+00 -0.74505805969E-08  0.93827000000E+00  0.93827000000E+00 0.  1.
     999902    2    1    2    0    0  0.43565242342E-02  0.92930343893E-02  0.90440190939E-02  0.10302503044E+01  0.10301594806E+01 0.  0.
     999903    2    3    3    0    0 -0.89574788297E-01 -0.94476958049E-01  0.18774194983E-01  0.13913528421E+00  0.45349957162E-01 0.  0.
         14    1    1    2    0    0 -0.43565242342E-02 -0.92930343893E-02 -0.90440190939E-02  0.13679695645E-01  0.00000000000E+00 0.  1.
     999901    1    3    3    0    0  0.93931312531E-01  0.10376999244E+00 -0.97301758886E-02  0.89111502014E+00  0.88000000000E+00 0. -1.
        -11    1    4    4    0    0 -0.38697160931E-01 -0.61258224783E-01  0.27988267280E-01  0.77676538247E-01  0.51100000000E-03 0. -1.
         11    1    4    4    0    0 -0.50877627365E-01 -0.33218733265E-01 -0.92140722970E-02  0.61458745963E-01  0.51100000000E-03 0.  1.
</event>
<event>
 8    1  0.2091070E+004  0.1043930E+01  0.7957747E-01            NaN
         13   -1    0    0    0    0  0.00000000000E+00  0.00000000000E+00  0.74505805969E-08  0.10566000000E+00  0.10566000000E+00 0. -1.
     999900   -1    0    0    0    0 -0.00000000000E+00 -0.00000000000E+00 -0.74505805969E-08  0.93827000000E+00  0.93827000000E+00 0.  1.
     999902    2    1    2    0    0 -0.11912204731E-01  0.74132327686E-02 -0.69145353961E-03  0.10298824113E+01  0.10297866023E+01 0.  0.
     999903    2    3    3    0    0 -0.22250812156E-01 -0.11506594279E+00 -0.60548295672E-01  0.13932591288E+00  0.44836860484E-01 0.  0.
         14    1    1    2    0    0  0.11912204731E-01 -0.74132327686E-02  0.69145353961E-03  0.14047588748E-01  0.00000000000E+00 0.  1.
     999901    1    3    3    0    0  0.10338607426E-01  0.12247917556E+00  0.59856842133E-01  0.89055649838E+00  0.88000000000E+00 0.  1.
        -11    1    4    4    0    0 -0.29096721248E-01 -0.45559259993E-01 -0.15594110379E-01  0.56264578182E-01  0.51100000000E-03 0. -1.
         11    1    4    4    0    0  0.68459090917E-02 -0.69506682798E-01 -0.44954185293E-01  0.83061334694E-01  0.51100000000E-03 0.  1.
</event>
<event>
 8    1  0.2091070E+004  0.1043930E+01  0.7957747E-01            NaN
         13   -1    0    0    0    0  0.00000000000E+00  0.00000000000E+00  0.74505805969E-08  0.10566000000E+00  0.10566000000E+00 0.  1.
     999900   -1    0    0    0    0 -0.00000000000E+00 -0.00000000000E+00 -0.74505805969E-08  0.93827000000E+00  0.93827000000E+00 0. -1.
     999902    2    1    2    0    0  0.60685602703E-02 -0.78418103667E-02 -0.11455159874E-01  0.10287793531E+01  0.10286677866E+01 0.  0.
     999903    2    3    3    0    0  0.36088249158E-01 -0.11836572895E+00  0.45904134458E-01  0.13950616283E+00  0.45188188603E-01 0.  0.
         14    1    1    2    0    0 -0.60685602703E-02  0.78418103667E-02  0.11455159874E-01  0.15150646894E-01  0.00000000000E+00 0.  1.
     999901    1    3    3    0    0 -0.30019688887E-01  0.11052391858E+00 -0.57359294332E-01  0.88927319028E+00  0.88000000000E+00 0. -1.
        -11    1    4    4    0    0  0.35552323723E-01 -0.56951654220E-01  0.87069099186E-02  0.67701772812E-01  0.51100000000E-03 0.  1.
         11    1    4    4    0    0  0.53592543408E-03 -0.61414074731E-01  0.37197224540E-01  0.71804390016E-01  0.51100000000E-03 0. -1.
</event>
<event>
 8    1  0.2091070E+004  0.1043930E+01  0.7957747E-01            NaN
         13   -1    0    0    0    0  0.00000000000E+00  0.00000000000E+00  0.74505805969E-08  0.10566000000E+00  0.10566000000E+00 0.  1.
     999900   -1    0    0    0    0 -0.00000000000E+00 -0.00000000000E+00 -0.74505805969E-08  0.93827000000E+00  0.93827000000E+00 0. -1.
     999902    2    1    2    0    0  0.20531053635E-03 -0.13034024293E-01 -0.35905311635E-02  0.10304089107E+01  0.10303201946E+01 0.  0.
     999903    2    3    3    0    0  0.11896370359E+00  0.43854471639E-01  0.22524409680E-01  0.14022811613E+00  0.55506738949E-01 0.  0.
         14    1    1    2    0    0 -0.20531053635E-03  0.13034024293E-01  0.35905311635E-02  0.13521089295E-01  0.00000000000E+00 0.  1.
     999901    1    3    3    0    0 -0.11875839305E+00 -0.56888495933E-01 -0.26114940843E-01  0.89018079457E+00  0.88000000000E+00 0. -1.
        -11    1    4    4    0    0  0.72089182797E-02  0.98011352479E-02 -0.13297157766E-01  0.18030703829E-01  0.51100000000E-03 0. -1.
         11    1    4    4    0    0  0.11175478531E+00  0.34053336391E-01  0.35821567445E-01  0.12219741230E+00  0.51100000000E-03 0.  1.
</event>
<event>
 8    1  0.2091070E+004  0.1043930E+01  0.7957747E-01            NaN
         13   -1    0    0    0    0  0.00000000000E+00  0.00000000000E+00  0.74505805969E-08  0.10566000000E+00  0.10566000000E+00 0. -1.
     999900   -1    0    0    0    0 -0.00000000000E+00 -0.00000000000E+00 -0.74505805969E-08  0.93827000000E+00  0.93827000000E+00 0. -1.
     999902    2    1    2    0    0  0.31471249258E-02 -0.70526717268E-03 -0.13130730765E-01  0.10304089835E+01  0.10303202683E+01 0.  0.
     999903    2    3    3    0    0  0.96895133760E-01  0.83734049580E-01  0.35191115159E-01  0.14009797706E+00  0.44597876459E-01 0.  0.
         14    1    1    2    0    0 -0.31471249258E-02  0.70526717268E-03  0.13130730765E-01  0.13521016512E-01  0.00000000000E+00 0. -1.
     999901    1    3    3    0    0 -0.93748008835E-01 -0.84439316752E-01 -0.48321845924E-01  0.89031100643E+00  0.88000000000E+00 0. -1.
        -11    1    4    4    0    0  0.20723069723E-01  0.45863733405E-01  0.93541231130E-02  0.51192659638E-01  0.51100000000E-03 0.  1.
         11    1    4    4    0    0  0.76172064037E-01  0.37870316174E-01  0.25836992046E-01  0.88905317422E-01  0.51100000000E-03 0. -1.
</event>
<event>
 8    1  0.2091070E+004  0.1043930E+01  0.7957747E-01            NaN
         13   -1    0    0    0    0  0.00000000000E+00  0.00000000000E+00  0.74505805969E-08  0.10566000000E+00  0.10566000000E+00 0. -1.
     999900   -1    0    0    0    0 -0.00000000000E+00 -0.00000000000E+00 -0.74505805969E-08  0.93827000000E+00  0.93827000000E+00 0.  1.
     999902    2    1    2    0    0  0.62114632049E-02 -0.11274959204E-01 -0.13599984744E-03  0.10310565593E+01  0.10309761893E+01 0.  0.
     999903    2    3    3    0    0  0.69728808567E-01  0.31994774540E-01  0.10924881853E+00  0.14096006927E+00  0.45262174475E-01 0.  0.
         14    1    1    2    0    0 -0.62114632049E-02  0.11274959204E-01  0.13599984744E-03  0.12873440727E-01  0.00000000000E+00 0. -1.
     999901    1    3    3    0    0 -0.63517345362E-01 -0.43269733744E-01 -0.10938481837E+00  0.89009649000E+00  0.88000000000E+00 0. -1.
        -11    1    4    4    0    0  0.47397341897E-01 -0.30186350736E-02  0.60575938166E-01  0.76976136447E-01  0.51100000000E-03 0.  1.
         11    1    4    4    0    0  0.22331466670E-01  0.35013409613E-01  0.48672880359E-01  0.63983932825E-01  0.51100000000E-03 0. -1.
</event>
<event>
 8    1  0.2091070E+004  0.1043930E+01  0.7957747E-01            NaN
         13   -1    0    0    0    0  0.00000000000E+00  0.00000000000E+00  0.74505805969E-08  0.10566000000E+00  0.10566000000E+00 0.  1.
     999900   -1    0    0    0    0 -0.00000000000E+00 -0.00000000000E+00 -0.74505805969E-08  0.93827000000E+00  0.93827000000E+00 0. -1.
     999902    2    1    2    0    0  0.81119818243E-02  0.22821953552E-02  0.11656706355E-01  0.10295462777E+01  0.10294457958E+01 0.  0.
     999903    2    3    3    0    0  0.73572032416E-01  0.26788545537E-01  0.10893813059E+00  0.14143071373E+00  0.44773433695E-01 0.  0.
         14    1    1    2    0    0 -0.81119818243E-02 -0.22821953552E-02 -0.11656706355E-01  0.14383722321E-01  0.00000000000E+00 0. -1.
     999901    1    3    3    0    0 -0.65460050592E-01 -0.24506350181E-01 -0.97281424235E-01  0.88811556395E+00  0.88000000000E+00 0. -1.
        -11    1    4    4    0    0  0.55748352354E-01  0.24577208490E-01  0.47028861095E-01  0.76966829636E-01  0.51100000000E-03 0. -1.
         11    1    4    4    0    0  0.17823680062E-01  0.22113370469E-02  0.61909269494E-01  0.64463884097E-01  0.51100000000E-03 0.  1.
</event>
<event>
 8    1  0.2091070E+004  0.1043930E+01  0.7957747E-01            NaN
         13   -1    0    0    0    0  0.00000000000E+00  0.00000000000E+00  0.74505805969E-08  0.10566000000E+00  0.10566000000E+00 0.  1.
     999900   -1    0    0    0    0 -0.00000000000E+00 -0.00000000000E+00 -0.74505805969E-08  0.93827000000E+00  0.93827000000E+00 0.  1.
     999902    2    1    2    0    0 -0.11072551702E-01  0.11268596227E-01  0.33625092661E-02  0.10277779373E+01  0.10276510104E+01 0.  0.
     999903    2    3    3    0    0 -0.54033915398E-01 -0.11794164413E+00 -0.15321119020E-02  0.13729215843E+00  0.44909842637E-01 0.  0.
         14    1    1    2    0    0  0.11072551702E-01 -0.11268596227E-01 -0.33625092661E-02  0.16152062738E-01  0.00000000000E+00 0. -1.
     999901    1    3    3    0    0  0.42961363696E-01  0.12921024036E+00  0.48946211681E-02  0.89048577883E+00  0.88000000000E+00 0.  1.
        -11    1    4    4    0    0 -0.18479715729E-01 -0.65639953715E-01 -0.20598129561E-01  0.71236559993E-01  0.51100000000E-03 0. -1.
         11    1    4    4    0    0 -0.35554199669E-01 -0.52301690418E-01  0.19066017659E-01  0.66055598439E-01  0.51100000000E-03 0.  1.
</event>
<event>
 8    1  0.2091070E+004  0.1043930E+01  0.7957747E-01            NaN
         13   -1    0    0    0    0  0.00000000000E+00  0.00000000000E+00  0.74505805969E-08  0.10566000000E+00  0.10566000000E+00 0. -1.
     999900   -1    0    0    0    0 -0.00000000000E+00 -0.00000000000E+00 -0.74505805969E-08  0.93827000000E+00  0.93827000000E+00 0. -1.
     999902    2    1    2    0    0 -0.34380277328E-03 -0.40000590103E-02  0.13046211831E-01  0.10302800068E+01  0.10301895796E+01 0.  0.
     999903    2    3    3    0    0 -0.37818874967E-01  0.10126887959E+00 -0.75908524809E-01  0.13876507382E+00  0.42520445625E-01 0.  0.
         14    1    1    2    0    0  0.34380277328E-03  0.40000590103E-02 -0.13046211831E-01  0.13649993244E-01  0.00000000000E+00 0.  1.
     999901    1    3    3    0    0  0.37475072194E-01 -0.10526893861E+00  0.88954736640E-01  0.89151493293E+00  0.88000000000E+00 0. -1.
        -11    1    4    4    0    0 -0.16902691397E-01  0.59553156775E-01 -0.18159053764E-01  0.64515826066E-01  0.51100000000E-03 0.  1.
         11    1    4    4    0    0 -0.20916183570E-01  0.41715722820E-01 -0.57749471045E-01  0.74249247757E-01  0.51100000000E-03 0. -1.
</event>
<event>
 8    1  0.2091070E+004  0.1043930E+01  0.7957747E-01            NaN
         13   -1    0    0    0    0  0.00000000000E+00  0.00000000000E+00  0.74505805969E-08  0.10566000000E+00  0.10566000000E+00 0.  1.
     999900   -1    0    0    0    0 -0.00000000000E+00 -0.00000000000E+00 -0.74505805969E-08  0.93827000000E+00  0.93827000000E+00 0. -1.
     999902    2    1    2    0    0 -0.12965206964E-01 -0.35384118304E-02 -0.28283983475E-02  0.10301962173E+01  0.10301046691E+01 0.  0.
     999903    2    3    3    0    0 -0.79773274032E-01  0.74040517843E-01  0.76829903541E-01  0.14068665962E+00  0.45212040261E-01 0.  0.
         14    1    1    2    0    0  0.12965206964E-01  0.35384118304E-02  0.28283983475E-02  0.13733782695E-01  0.00000000000E+00 0.  1.
     999901    1    3    3    0    0  0.66808067069E-01 -0.77578929673E-01 -0.79658301888E-01  0.88950955769E+00  0.88000000000E+00 0. -1.
        -11    1    4    4    0    0 -0.28515349764E-01  0.46834560919E-01  0.57656880073E-01  0.79568701192E-01  0.51100000000E-03 0. -1.
         11    1    4    4    0    0 -0.51257924268E-01  0.27205956924E-01  0.19173023468E-01  0.61117958427E-01  0.51100000000E-03 0.  1.
</event>
<event>
 8    1  0.2091070E+004  0.1043930E+01  0.7957747E-01            NaN
         13   -1    0    0    0    0  0.00000000000E+00  0.00000000000E+00  0.74505805969E-08  0.10566000000E+00  0.10566000000E+00 0. -1.
     999900   -1    0    0    0    0 -0.00000000000E+00 -0.00000000000E+00 -0.74505805969E-08  0.93827000000E+00  0.93827000000E+00 0. -1.
     999902    2    1    2    0    0  0.11040368837E-01  0.74415939599E-02  0.38647105745E-02  0.10300662684E+01  0.10299729678E+01 0.  0.
     999903    2    3    3    0    0 -0.20957951438E-01 -0.14852207739E-01 -0.12932057935E+00  0.13919072857E+00  0.44614155540E-01 0.  0.
         14    1    1    2    0    0 -0.11040368837E-01 -0.74415939599E-02 -0.38647105745E-02  0.13863731552E-01  0.00000000000E+00 0. -1.
     999901    1    3    3    0    0  0.31998320275E-01  0.22293801699E-01  0.13318528992E+00  0.89087553987E+00  0.88000000000E+00 0.  1.
        -11    1    4    4    0    0  0.16932918138E-02 -0.24990147571E-01 -0.82189768820E-01  0.85923186234E-01  0.51100000000E-03 0.  1.
         11    1    4    4    0    0 -0.22651243252E-01  0.10137939832E-01 -0.47130810528E-01  0.53267542340E-01  0.51100000000E-03 0. -1.
</event>
<event>
 8    1  0.2091070E+004  0.1043930E+01  0.7957747E-01            NaN
         13   -1    0    0    0    0  0.00000000000E+00  0.00000000000E+00  0.74505805969E-08  0.10566000000E+00  0.10566000000E+00 0. -1.
     999900   -1    0    0    0    0 -0.00000000000E+00 -0.00000000000E+00 -0.74505805969E-08  0.93827000000E+00  0.93827000000E+00 0.  1.
     999902    2    1    2    0    0 -0.52806502604E-02  0.11242265567E-01 -0.25727122138E-02  0.10312456533E+01  0.10311676415E+01 0.  0.
     999903    2    3    3    0    0 -0.34182907354E-01  0.73513547625E-01  0.10888962195E+00  0.14156205510E+00  0.40126709749E-01 0.  0.
         14    1    1    2    0    0  0.52806502604E-02 -0.11242265567E-01  0.25727122138E-02  0.12684346667E-01  0.00000000000E+00 0.  1.
     999901    1    3    3    0    0  0.28902257094E-01 -0.62271282058E-01 -0.11146233416E+00  0.88968359824E+00  0.88000000000E+00 0.  1.
        -11    1    4    4    0    0 -0.12974096789E-01  0.38665145109E-01  0.23865282947E-01  0.47256041782E-01  0.51100000000E-03 0. -1.
         11    1    4    4    0    0 -0.21208810565E-01  0.34848402516E-01  0.85024339001E-01  0.94306013314E-01  0.51100000000E-03 0.  1.
</event>
<event>
 8    1  0.2091070E+004  0.1043930E+01  0.7957747E-01            NaN
         13   -1    0    0    0    0  0.00000000000E+00  0.00000000000E+00  0.74505805969E-08  0.10566000000E+00  0.10566000000E+00 0. -1.
     999900   -1    0    0    0    0 -0.00000000000E+00 -0.00000000000E+00 -0.74505805969E-08  0.93827000000E+00  0.93827000000E+00 0. -1.
     999902    2    1    2    0    0 -0.79858966696E-02 -0.51781245812E-02 -0.10308150041E-01  0.10298998369E+01  0.10298042671E+01 0.  0.
     999903    2    3    3    0    0 -0.12631645979E+00 -0.90680240382E-02  0.41030206185E-01  0.14048830092E+00  0.44893293506E-01 0.  0.
         14    1    1    2    0    0  0.79858966696E-02  0.51781245812E-02  0.10308150041E-01  0.14030163116E-01  0.00000000000E+00 0. -1.
     999901    1    3    3    0    0  0.11833056312E+00  0.38898994570E-02 -0.51338356225E-01  0.88941153596E+00  0.88000000000E+00 0. -1.
        -11    1    4    4    0    0 -0.83364098503E-01 -0.18522228015E-01  0.85775055204E-02  0.85828203825E-01  0.51100000000E-03 0. -1.
         11    1    4    4    0    0 -0.42952361287E-01  0.94542039768E-02  0.32452700664E-01  0.54660097095E-01  0.51100000000E-03 0.  1.
</event>
<event>
 8    1  0.2091070E+004  0.1043930E+01  0.7957747E-01            NaN
         13   -1    0    0    0    0  0.00000000000E+00  0.00000000000E+00  0.74505805969E-08  0.10566000000E+00  0.10566000000E+00 0. -1.
     999900   -1    0    0    0    0 -0.00000000000E+00 -0.00000000000E+00 -0.74505805969E-08  0.93827000000E+00  0.93827000000E+00 0. -1.
     999902    2    1    2    0    0 -0.10881132535E-01 -0.58951262847E-02  0.66415106663E-02  0.10298850285E+01  0.10297892555E+01 0.  0.
     999903    2    3    3    0    0  0.58551476384E-01  0.11141900933E+00  0.37553266836E-01  0.13885246446E+00  0.45025415153E-01 0.  0.
         14    1    1    2    0    0  0.10881132535E-01  0.58951262847E-02 -0.66415106663E-02  0.14044971452E-01  0.00000000000E+00 0.  1.
     999901    1    3    3    0    0 -0.69432608919E-01 -0.11731413561E+00 -0.30911756170E-01  0.89103256409E+00  0.88000000000E+00 0.  1.
        -11    1    4    4    0    0  0.23845983305E-01  0.15111818282E-01 -0.37095891610E-02  0.28478415411E-01  0.51100000000E-03 0.  1.
         11    1    4    4    0    0  0.34705493079E-01  0.96307191048E-01  0.41262855997E-01  0.11037404905E+00  0.51100000000E-03 0. -1.
</event>
<event>
 8    1  0.2091070E+004  0.1043930E+01  0.7957747E-01            NaN
         13   -1    0    0    0    0  0.00000000000E+00  0.00000000000E+00  0.74505805969E-08  0.10566000000E+00  0.10566000000E+00 0. -1.
     999900   -1    0    0    0    0 -0.00000000000E+00 -0.00000000000E+00 -0.74505805969E-08  0.93827000000E+00  0.93827000000E+00 0. -1.
     999902    2    1    2    0    0  0.25296045961E-02 -0.12983284429E-01 -0.36217141022E-02  0.10302157232E+01  0.10301244367E+01 0.  0.
     999903    2    3    3    0    0  0.10437898513E-01 -0.12683592577E+00 -0.43892045373E-01  0.14193273644E+00  0.44967635436E-01 0.  0.
         14    1    1    2    0    0 -0.25296045961E-02  0.12983284429E-01  0.36217141022E-02  0.13714276759E-01  0.00000000000E+00 0. -1.
     999901    1    3    3    0    0 -0.79082939171E-02  0.11385264134E+00  0.40270331271E-01  0.88828298680E+00  0.88000000000E+00 0. -1.
        -11    1    4    4    0    0  0.22739250173E-01 -0.95009793442E-01 -0.45499905393E-01  0.10777029674E+00  0.51100000000E-03 0. -1.
         11    1    4    4    0    0 -0.12301351659E-01 -0.31826132326E-01  0.16078600201E-02  0.34162439701E-01  0.51100000000E-03 0.  1.
</event>
<event>
 8    1  0.2306105E+004  0.1043930E+01  0.7957747E-01            NaN
         13   -1    0    0    0    0  0.00000000000E+00  0.00000000000E+00  0.74505805969E-08  0.10566000000E+00  0.10566000000E+00 0. -1.
     999900   -1    0    0    0    0 -0.00000000000E+00 -0.00000000000E+00 -0.74505805969E-08  0.93827000000E+00  0.93827000000E+00 0. -1.
     999902    2    1    2    0    0 -0.90739814997E-02 -0.31759529806E-03 -0.10206141689E-01  0.10302697169E+01  0.10301791525E+01 0.  0.
     999903    2    3    3    0    0 -0.10264611192E+00 -0.45486975000E-01  0.71815344567E-01  0.14036885685E+00  0.44053184567E-01 0.  0.
         14    1    1    2    0    0  0.90739814997E-02  0.31759529806E-03  0.10206141689E-01  0.13660283130E-01  0.00000000000E+00 0. -1.
     999901    1    3    3    0    0  0.93572130424E-01  0.45169379702E-01 -0.82021486256E-01  0.88990086002E+00  0.88000000000E+00 0. -1.
        -11    1    4    4    0    0 -0.57910268345E-01 -0.81691039391E-02  0.53589742503E-01  0.79324996448E-01  0.51100000000E-03 0. -1.
         11    1    4    4    0    0 -0.44735843579E-01 -0.37317871061E-01  0.18225602065E-01  0.61043860403E-01  0.51100000000E-03 0.  1.
</event>
<event>
 8    1  0.2091070E+004  0.1043930E+01  0.7957747E-01            NaN
         13   -1    0    0    0    0  0.00000000000E+00  0.00000000000E+00  0.74505805969E-08  0.10566000000E+00  0.10566000000E+00 0. -1.
     999900   -1    0    0    0    0 -0.00000000000E+00 -0.00000000000E+00 -0.74505805969E-08  0.93827000000E+00  0.93827000000E+00 0.  1.
     999902    2    1    2    0    0  0.56468925660E-02  0.71590994562E-02  0.10823922139E-01  0.10297773539E+01  0.10296800966E+01 0.  0.
     999903    2    3    3    0    0 -0.20932929165E-02  0.12599239181E+00  0.35238547950E-01  0.14142081750E+00  0.53662162563E-01 0.  0.
         14    1    1    2    0    0 -0.56468925660E-02 -0.71590994562E-02 -0.10823922139E-01  0.14152646083E-01  0.00000000000E+00 0.  1.
     999901    1    3    3    0    0  0.77401854825E-02 -0.11883329236E+00 -0.24414625811E-01  0.88835653642E+00  0.88000000000E+00 0. -1.
        -11    1    4    4    0    0  0.19151310553E-01  0.73551976053E-01  0.37581510856E-01  0.84789721998E-01  0.51100000000E-03 0.  1.
         11    1    4    4    0    0 -0.21244603470E-01  0.52440415758E-01 -0.23429629065E-02  0.56631095501E-01  0.51100000000E-03 0. -1.
</event>
<event>
 8    1  0.2091070E+004  0.1043930E+01  0.7957747E-01            NaN
         13   -1    0    0    0    0  0.00000000000E+00  0.00000000000E+00  0.74505805969E-08  0.10566000000E+00  0.10566000000E+00 0. -1.
     999900   -1    0    0    0    0 -0.00000000000E+00 -0.00000000000E+00 -0.74505805969E-08  0.93827000000E+00  0.93827000000E+00 0. -1.
     999902    2    1    2    0    0 -0.11375564932E-01 -0.29267907874E-02  0.55936322037E-02  0.10309200691E+01  0.10308379749E+01 0.  0.
     999903    2    3    3    0    0  0.80940661558E-01 -0.66098955442E-01  0.82153802748E-01  0.14054123521E+00  0.45630350464E-01 0.  0.
         14    1    1    2    0    0  0.11375564932E-01  0.29267907874E-02 -0.55936322037E-02  0.13009930940E-01  0.00000000000E+00 0.  1.
     999901    1    3    3    0    0 -0.92316226489E-01  0.63172164655E-01 -0.76560170545E-01  0.89037883385E+00  0.88000000000E+00 0. -1.
        -11    1    4    4    0    0  0.31873949320E-01 -0.45995445016E-01  0.62738376429E-01  0.84070771409E-01  0.51100000000E-03 0.  1.
         11    1    4    4    0    0  0.49066712238E-01 -0.20103510427E-01  0.19415426320E-01  0.56470463798E-01  0.51100000000E-03 0. -1.
</event>
<event>
 8    1  0.2091070E+004  0.1043930E+01  0.7957747E-01            NaN
         13   -1    0    0    0    0  0.00000000000E+00  0.00000000000E+00  0.74505805969E-08  0.10566000000E+00  0.10566000000E+00 0. -1.
     999900   -1    0    0    0    0 -0.00000000000E+00 -0.00000000000E+00 -0.74505805969E-08  0.93827000000E+00  0.93827000000E+00 0.  1.
     999902    2    1    2    0    0  0.32331291902E-02  0.13243801308E-01 -0.40068053871E-02  0.10297206409E+01  0.10296225970E+01 0.  0.
     999903    2    3    3    0    0 -0.12276672878E+00  0.45494861861E-01 -0.20967259183E-01  0.13999947550E+00  0.44930780446E-01 0.  0.
         14    1    1    2    0    0 -0.32331291902E-02 -0.13243801308E-01  0.40068053871E-02  0.14209359129E-01  0.00000000000E+00 0.  1.
     999901    1    3    3    0    0  0.12599985797E+00 -0.32251060552E-01  0.16960453796E-01  0.88972116537E+00  0.88000000000E+00 0. -1.
        -11    1    4    4    0    0 -0.77811690671E-01  0.43573998755E-01 -0.30017920399E-01  0.94099358333E-01  0.51100000000E-03 0.  1.
         11    1    4    4    0    0 -0.44955038110E-01  0.19208631053E-02  0.90506612161E-02  0.45900117168E-01  0.51100000000E-03 0. -1.
</event>
<event>
 8    1  0.2091070E+004  0.1043930E+01  0.7957747E-01            NaN
         13   -1    0    0    0    0  0.00000000000E+00  0.00000000000E+00  0.74505805969E-08  0.10566000000E+00  0.10566000000E+00 0. -1.
     999900   -1    0    0    0    0 -0.00000000000E+00 -0.00000000000E+00 -0.74505805969E-08  0.93827000000E+00  0.93827000000E+00 0.  1.
     999902    2    1    2    0    0  0.80024968990E-02  0.75085653487E-02  0.26859445326E-02  0.10326325309E+01  0.10325707293E+01 0.  0.
     999903    2    3    3    0    0  0.56822927563E-03 -0.55811779199E-02  0.13493169222E+00  0.14262379639E+00  0.45864074156E-01 0.  0.
         14    1    1    2    0    0 -0.80024968990E-02 -0.75085653487E-02 -0.26859445326E-02  0.11297469108E-01  0.00000000000E+00 0.  1.
     999901    1    3    3    0    0  0.74342676233E-02  0.13089743269E-01 -0.13224574769E+00  0.89000873451E+00  0.88000000000E+00 0.  1.
        -11    1    4    4    0    0  0.22450749384E-01  0.55379618259E-03  0.52250044841E-01  0.56874169400E-01  0.51100000000E-03 0.  1.
         11    1    4    4    0    0 -0.21882520108E-01 -0.61349741025E-02  0.82681647382E-01  0.85749626986E-01  0.51100000000E-03 0. -1.
</event>
<event>
 8    1  0.2091070E+004  0.1043930E+01  0.7957747E-01            NaN
         13   -1    0    0    0    0  0.00000000000E+00  0.00000000000E+00  0.74505805969E-08  0.10566000000E+00  0.10566000000E+00 0.  1.
     999900   -1    0    0    0    0 -0.00000000000E+00 -0.00000000000E+00 -0.74505805969E-08  0.93827000000E+00  0.93827000000E+00 0.  1.
     999902    2    1    2    0    0  0.25978827241E-02  0.89051849472E-02 -0.99393935933E-02  0.10303343074E+01  0.10302446030E+01 0.  0.
     999903    2    3    3    0    0 -0.95661242525E-01 -0.31381335359E-01 -0.87483292994E-01  0.14056415965E+00  0.44374484715E-01 0.  0.
         14    1    1    2    0    0 -0.25978827241E-02 -0.89051849472E-02  0.99393935933E-02  0.13595692649E-01  0.00000000000E+00 0.  1.
     999901    1    3    3    0    0  0.98259125249E-01  0.40286520306E-01  0.77543899400E-01  0.88977014771E+00  0.88000000000E+00 0. -1.
        -11    1    4    4    0    0 -0.88098434400E-01 -0.27915743241E-01 -0.92565354369E-01  0.13080225080E+00  0.51100000000E-03 0. -1.
         11    1    4    4    0    0 -0.75628081250E-02 -0.34655921176E-02  0.50820613753E-02  0.97619088443E-02  0.51100000000E-03 0.  1.
</event>
<event>
 8    1  0.2091070E+004  0.1043930E+01  0.7957747E-01            NaN
         13   -1    0    0    0    0  0.00000000000E+00  0.00000000000E+00  0.74505805969E-08  0.10566000000E+00  0.10566000000E+00 0.  1.
     999900   -1    0    0    0    0 -0.00000000000E+00 -0.00000000000E+00 -0.74505805969E-08  0.93827000000E+00  0.93827000000E+00 0.  1.
     999902    2    1    2    0    0 -0.91533975375E-02 -0.10843125643E-01 -0.58843754133E-03  0.10297277354E+01  0.10296297902E+01 0.  0.
     999903    2    3    3    0    0  0.98784105070E-01  0.74077953718E-01 -0.39752811412E-01  0.13821444760E+00  0.47719019999E-01 0.  0.
         14    1    1    2    0    0  0.91533975375E-02  0.10843125643E-01  0.58843754133E-03  0.14202264571E-01  0.00000000000E+00 0.  1.
     999901    1    3    3    0    0 -0.10793750261E+00 -0.84921079362E-01  0.39164373870E-01  0.89151328783E+00  0.88000000000E+00 0. -1.
        -11    1    4    4    0    0  0.18464633341E-01  0.70930173735E-02  0.10255439968E-01  0.22286514977E-01  0.51100000000E-03 0. -1.
         11    1    4    4    0    0  0.80319471729E-01  0.66984936345E-01 -0.50008251380E-01  0.11592793263E+00  0.51100000000E-03 0.  1.
</event>
<event>
 8    1  0.2091070E+004  0.1043930E+01  0.7957747E-01            NaN
         13   -1    0    0    0    0  0.00000000000E+00  0.00000000000E+00  0.74505805969E-08  0.10566000000E+00  0.10566000000E+00 0.  1.
     999900   -1    0    0    0    0 -0.00000000000E+00 -0.00000000000E+00 -0.74505805969E-08  0.93827000000E+00  0.93827000000E+00 0. -1.
     999902    2    1    2    0    0 -0.75999132482E-02 -0.48129119098E-02 -0.19257506233E-01  0.10226750159E+01  0.10224541133E+01 0.  0.
     999903    2    3    3    0    0  0.75510940368E-01  0.72386392763E-01 -0.70550523824E-01  0.13391288784E+00  0.44873078186E-01 0.  0.
         14    1    1    2    0    0  0.75999132482E-02  0.48129119098E-02  0.19257506233E-01  0.21254984092E-01  0.00000000000E+00 0.  1.
     999901    1    3    3    0    0 -0.83110853616E-01 -0.77199304673E-01  0.51293017591E-01  0.88876212807E+00  0.88000000000E+00 0.  1.
        -11    1    4    4    0    0  0.42936257377E-01  0.36567772786E-01 -0.63587722295E-01  0.84996374933E-01  0.51100000000E-03 0.  1.
         11    1    4    4    0    0  0.32574682991E-01  0.35818619977E-01 -0.69628015284E-02  0.48916512909E-01  0.51100000000E-03 0. -1.
</event>
<event>
 8    1  0.2091070E+004  0.1043930E+01  0.7957747E-01            NaN
         13   -1    0    0    0    0  0.00000000000E+00  0.00000000000E+00  0.74505805969E-08  0.10566000000E+00  0.10566000000E+00 0. -1.
     999900   -1    0    0    0    0 -0.00000000000E+00 -0.00000000000E+00 -0.74505805969E-08  0.93827000000E+00  0.93827000000E+00 0. -1.
     999902    2    1    2    0    0  0.11218657872E-01 -0.56201739101E-02 -0.69771637633E-02  0.10295729302E+01  0.10294728229E+01 0.  0.
     999903    2    3    3    0    0  0.12738241207E+00 -0.30571929765E-01  0.26073522592E-01  0.14097349525E+00  0.45086317108E-01 0.  0.
         14    1    1    2    0    0 -0.11218657872E-01  0.56201739101E-02  0.69771637633E-02  0.14357069806E-01  0.00000000000E+00 0. -1.
     999901    1    3    3    0    0 -0.11616375419E+00  0.24951755855E-01 -0.33050686355E-01  0.88859943494E+00  0.88000000000E+00 0. -1.
        -11    1    4    4    0    0  0.67993828877E-01  0.65960126557E-02  0.94427710250E-02  0.68964448769E-01  0.51100000000E-03 0.  1.
         11    1    4    4    0    0  0.59388583188E-01 -0.37167942421E-01  0.16630751567E-01  0.72009046484E-01  0.51100000000E-03 0. -1.
</event>
<event>
 8    1  0.2091070E+004  0.1043930E+01  0.7957747E-01            NaN
         13   -1    0    0    0    0  0.00000000000E+00  0.00000000000E+00  0.74505805969E-08  0.10566000000E+00  0.10566000000E+00 0.  1.
     999900   -1    0    0    0    0 -0.00000000000E+00 -0.00000000000E+00 -0.74505805969E-08  0.93827000000E+00  0.93827000000E+00 0. -1.
     999902    2    1    2    0    0  0.28420750843E-02  0.33111398089E-02  0.11580538198E-01  0.10315546252E+01  0.10314803899E+01 0.  0.
     999903    2    3    3    0    0  0.38389069821E-02  0.11178102836E+00 -0.77779690360E-01  0.14040258378E+00  0.33962770670E-01 0.  0.
         14    1    1    2    0    0 -0.28420750843E-02 -0.33111398089E-02 -0.11580538198E-01  0.12375374846E-01  0.00000000000E+00 0. -1.
     999901    1    3    3    0    0 -0.99683189780E-03 -0.10846988855E+00  0.89360228558E-01  0.89115204137E+00  0.88000000000E+00 0.  1.
        -11    1    4    4    0    0 -0.13893353560E-01  0.37318116057E-01 -0.33000521832E-01  0.51720040810E-01  0.51100000000E-03 0.  1.
         11    1    4    4    0    0  0.17732260542E-01  0.74462912304E-01 -0.44779168528E-01  0.88682542971E-01  0.51100000000E-03 0. -1.
</event>
<event>
 8    1  0.2091070E+004  0.1043930E+01  0.7957747E-01            NaN
         13   -1    0    0    0    0  0.00000000000E+00  0.00000000000E+00  0.74505805969E-08  0.10566000000E+00  0.10566000000E+00 0. -1.
     999900   -1    0    0    0    0 -0.00000000000E+00 -0.00000000000E+00 -0.74505805969E-08  0.93827000000E+00  0.93827000000E+00 0.  1.
     999902    2    1    2    0    0  0.13147233696E-01 -0.13205789270E-02  0.68490299028E-02  0.10290470267E+01  0.10289393959E+01 0.  0.
     999903    2    3    3    0    0  0.79862987501E-01  0.13681529709E-01 -0.10399425262E+00  0.13946156803E+00  0.45491134852E-01 0.  0.
         14    1    1    2    0    0 -0.13147233696E-01  0.13205789270E-02 -0.68490299028E-02  0.14882973264E-01  0.00000000000E+00 0. -1.
     999901    1    3    3    0    0 -0.66715753805E-01 -0.15002108636E-01  0.11084328252E+00  0.88958545871E+00  0.88000000000E+00 0. -1.
        -11    1    4    4    0    0  0.68231436716E-01  0.10534382695E-01 -0.52940642142E-01  0.87002729190E-01  0.51100000000E-03 0. -1.
         11    1    4    4    0    0  0.11631550785E-01  0.31471470137E-02 -0.51053610480E-01  0.52458838836E-01  0.51100000000E-03 0.  1.
</event>
<event>
 8    1  0.2091070E+004  0.1043930E+01  0.7957747E-01            NaN
         13   -1    0    0    0    0  0.00000000000E+00  0.00000000000E+00  0.74505805969E-08  0.10566000000E+00  0.10566000000E+00 0. -1.
     999900   -1    0    0    0    0 -0.00000000000E+00 -0.00000000000E+00 -0.74505805969E-08  0.93827000000E+00  0.93827000000E+00 0.  1.
     999902    2    1    2    0    0  0.60766817446E-02 -0.91486864123E-02  0.83727524022E-02  0.10301195870E+01  0.10300270074E+01 0.  0.
     999903    2    3    3    0    0 -0.75858386568E-01 -0.77875492566E-01 -0.75729873242E-01  0.13966465781E+00  0.44182754378E-01 0.  0.
         14    1    1    2    0    0 -0.60766817446E-02  0.91486864123E-02 -0.83727524022E-02  0.13810412987E-01  0.00000000000E+00 0. -1.
     999901    1    3    3    0    0  0.81935068313E-01  0.68726806153E-01  0.84102625645E-01  0.89045492920E+00  0.88000000000E+00 0. -1.
        -11    1    4    4    0    0 -0.39349451136E-01 -0.66161508547E-01 -0.37919719848E-01  0.85813115503E-01  0.51100000000E-03 0. -1.
         11    1    4    4    0    0 -0.36508935433E-01 -0.11713984018E-01 -0.37810153394E-01  0.53851542306E-01  0.51100000000E-03 0.  1.
</event>
<event>
 8    1  0.2091070E+004  0.1043930E+01  0.7957747E-01            NaN
         13   -1    0    0    0    0  0.00000000000E+00  0.00000000000E+00  0.74505805969E-08  0.10566000000E+00  0.10566000000E+00 0.  1.
     999900   -1    0    0    0    0 -0.00000000000E+00 -0.00000000000E+00 -0.74505805969E-08  0.93827000000E+00  0.93827000000E+00 0.  1.
     999902    2    1    2    0    0  0.15298285736E-01 -0.51415627371E-02  0.40110233536E-03  0.10277858340E+01  0.10276590322E+01 0.  0.
     999903    2    3    3    0    0  0.12931865979E+00 -0.27248025081E-01 -0.87314462201E-02  0.14010754493E+00  0.45695900849E-01 0.  0.
         14    1    1    2    0    0 -0.15298285736E-01  0.51415627371E-02 -0.40110233536E-03  0.16144166034E-01  0.00000000000E+00 0.  1.
     999901    1    3    3    0    0 -0.11402037405E+00  0.22106462344E-01  0.91325485555E-02  0.88767828903E+00  0.88000000000E+00 0.  1.
        -11    1    4    4    0    0  0.46230517760E-01 -0.22133474299E-01  0.15243650814E-01  0.53476924631E-01  0.51100000000E-03 0. -1.
         11    1    4    4    0    0  0.83088142027E-01 -0.51145507826E-02 -0.23975097034E-01  0.86630620303E-01  0.51100000000E-03 0.  1.
</event>
<event>
 8    1  0.2091070E+004  0.1043930E+01  0.7957747E-01            NaN
         13   -1    0    0    0    0  0.00000000000E+00  0.00000000000E+00  0.74505805969E-08  0.10566000000E+00  0.10566000000E+00 0. -1.
     999900   -1    0    0    0    0 -0.00000000000E+00 -0.00000000000E+00 -0.74505805969E-08  0.93827000000E+00  0.93827000000E+00 0.  1.
     999902    2    1    2    0    0 -0.36515175143E-02  0.58152537491E-02  0.62779948449E-02  0.10346260237E+01  0.10345841894E+01 0.  0.
     999903    2    3    3    0    0 -0.18619830040E-01  0.45345923195E-04  0.13686298125E+00  0.14484527489E+00  0.43611671533E-01 0.  0.
         14    1    1    2    0    0  0.36515175143E-02 -0.58152537491E-02 -0.62779948449E-02  0.93039763325E-02  0.00000000000E+00 0.  1.
     999901    1    3    3    0    0  0.14968312526E-01  0.57699078259E-02 -0.13058498641E+00  0.88978074878E+00  0.88000000000E+00 0.  1.
        -11    1    4    4    0    0 -0.28161684144E-01  0.87854645137E-02  0.12005408779E+00  0.12362649375E+00  0.51100000000E-03 0.  1.
         11    1    4    4    0    0  0.95418541041E-02 -0.87401185905E-02  0.16808893464E-01  0.21218781143E-01  0.51100000000E-03 0. -1.
</event>
<event>
 8    1  0.2091070E+004  0.1043930E+01  0.7957747E-01            NaN
         13   -1    0    0    0    0  0.00000000000E+00  0.00000000000E+00  0.74505805969E-08  0.10566000000E+00  0.10566000000E+00 0.  1.
     999900   -1    0    0    0    0 -0.00000000000E+00 -0.00000000000E+00 -0.74505805969E-08  0.93827000000E+00  0.93827000000E+00 0. -1.
     999902    2    1    2    0    0  0.11805718443E-01  0.48862565669E-02 -0.35805860790E-02  0.10306608219E+01  0.10305754017E+01 0.  0.
     999903    2    3    3    0    0  0.13187902022E+00 -0.13322038131E-01 -0.38065597581E-01  0.14165106051E+00  0.32349351623E-01 0.  0.
         14    1    1    2    0    0 -0.11805718443E-01 -0.48862565669E-02  0.35805860790E-02  0.13269178116E-01  0.00000000000E+00 0.  1.
     999901    1    3    3    0    0 -0.12007330178E+00  0.18208294698E-01  0.34485011502E-01  0.88900976137E+00  0.88000000000E+00 0. -1.
        -11    1    4    4    0    0  0.38279054170E-01 -0.64463088604E-02 -0.26688871006E-01  0.47110485486E-01  0.51100000000E-03 0.  1.
         11    1    4    4    0    0  0.93599966052E-01 -0.68757292702E-02 -0.11376726575E-01  0.94540575027E-01  0.51100000000E-03 0. -1.
</event>
<event>
 8    1  0.2091070E+004  0.1043930E+01  0.7957747E-01            NaN
         13   -1    0    0    0    0  0.00000000000E+00  0.00000000000E+00  0.74505805969E-08  0.10566000000E+00  0.10566000000E+00 0.  1.
     999900   -1    0    0    0    0 -0.00000000000E+00 -0.00000000000E+00 -0.74505805969E-08  0.93827000000E+00  0.93827000000E+00 0.  1.
     999902    2    1    2    0    0 -0.34131925042E-02 -0.12860173337E-01 -0.36266008750E-02  0.10301391996E+01  0.10300468846E+01 0.  0.
     999903    2    3    3    0    0  0.45086711812E-01 -0.12408787809E+00 -0.24426649050E-01  0.14156928958E+00  0.44884178701E-01 0.  0.
         14    1    1    2    0    0  0.34131925042E-02  0.12860173337E-01  0.36266008750E-02  0.13790800384E-01  0.00000000000E+00 0.  1.
     999901    1    3    3    0    0 -0.48499904316E-01  0.11122770475E+00  0.20800048175E-01  0.88856991004E+00  0.88000000000E+00 0. -1.
        -11    1    4    4    0    0  0.32082574063E-01 -0.39383128968E-01 -0.23238359878E-01  0.55862374606E-01  0.51100000000E-03 0. -1.
         11    1    4    4    0    0  0.13004137749E-01 -0.84704749118E-01 -0.11882891725E-02  0.85706914971E-01  0.51100000000E-03 0.  1.
</event>
<event>
 8    1  0.2091070E+004  0.1043930E+01  0.7957747E-01            NaN
         13   -1    0    0    0    0  0.00000000000E+00  0.00000000000E+00  0.74505805969E-08  0.10566000000E+00  0.10566000000E+00 0. -1.
     999900   -1    0    0    0    0 -0.00000000000E+00 -0.00000000000E+00 -0.74505805969E-08  0.93827000000E+00  0.93827000000E+00 0. -1.
     999902    2    1    2    0    0 -0.16017676694E-02  0.19864111534E-01 -0.56380867447E-02  0.10232192152E+01  0.10230095922E+01 0.  0.
     999903    2    3    3    0    0 -0.36966715325E-01  0.59150105278E-01 -0.10756441745E+00  0.13576045796E+00  0.44671300071E-01 0.  0.
         14    1    1    2    0    0  0.16017676694E-02 -0.19864111534E-01  0.56380867447E-02  0.20710784844E-01  0.00000000000E+00 0. -1.
     999901    1    3    3    0    0  0.35364947656E-01 -0.39285993744E-01  0.10192633070E+00  0.88745875719E+00  0.88000000000E+00 0.  1.
        -11    1    4    4    0    0  0.15785613348E-02 -0.52859349138E-02 -0.18273134916E-01  0.19094542269E-01  0.51100000000E-03 0.  1.
         11    1    4    4    0    0 -0.38545276660E-01  0.64436040191E-01 -0.89291282529E-01  0.11666591570E+00  0.51100000000E-03 0. -1.
</event>
<event>
 8    1  0.2091070E+004  0.1043930E+01  0.7957747E-01            NaN
         13   -1    0    0    0    0  0.00000000000E+00  0.00000000000E+00  0.74505805969E-08  0.10566000000E+00  0.10566000000E+00 0.  1.
     999900   -1    0    0    0    0 -0.00000000000E+00 -0.00000000000E+00 -0.74505805969E-08  0.93827000000E+00  0.93827000000E+00 0. -1.
     999902    2    1    2    0    0 -0.40753048086E-02 -0.77729723115E-02  0.11342669006E-01  0.10295883352E+01  0.10294884442E+01 0.  0.
     999903    2    3    3    0    0 -0.12258035040E+00 -0.28242175619E-01  0.44579224568E-01  0.14078739986E+00  0.44835498311E-01 0.  0.
         14    1    1    2    0    0  0.40753048086E-02  0.77729723115E-02 -0.11342669006E-01  0.14341664757E-01  0.00000000000E+00 0. -1.
     999901    1    3    3    0    0  0.11850504559E+00  0.20469203308E-01 -0.33236555562E-01  0.88880093538E+00  0.88000000000E+00 0.  1.
        -11    1    4    4    0    0 -0.99605473433E-01 -0.72583725256E-02  0.21802271569E-01  0.10222296452E+00  0.51100000000E-03 0. -1.
         11    1    4    4    0    0 -0.22974876964E-01 -0.20983803093E-01  0.22776952998E-01  0.38564435334E-01  0.51100000000E-03 0.  1.
</event>
<event>
 8    1  0.2091070E+004  0.1043930E+01  0.7957747E-01            NaN
         13   -1    0    0    0    0  0.00000000000E+00  0.00000000000E+00  0.74505805969E-08  0.10566000000E+00  0.10566000000E+00 0. -1.
     999900   -1    0    0    0    0 -0.00000000000E+00 -0.00000000000E+00 -0.74505805969E-08  0.93827000000E+00  0.93827000000E+00 0. -1.
     999902    2    1    2    0    0  0.12116555816E-01  0.34476724900E-02 -0.56760598201E-02  0.10301127996E+01  0.10300201284E+01 0.  0.
     999903    2    3    3    0    0 -0.11922581824E+00 -0.34805028929E-02 -0.55484340796E-01  0.13894520391E+00  0.44725249918E-01 0.  0.
         14    1    1    2    0    0 -0.12116555816E-01 -0.34476724900E-02  0.56760598201E-02  0.13817200351E-01  0.00000000000E+00 0.  1.
     999901    1    3    3    0    0  0.13134237406E+00  0.69281753829E-02  0.49808280976E-01  0.89116759574E+00  0.88000000000E+00 0. -1.
        -11    1    4    4    0    0 -0.85505701658E-01  0.10751725550E-01 -0.55193931064E-01  0.10233990310E+00  0.51100000000E-03 0.  1.
         11    1    4    4    0    0 -0.33720116587E-01 -0.14232228443E-01 -0.29040973223E-03  0.36605300817E-01  0.51100000000E-03 0. -1.
</event>
<event>
 8    1  0.2091070E+004  0.1043930E+01  0.7957747E-01            NaN
         13   -1    0    0    0    0  0.00000000000E+00  0.00000000000E+00  0.74505805969E-08  0.10566000000E+00  0.10566000000E+00 0. -1.
     999900   -1    0    0    0    0 -0.00000000000E+00 -0.00000000000E+00 -0.74505805969E-08  0.93827000000E+00  0.93827000000E+00 0.  1.
     999902    2    1    2    0    0  0.11757276726E-01 -0.63333355776E-02  0.62111923549E-03  0.10305609879E+01  0.10304742691E+01 0.  0.
     999903    2    3    3    0    0 -0.36891268051E-01 -0.76145280776E-01 -0.10260596268E+00  0.14045075930E+00  0.45159304353E-01 0.  0.
         14    1    1    2    0    0 -0.11757276726E-01  0.63333355776E-02 -0.62111923549E-03  0.13369012105E-01  0.00000000000E+00 0.  1.
     999901    1    3    3    0    0  0.48648544777E-01  0.69811945198E-01  0.10322708191E+00  0.89011022859E+00  0.88000000000E+00 0.  1.
        -11    1    4    4    0    0  0.73405894358E-02 -0.32801554071E-01 -0.42031324663E-01  0.53821181487E-01  0.51100000000E-03 0.  1.
         11    1    4    4    0    0 -0.44231857487E-01 -0.43343726705E-01 -0.60574638013E-01  0.86629577818E-01  0.51100000000E-03 0. -1.
</event>
<event>
 8    1  0.2091070E+004  0.1043930E+01  0.7957747E-01            NaN
         13   -1    0    0    0    0  0.00000000000E+00  0.00000000000E+00  0.74505805969E-08  0.10566000000E+00  0.10566000000E+00 0. -1.
     999900   -1    0    0    0    0 -0.00000000000E+00 -0.00000000000E+00 -0.74505805969E-08  0.93827000000E+00  0.93827000000E+00 0.  1.
     999902    2    1    2    0    0  0.38057338065E-02  0.10847731663E-01  0.86717657251E-02  0.10295301246E+01  0.10294294152E+01 0.  0.
     999903    2    3    3    0    0 -0.64364677898E-01  0.10925452733E+00 -0.30744283392E-01  0.14055052558E+00  0.52248213133E-01 0.  0.
         14    1    1    2    0    0 -0.38057338065E-02 -0.10847731663E-01 -0.86717657251E-02  0.14399875445E-01  0.00000000000E+00 0.  1.
     999901    1    3    3    0    0  0.68170411704E-01 -0.98406795671E-01  0.39416049117E-01  0.88897959898E+00  0.88000000000E+00 0.  1.
        -11    1    4    4    0    0 -0.64369015178E-01  0.78135940372E-01 -0.38775086904E-01  0.10840831969E+00  0.51100000000E-03 0.  1.
         11    1    4    4    0    0  0.43372804792E-05  0.31118586962E-01  0.80308035123E-02  0.32142205889E-01  0.51100000000E-03 0. -1.
</event>
<event>
 8    1  0.2091070E+004  0.1043930E+01  0.7957747E-01            NaN
         13   -1    0    0    0    0  0.00000000000E+00  0.00000000000E+00  0.74505805969E-08  0.10566000000E+00  0.10566000000E+00 0.  1.
     999900   -1    0    0    0    0 -0.00000000000E+00 -0.00000000000E+00 -0.74505805969E-08  0.93827000000E+00  0.93827000000E+00 0.  1.
     999902    2    1    2    0    0  0.91799539541E-02 -0.10126032085E-01  0.19037375901E-02  0.10301302791E+01  0.10300378438E+01 0.  0.
     999903    2    3    3    0    0 -0.11456219049E+00  0.63695192906E-01 -0.72378110297E-02  0.13836503000E+00  0.43714099889E-01 0.  0.
         14    1    1    2    0    0 -0.91799539541E-02  0.10126032085E-01 -0.19037375901E-02  0.13799720910E-01  0.00000000000E+00 0. -1.
     999901    1    3    3    0    0  0.12374214445E+00 -0.73821224991E-01  0.91415486197E-02  0.89176524909E+00  0.88000000000E+00 0.  1.
        -11    1    4    4    0    0 -0.51004425988E-01  0.65962296911E-02 -0.11923530478E-01  0.52795770821E-01  0.51100000000E-03 0.  1.
         11    1    4    4    0    0 -0.63557764504E-01  0.57098963215E-01  0.46857194479E-02  0.85569259180E-01  0.51100000000E-03 0. -1.
</event>
<event>
 8    1  0.2091070E+004  0.1043930E+01  0.7957747E-01            NaN
         13   -1    0    0    0    0  0.00000000000E+00  0.00000000000E+00  0.74505805969E-08  0.10566000000E+00  0.10566000000E+00 0.  1.
     999900   -1    0    0    0    0 -0.00000000000E+00 -0.00000000000E+00 -0.74505805969E-08  0.93827000000E+00  0.93827000000E+00 0. -1.
     999902    2    1    2    0    0  0.72867415462E-02 -0.11457674622E-01  0.55284089009E-03  0.10303402780E+01  0.10302506530E+01 0.  0.
     999903    2    3    3    0    0 -0.11877968324E+00  0.28418386660E-01  0.49054057132E-01  0.13914152820E+00  0.45142513200E-01 0.  0.
         14    1    1    2    0    0 -0.72867415462E-02  0.11457674622E-01 -0.55284089009E-03  0.13589721967E-01  0.00000000000E+00 0. -1.
     999901    1    3    3    0    0  0.12606642479E+00 -0.39876061281E-01 -0.48501216241E-01  0.89119874983E+00  0.88000000000E+00 0.  1.
        -11    1    4    4    0    0 -0.21184975925E-01  0.74604528184E-02 -0.83786272452E-02  0.23977574455E-01  0.51100000000E-03 0.  1.
         11    1    4    4    0    0 -0.97594707317E-01  0.20957933841E-01  0.57432684377E-01  0.11516395375E+00  0.51100000000E-03 0. -1.
</event>
<event>
 8    1  0.2091070E+004  0.1043930E+01  0.7957747E-01            NaN
         13   -1    0    0    0    0  0.00000000000E+00  0.00000000000E+00  0.74505805969E-08  0.10566000000E+00  0.10566000000E+00 0.  1.
     999900   -1    0    0    0    0 -0.00000000000E+00 -0.00000000000E+00 -0.74505805969E-08  0.93827000000E+00  0.93827000000E+00 0.  1.
     999902    2    1    2    0    0 -0.60645421222E-02 -0.98363412206E-03 -0.13720141018E-01  0.10288970869E+01  0.10287872603E+01 0.  0.
     999903    2    3    3    0    0 -0.11858451460E-01 -0.18136726958E-01 -0.13162068362E+00  0.14084960171E+00  0.45222142922E-01 0.  0.
         14    1    1    2    0    0  0.60645421222E-02  0.98363412206E-03  0.13720141018E-01  0.15032913117E-01  0.00000000000E+00 0.  1.
     999901    1    3    3    0    0  0.57939093375E-02  0.17153092836E-01  0.11790054260E+00  0.88804748517E+00  0.88000000000E+00 0. -1.
        -11    1    4    4    0    0 -0.83070295678E-02  0.14802147613E-01 -0.42295626940E-01  0.45577313364E-01  0.51100000000E-03 0. -1.
         11    1    4    4    0    0 -0.35514218919E-02 -0.32938874572E-01 -0.89325056675E-01  0.95272288345E-01  0.51100000000E-03 0.  1.
</event>
<event>
 8    1  0.2091070E+004  0.1043930E+01  0.7957747E-01            NaN
         13   -1    0    0    0    0  0.00000000000E+00  0.00000000000E+00  0.74505805969E-08  0.10566000000E+00  0.10566000000E+00 0. -1.
     999900   -1    0    0    0    0 -0.00000000000E+00 -0.00000000000E+00 -0.74505805969E-08  0.93827000000E+00  0.93827000000E+00 0.  1.
     999902    2    1    2    0    0 -0.53515600662E-02 -0.12855802526E-01  0.12306929251E-02  0.10299505344E+01  0.10298556587E+01 0.  0.
     999903    2    3    3    0    0 -0.97087251707E-01  0.23748575736E-01 -0.87291336890E-01  0.14001150985E+00  0.44648808510E-01 0.  0.
         14    1    1    2    0    0  0.53515600662E-02  0.12855802526E-01 -0.12306929251E-02  0.13979465613E-01  0.00000000000E+00 0. -1.
     999901    1    3    3    0    0  0.91735691641E-01 -0.36604378263E-01  0.88522029815E-01  0.88993902454E+00  0.88000000000E+00 0. -1.
        -11    1    4    4    0    0 -0.42468033035E-01  0.18697487372E-01 -0.14009610619E-01  0.48473293416E-01  0.51100000000E-03 0. -1.
         11    1    4    4    0    0 -0.54619218672E-01  0.50510883640E-02 -0.73281726271E-01  0.91538216435E-01  0.51100000000E-03 0.  1.
</event>
<event>
 8    1  0.2091070E+004  0.1043930E+01  0.7957747E-01            NaN
         13   -1    0    0    0    0  0.00000000000E+00  0.00000000000E+00  0.74505805969E-08  0.10566000000E+00  0.10566000000E+00 0. -1.
     999900   -1    0    0    0    0 -0.00000000000E+00 -0.00000000000E+00 -0.74505805969E-08  0.93827000000E+00  0.93827000000E+00 0.  1.
     999902    2    1    2    0    0 -0.11641400903E-01  0.80521738612E-02  0.53821869811E-02  0.10287864319E+01  0.10286749704E+01 0.  0.
     999903    2    3    3    0    0 -0.66880473245E-01 -0.25790006458E-01 -0.10915040791E+00  0.13900310793E+00  0.47643785877E-01 0.  0.
         14    1    1    2    0    0  0.11641400903E-01 -0.80521738612E-02 -0.53821869811E-02  0.15143568125E-01  0.00000000000E+00 0.  1.
     999901    1    3    3    0    0  0.55239072342E-01  0.33842180320E-01  0.11453259489E+00  0.88978332395E+00  0.88000000000E+00 0. -1.
        -11    1    4    4    0    0 -0.59849248619E-01 -0.17398866908E-01 -0.53069552682E-01  0.81861417486E-01  0.51100000000E-03 0.  1.
         11    1    4    4    0    0 -0.70312246251E-02 -0.83911395507E-02 -0.56080855226E-01  0.57141690442E-01  0.51100000000E-03 0. -1.
</event>
<event>
 8    1  0.2091070E+004  0.1043930E+01  0.7957747E-01            NaN
         13   -1    0    0    0    0  0.00000000000E+00  0.00000000000E+00  0.74505805969E-08  0.10566000000E+00  0.10566000000E+00 0.  1.
     999900   -1    0    0    0    0 -0.00000000000E+00 -0.00000000000E+00 -0.74505805969E-08  0.93827000000E+00  0.93827000000E+00 0. -1.
     999902    2    1    2    0    0  0.38669590076E-03 -0.23013347439E-02  0.13373306913E-01  0.10303546174E+01  0.10302651826E+01 0.  0.
     999903    2    3    3    0    0  0.91323338989E-01 -0.79553322034E-01  0.56709450746E-01  0.14124530804E+00  0.45448783811E-01 0.  0.
         14    1    1    2    0    0 -0.38669590076E-03  0.23013347439E-02 -0.13373306913E-01  0.13575382614E-01  0.00000000000E+00 0. -1.
     999901    1    3    3    0    0 -0.90936643088E-01  0.77251987290E-01 -0.43336143833E-01  0.88910930934E+00  0.88000000000E+00 0.  1.
        -11    1    4    4    0    0  0.56662683554E-01 -0.28259332029E-01  0.46359199789E-01  0.78477296592E-01  0.51100000000E-03 0.  1.
         11    1    4    4    0    0  0.34660655434E-01 -0.51293990005E-01  0.10350250957E-01  0.62768011452E-01  0.51100000000E-03 0. -1.
</event>
<event>
 8    1  0.2091070E+004  0.1043930E+01  0.7957747E-01            NaN
         13   -1    0    0    0    0  0.00000000000E+00  0.00000000000E+00  0.74505805969E-08  0.10566000000E+00  0.10566000000E+00 0.  1.
     999900   -1    0    0    0    0 -0.00000000000E+00 -0.00000000000E+00 -0.74505805969E-08  0.93827000000E+00  0.93827000000E+00 0. -1.
     999902    2    1    2    0    0 -0.54706600385E-02  0.15633300005E-03 -0.12764609702E-01  0.10300415940E+01  0.10299479586E+01 0.  0.
     999903    2    3    3    0    0 -0.47363205541E-01  0.12208586785E+00  0.20586471301E-01  0.14002244168E+00  0.45102649649E-01 0.  0.
         14    1    1    2    0    0  0.54706600385E-02 -0.15633300005E-03  0.12764609702E-01  0.13888406032E-01  0.00000000000E+00 0.  1.
     999901    1    3    3    0    0  0.41892545503E-01 -0.12192953485E+00 -0.33351081003E-01  0.89001915229E+00  0.88000000000E+00 0.  1.
        -11    1    4    4    0    0 -0.37498372047E-01  0.37432531021E-01  0.35249819256E-02  0.53103756019E-01  0.51100000000E-03 0.  1.
         11    1    4    4    0    0 -0.98648334947E-02  0.84653336828E-01  0.17061489375E-01  0.86918685659E-01  0.51100000000E-03 0. -1.
</event>
<event>
 8    1  0.2091070E+004  0.1043930E+01  0.7957747E-01            NaN
         13   -1    0    0    0    0  0.00000000000E+00  0.00000000000E+00  0.74505805969E-08  0.10566000000E+00  0.10566000000E+00 0.  1.
     999900   -1    0    0    0    0 -0.00000000000E+00 -0.00000000000E+00 -0.74505805969E-08  0.93827000000E+00  0.93827000000E+00 0.  1.
     999902    2    1    2    0    0 -0.17963028936E-02  0.46896271969E-02  0.13180587319E-01  0.10298251360E+01  0.10297285387E+01 0.  0.
     999903    2    3    3    0    0  0.81310763591E-01 -0.17001307452E-01 -0.10077965797E+00  0.13832964038E+00  0.45585800596E-01 0.  0.
         14    1    1    2    0    0  0.17963028936E-02 -0.46896271969E-02 -0.13180587319E-01  0.14104864033E-01  0.00000000000E+00 0. -1.
     999901    1    3    3    0    0 -0.83107066484E-01  0.21690934649E-01  0.11396024529E+00  0.89149549559E+00  0.88000000000E+00 0. -1.
        -11    1    4    4    0    0  0.58687357533E-01 -0.12442663393E-02 -0.38453714535E-01  0.70176231129E-01  0.51100000000E-03 0. -1.
         11    1    4    4    0    0  0.22623406058E-01 -0.15757041113E-01 -0.62325943436E-01  0.68153409251E-01  0.51100000000E-03 0.  1.
</event>
<event>
 7    1  0.2091070E+004  0.1043930E+01  0.7957747E-01            NaN
         13   -1    0    0    0    0  0.00000000000E+00  0.00000000000E+00  0.74505805969E-08  0.10566000000E+00  0.10566000000E+00 0. -1.
     999900   -1    0    0    0    0 -0.00000000000E+00 -0.00000000000E+00 -0.74505805969E-08  0.93827000000E+00  0.93827000000E+00 0.  1.
     999903    2    1    2    0    0 -0.19484959998E-01  0.62376269779E-01  0.33555798725E-01  0.86213351546E-01  0.45125244145E-01 0.  0.
         14    1    1    2    0    0  0.36132275471E-01 -0.86919612789E-02  0.60415544681E-01  0.70930455805E-01  0.00000000000E+00 0. -1.
     999901    1    1    2    0    0 -0.16647315473E-01 -0.53684308501E-01 -0.93971343405E-01  0.88678619265E+00  0.88000000000E+00 0.  1.
        -11    1    3    3    0    0 -0.31031624921E-01  0.42740702415E-01  0.10607315874E-01  0.53874907510E-01  0.51100000000E-03 0. -1.
         11    1    3    3    0    0  0.11546664923E-01  0.19635567364E-01  0.22948482850E-01  0.32338444036E-01  0.51100000000E-03 0.  1.
</event>
<event>
 8    1  0.2091070E+004  0.1043930E+01  0.7957747E-01            NaN
         13   -1    0    0    0    0  0.00000000000E+00  0.00000000000E+00  0.74505805969E-08  0.10566000000E+00  0.10566000000E+00 0.  1.
     999900   -1    0    0    0    0 -0.00000000000E+00 -0.00000000000E+00 -0.74505805969E-08  0.93827000000E+00  0.93827000000E+00 0. -1.
     999902    2    1    2    0    0  0.57690816141E-02  0.67093822247E-02  0.11707001570E-01  0.10292551236E+01  0.10291505028E+01 0.  0.
     999903    2    3    3    0    0 -0.91966306435E-01 -0.88954384296E-01  0.28178880084E-01  0.13853907168E+00  0.45037107985E-01 0.  0.
         14    1    1    2    0    0 -0.57690816141E-02 -0.67093822247E-02 -0.11707001570E-01  0.14674876431E-01  0.00000000000E+00 0. -1.
     999901    1    3    3    0    0  0.97735388050E-01  0.95663766520E-01 -0.16471878514E-01  0.89071605188E+00  0.88000000000E+00 0. -1.
        -11    1    4    4    0    0 -0.52533775321E-01 -0.76257986513E-01  0.94853751027E-02  0.93087655026E-01  0.51100000000E-03 0. -1.
         11    1    4    4    0    0 -0.39432531115E-01 -0.12696397783E-01  0.18693504982E-01  0.45451416658E-01  0.51100000000E-03 0.  1.
</event>
<event>
 8    1  0.2091070E+004  0.1043930E+01  0.7957747E-01            NaN
         13   -1    0    0    0    0  0.00000000000E+00  0.00000000000E+00  0.74505805969E-08  0.10566000000E+00  0.10566000000E+00 0.  1.
     999900   -1    0    0    0    0 -0.00000000000E+00 -0.00000000000E+00 -0.74505805969E-08  0.93827000000E+00  0.93827000000E+00 0. -1.
     999902    2    1    2    0    0  0.58014695863E-02 -0.89751326669E-02 -0.64027957844E-02  0.10314718360E+01  0.10313965981E+01 0.  0.
     999903    2    3    3    0    0  0.10742656508E+00  0.40191403197E-01 -0.71224326827E-01  0.14189506072E+00  0.43651892839E-01 0.  0.
         14    1    1    2    0    0 -0.58014695863E-02  0.89751326669E-02  0.64027957844E-02  0.12458163974E-01  0.00000000000E+00 0. -1.
     999901    1    3    3    0    0 -0.10162509549E+00 -0.49166535864E-01  0.64821531043E-01  0.88957677531E+00  0.88000000000E+00 0. -1.
        -11    1    4    4    0    0  0.95742988836E-01  0.18934684202E-01 -0.63483213255E-01  0.11642861188E+00  0.51100000000E-03 0. -1.
         11    1    4    4    0    0  0.11683576242E-01  0.21256718995E-01 -0.77411135724E-02  0.25466448841E-01  0.51100000000E-03 0.  1.
</event>
<event>
 8    1  0.2091070E+004  0.1043930E+01  0.7957747E-01            NaN
         13   -1    0    0    0    0  0.00000000000E+00  0.00000000000E+00  0.74505805969E-08  0.10566000000E+00  0.10566000000E+00 0.  1.
     999900   -1    0    0    0    0 -0.00000000000E+00 -0.00000000000E+00 -0.74505805969E-08  0.93827000000E+00  0.93827000000E+00 0.  1.
     999902    2    1    2    0    0  0.10813581538E-01  0.12934888856E-01 -0.27226336316E-02  0.10268520133E+01  0.10267099881E+01 0.  0.
     999903    2    3    3    0    0 -0.53485600733E-01  0.11868391808E+00  0.48174893236E-02  0.13815966189E+00  0.46025015738E-01 0.  0.
         14    1    1    2    0    0 -0.10813581538E-01 -0.12934888856E-01  0.27226336316E-02  0.17077986687E-01  0.00000000000E+00 0.  1.
     999901    1    3    3    0    0  0.64299182271E-01 -0.10574902922E+00 -0.75401229551E-02  0.88869235142E+00  0.88000000000E+00 0.  1.
        -11    1    4    4    0    0 -0.38816385780E-01  0.65734074224E-01  0.23898464763E-01  0.79994237656E-01  0.51100000000E-03 0. -1.
         11    1    4    4    0    0 -0.14669214954E-01  0.52949843856E-01 -0.19080975439E-01  0.58165424235E-01  0.51100000000E-03 0.  1.
</event>
<event>
 8    1  0.2091070E+004  0.1043930E+01  0.7957747E-01            NaN
         13   -1    0    0    0    0  0.00000000000E+00  0.00000000000E+00  0.74505805969E-08  0.10566000000E+00  0.10566000000E+00 0. -1.
     999900   -1    0    0    0    0 -0.00000000000E+00 -0.00000000000E+00 -0.74505805969E-08  0.93827000000E+00  0.93827000000E+00 0.  1.
     999902    2    1    2    0    0  0.43658299164E-02 -0.13971458932E-01  0.63633906224E-02  0.10279689576E+01  0.10278450383E+01 0.  0.
     999903    2    3    3    0    0  0.84373946569E-01  0.87303436170E-01 -0.43256453199E-01  0.13717154400E+00  0.46947405813E-01 0.  0.
         14    1    1    2    0    0 -0.43658299164E-02  0.13971458932E-01 -0.63633906224E-02  0.15961042440E-01  0.00000000000E+00 0.  1.
     999901    1    3    3    0    0 -0.80008116653E-01 -0.10127489510E+00  0.49619843821E-01  0.89079741356E+00  0.88000000000E+00 0. -1.
        -11    1    4    4    0    0  0.56523636604E-01  0.70454833542E-01 -0.10409327839E-01  0.90925355602E-01  0.51100000000E-03 0. -1.
         11    1    4    4    0    0  0.27850309965E-01  0.16848602629E-01 -0.32847125360E-01  0.46246188396E-01  0.51100000000E-03 0.  1.
</event>
<event>
 8    1  0.2091070E+004  0.1043930E+01  0.7957747E-01            NaN
         13   -1    0    0    0    0  0.00000000000E+00  0.00000000000E+00  0.74505805969E-08  0.10566000000E+00  0.10566000000E+00 0.  1.
     999900   -1    0    0    0    0 -0.00000000000E+00 -0.00000000000E+00 -0.74505805969E-08  0.93827000000E+00  0.93827000000E+00 0.  1.
     999902    2    1    2    0    0  0.19046259411E-02 -0.15808325402E-01 -0.16029590939E-02  0.10279268681E+01  0.10278022893E+01 0.  0.
     999903    2    3    3    0    0 -0.10945677335E+00 -0.71700777890E-01 -0.15117347963E-01  0.13904669273E+00  0.44538317973E-01 0.  0.
         14    1    1    2    0    0 -0.19046259411E-02  0.15808325402E-01  0.16029590939E-02  0.16003131877E-01  0.00000000000E+00 0.  1.
     999901    1    3    3    0    0  0.11136139929E+00  0.55892452488E-01  0.13514388869E-01  0.88888017539E+00  0.88000000000E+00 0. -1.
        -11    1    4    4    0    0 -0.10656352152E+00 -0.55667571565E-01 -0.60190265989E-02  0.12037920271E+00  0.51100000000E-03 0. -1.
         11    1    4    4    0    0 -0.28932518350E-02 -0.16033206325E-01 -0.90983213644E-02  0.18667490027E-01  0.51100000000E-03 0.  1.
</event>
<event>
 8    1  0.2091070E+004  0.1043930E+01  0.7957747E-01            NaN
         13   -1    0    0    0    0  0.00000000000E+00  0.00000000000E+00  0.74505805969E-08  0.10566000000E+00  0.10566000000E+00 0. -1.
     999900   -1    0    0    0    0 -0.00000000000E+00 -0.00000000000E+00 -0.74505805969E-08  0.93827000000E+00  0.93827000000E+00 0. -1.
     999902    2    1    2    0    0 -0.41258265453E-02 -0.73933724047E-02  0.10479356225E-01  0.10304577579E+01  0.10303696858E+01 0.  0.
     999903    2    3    3    0    0  0.52512621130E-02  0.12754162844E+00  0.34306767263E-01  0.13980455392E+00  0.45540270947E-01 0.  0.
         14    1    1    2    0    0  0.41258265453E-02  0.73933724047E-02 -0.10479356225E-01  0.13472242096E-01  0.00000000000E+00 0.  1.
     999901    1    3    3    0    0 -0.93770886584E-02 -0.13493500085E+00 -0.23827411038E-01  0.89065320398E+00  0.88000000000E+00 0.  1.
        -11    1    4    4    0    0  0.40640473508E-02  0.44149184900E-01  0.34857751450E-01  0.56400274515E-01  0.51100000000E-03 0. -1.
         11    1    4    4    0    0  0.11872147623E-02  0.83392443543E-01 -0.55098418730E-03  0.83404279408E-01  0.51100000000E-03 0.  1.
</event>
<event>
 8    1  0.2091070E+004  0.1043930E+01  0.7957747E-01            NaN
         13   -1    0    0    0    0  0.00000000000E+00  0.00000000000E+00  0.74505805969E-08  0.10566000000E+00  0.10566000000E+00 0.  1.
     999900   -1    0    0    0    0 -0.00000000000E+00 -0.00000000000E+00 -0.74505805969E-08  0.93827000000E+00  0.93827000000E+00 0.  1.
     999902    2    1    2    0    0 -0.41791783068E-02 -0.30114063687E-02 -0.13066916986E-01  0.10298844164E+01  0.10297886350E+01 0.  0.
     999903    2    3    3    0    0  0.19023072523E-01  0.11171227431E+00  0.65921697193E-01  0.13862740041E+00  0.45059698873E-01 0.  0.
         14    1    1    2    0    0  0.41791783068E-02  0.30114063687E-02  0.13066916986E-01  0.14045583618E-01  0.00000000000E+00 0.  1.
     999901    1    3    3    0    0 -0.23202250830E-01 -0.11472368068E+00 -0.78988614180E-01  0.89125701597E+00  0.88000000000E+00 0.  1.
        -11    1    4    4    0    0  0.87771031658E-02  0.87472625787E-01  0.69496256474E-01  0.11206466253E+00  0.51100000000E-03 0. -1.
         11    1    4    4    0    0  0.10245969357E-01  0.24239648527E-01 -0.35745592807E-02  0.26562737883E-01  0.51100000000E-03 0.  1.
</event>
<event>
 7    1  0.2091070E+004  0.1043930E+01  0.7957747E-01            NaN
         13   -1    0    0    0    0  0.00000000000E+00  0.00000000000E+00  0.74505805969E-08  0.10566000000E+00  0.10566000000E+00 0. -1.
     999900   -1    0    0    0    0 -0.00000000000E+00 -0.00000000000E+00 -0.74505805969E-08  0.93827000000E+00  0.93827000000E+00 0.  1.
     999903    2    1    2    0    0 -0.75959950289E-01 -0.73398156128E-01  0.47788953753E-01  0.12403919171E+00  0.44099133870E-01 0.  0.
         14    1    1    2    0    0  0.14888217681E-01 -0.26795657519E-01 -0.51099032736E-02  0.31076959295E-01  0.00000000000E+00 0. -1.
     999901    1    1    2    0    0  0.61071732608E-01  0.10019381365E+00 -0.42679050479E-01  0.88881384900E+00  0.88000000000E+00 0.  1.
        -11    1    3    3    0    0 -0.77797763830E-02 -0.16250872858E-01  0.27353741675E-01  0.32758267565E-01  0.51100000000E-03 0. -1.
         11    1    3    3    0    0 -0.68180173906E-01 -0.57147283269E-01  0.20435212078E-01  0.91280924144E-01  0.51100000000E-03 0.  1.
</event>
<event>
 8    1  0.2091070E+004  0.1043930E+01  0.7957747E-01            NaN
         13   -1    0    0    0    0  0.00000000000E+00  0.00000000000E+00  0.74505805969E-08  0.10566000000E+00  0.10566000000E+00 0.  1.
     999900   -1    0    0    0    0 -0.00000000000E+00 -0.00000000000E+00 -0.74505805969E-08  0.93827000000E+00  0.93827000000E+00 0.  1.
     999902    2    1    2    0    0 -0.94179195977E-02  0.17908251843E-02 -0.10022184597E-01  0.10300610257E+01  0.10299676540E+01 0.  0.
     999903    2    3    3    0    0 -0.13135787255E+00 -0.13609100255E-01 -0.24504662363E-01  0.14140121902E+00  0.44200995135E-01 0.  0.
         14    1    1    2    0    0  0.94179195977E-02 -0.17908251843E-02  0.10022184597E-01  0.13868974313E-01  0.00000000000E+00 0.  1.
     999901    1    3    3    0    0  0.12193995295E+00  0.15399925440E-01  0.14482477766E-01  0.88865980667E+00  0.88000000000E+00 0.  1.
        -11    1    4    4    0    0 -0.87780473517E-01  0.23995509912E-02  0.21980489452E-02  0.87842255868E-01  0.51100000000E-03 0. -1.
         11    1    4    4    0    0 -0.43577399034E-01 -0.16008651247E-01 -0.26702711309E-01  0.53558963148E-01  0.51100000000E-03 0.  1.
</event>
<event>
 8    1  0.2091070E+004  0.1043930E+01  0.7957747E-01            NaN
         13   -1    0    0    0    0  0.00000000000E+00  0.00000000000E+00  0.74505805969E-08  0.10566000000E+00  0.10566000000E+00 0.  1.
     999900   -1    0    0    0    0 -0.00000000000E+00 -0.00000000000E+00 -0.74505805969E-08  0.93827000000E+00  0.93827000000E+00 0. -1.
     999902    2    1    2    0    0 -0.12826981209E-01 -0.14613001593E-02  0.51114590049E-02  0.10300449772E+01  0.10299513878E+01 0.  0.
     999903    2    3    3    0    0  0.12111690946E+00 -0.37712961073E-01  0.33337361931E-01  0.13872469225E+00  0.45183927999E-01 0.  0.
         14    1    1    2    0    0  0.12826981209E-01  0.14613001593E-02 -0.51114590049E-02  0.13885022804E-01  0.00000000000E+00 0. -1.
     999901    1    3    3    0    0 -0.13394389067E+00  0.36251660913E-01 -0.28225902926E-01  0.89132028495E+00  0.88000000000E+00 0. -1.
        -11    1    4    4    0    0  0.11363020235E+00 -0.19964775070E-01  0.29359943867E-01  0.11904907624E+00  0.51100000000E-03 0.  1.
         11    1    4    4    0    0  0.74867071074E-02 -0.17748186002E-01  0.39774180632E-02  0.19675616004E-01  0.51100000000E-03 0. -1.
</event>
<event>
 8    1  0.2091070E+004  0.1043930E+01  0.7957747E-01            NaN
         13   -1    0    0    0    0  0.00000000000E+00  0.00000000000E+00  0.74505805969E-08  0.10566000000E+00  0.10566000000E+00 0. -1.
     999900   -1    0    0    0    0 -0.00000000000E+00 -0.00000000000E+00 -0.74505805969E-08  0.93827000000E+00  0.93827000000E+00 0.  1.
     999902    2    1    2    0    0 -0.13875546280E-01  0.39889297032E-02  0.22830640559E-02  0.10293130671E+01  0.10292092768E+01 0.  0.
     999903    2    3    3    0    0 -0.10929645268E+00 -0.46359368369E-01  0.60951177541E-01  0.14078504393E+00  0.44838342351E-01 0.  0.
         14    1    1    2    0    0  0.13875546280E-01 -0.39889297032E-02 -0.22830640559E-02  0.14616932859E-01  0.00000000000E+00 0.  1.
     999901    1    3    3    0    0  0.95420906404E-01  0.50348298073E-01 -0.58668113485E-01  0.88852802321E+00  0.88000000000E+00 0.  1.
        -11    1    4    4    0    0 -0.38622777574E-01 -0.23759469209E-01  0.94744797345E-03  0.45358462312E-01  0.51100000000E-03 0.  1.
         11    1    4    4    0    0 -0.70673675109E-01 -0.22599899160E-01  0.60003729567E-01  0.95426581614E-01  0.51100000000E-03 0. -1.
</event>
<event>
 8    1  0.2091070E+004  0.1043930E+01  0.7957747E-01            NaN
         13   -1    0    0    0    0  0.00000000000E+00  0.00000000000E+00  0.74505805969E-08  0.10566000000E+00  0.10566000000E+00 0. -1.
     999900   -1    0    0    0    0 -0.00000000000E+00 -0.00000000000E+00 -0.74505805969E-08  0.93827000000E+00  0.93827000000E+00 0. -1.
     999902    2    1    2    0    0  0.11407801656E-01  0.90316822460E-02  0.33974271490E-03  0.10293758031E+01  0.10292729081E+01 0.  0.
     999903    2    3    3    0    0  0.91616506263E-01 -0.69312924646E-01  0.65942806354E-01  0.13983936443E+00  0.44818839708E-01 0.  0.
         14    1    1    2    0    0 -0.11407801656E-01 -0.90316822460E-02 -0.33974271490E-03  0.14554196918E-01  0.00000000000E+00 0.  1.
     999901    1    3    3    0    0 -0.80208704607E-01  0.78344606892E-01 -0.65603063639E-01  0.88953643865E+00  0.88000000000E+00 0. -1.
        -11    1    4    4    0    0  0.50975673822E-01 -0.14234045760E-01  0.41126439460E-01  0.67028147252E-01  0.51100000000E-03 0.  1.
         11    1    4    4    0    0  0.40640832440E-01 -0.55078878886E-01  0.24816366894E-01  0.72811217182E-01  0.51100000000E-03 0. -1.
</event>
<event>
 8    1  0.2091070E+004  0.1043930E+01  0.7957747E-01            NaN
         13   -1    0    0    0    0  0.00000000000E+00  0.00000000000E+00  0.74505805969E-08  0.10566000000E+00  0.10566000000E+00 0. -1.
     999900   -1    0    0    0    0 -0.00000000000E+00 -0.00000000000E+00 -0.74505805969E-08  0.93827000000E+00  0.93827000000E+00 0. -1.
     999902    2    1    2    0    0 -0.83823296057E-04 -0.13205323633E-01 -0.37746278418E-02  0.10301955392E+01  0.10301039819E+01 0.  0.
     999903    2    3    3    0    0 -0.91196825193E-01  0.94934761629E-01  0.40715681182E-03  0.13889685497E+00  0.44302377512E-01 0.  0.
         14    1    1    2    0    0  0.83823296057E-04  0.13205323633E-01  0.37746278418E-02  0.13734460817E-01  0.00000000000E+00 0.  1.
     999901    1    3    3    0    0  0.91113001897E-01 -0.10814008526E+00 -0.41817846536E-02  0.89129868421E+00  0.88000000000E+00 0.  1.
        -11    1    4    4    0    0 -0.18921292731E-01  0.36243135569E-02  0.10604359529E-01  0.21996920907E-01  0.51100000000E-03 0.  1.
         11    1    4    4    0    0 -0.72275532462E-01  0.91310448072E-01 -0.10197202717E-01  0.11689993406E+00  0.51100000000E-03 0. -1.
</event>
<event>
 8    1  0.2091070E+004  0.1043930E+01  0.7957747E-01            NaN
         13   -1    0    0    0    0  0.00000000000E+00  0.00000000000E+00  0.74505805969E-08  0.10566000000E+00  0.10566000000E+00 0.  1.
     999900   -1    0    0    0    0 -0.00000000000E+00 -0.00000000000E+00 -0.74505805969E-08  0.93827000000E+00  0.93827000000E+00 0.  1.
     999902    2    1    2    0    0 -0.13447983321E-01 -0.82992160159E-02  0.18122133803E-01  0.10198855209E+01  0.10196020492E+01 0.  0.
     999903    2    3    3    0    0 -0.36353289830E-01  0.72827995226E-01 -0.89621102646E-01  0.12931554472E+00  0.45443255775E-01 0.  0.
         14    1    1    2    0    0  0.13447983321E-01  0.82992160159E-02 -0.18122133803E-01  0.24044479106E-01  0.00000000000E+00 0. -1.
     999901    1    3    3    0    0  0.22905306509E-01 -0.81127211242E-01  0.10774323645E+00  0.89056997618E+00  0.88000000000E+00 0. -1.
        -11    1    4    4    0    0 -0.71330954730E-02  0.49605838759E-01 -0.72773266006E-01  0.88361924244E-01  0.51100000000E-03 0. -1.
         11    1    4    4    0    0 -0.29220194357E-01  0.23222156467E-01 -0.16847836640E-01  0.40953620471E-01  0.51100000000E-03 0.  1.
</event>
<event>
 8    1  0.2091070E+004  0.1043930E+01  0.7957747E-01            NaN
         13   -1    0    0    0    0  0.00000000000E+00  0.00000000000E+00  0.74505805969E-08  0.10566000000E+00  0.10566000000E+00 0.  1.
     999900   -1    0    0    0    0 -0.00000000000E+00 -0.00000000000E+00 -0.74505805969E-08  0.93827000000E+00  0.93827000000E+00 0.  1.
     999902    2    1    2    0    0  0.10075562139E-01 -0.52023232066E-02  0.79965749866E-02  0.10300546142E+01  0.10299611555E+01 0.  0.
     999903    2    3    3    0    0 -0.11119989567E+00  0.66763107938E-01 -0.18316924733E-01  0.13843857566E+00  0.44799554910E-01 0.  0.
         14    1    1    2    0    0 -0.10075562139E-01  0.52023232066E-02 -0.79965749866E-02  0.13875385785E-01  0.00000000000E+00 0. -1.
     999901    1    3    3    0    0  0.12127545781E+00 -0.71965431145E-01  0.26313499719E-01  0.89161603856E+00  0.88000000000E+00 0.  1.
        -11    1    4    4    0    0 -0.89492817797E-01  0.69105246154E-01 -0.24597654497E-01  0.11571432587E+00  0.51100000000E-03 0. -1.
         11    1    4    4    0    0 -0.21707077871E-01 -0.23421382156E-02  0.62807297644E-02  0.22724249790E-01  0.51100000000E-03 0.  1.
</event>
<event>
 8    1  0.2091070E+004  0.1043930E+01  0.7957747E-01            NaN
         13   -1    0    0    0    0  0.00000000000E+00  0.00000000000E+00  0.74505805969E-08  0.10566000000E+00  0.10566000000E+00 0. -1.
     999900   -1    0    0    0    0 -0.00000000000E+00 -0.00000000000E+00 -0.74505805969E-08  0.93827000000E+00  0.93827000000E+00 0.  1.
     999902    2    1    2    0    0  0.32620829377E-02 -0.17545643411E-01  0.69682511840E-02  0.10247715211E+01  0.10245924181E+01 0.  0.
     999903    2    3    3    0    0  0.45263698058E-01 -0.11678462145E+00 -0.36760404181E-01  0.13712029135E+00  0.41990437212E-01 0.  0.
         14    1    1    2    0    0 -0.32620829377E-02  0.17545643411E-01 -0.69682511840E-02  0.19158478863E-01  0.00000000000E+00 0.  1.
     999901    1    3    3    0    0 -0.42001615121E-01  0.99238978035E-01  0.43728655365E-01  0.88765122978E+00  0.88000000000E+00 0.  1.
        -11    1    4    4    0    0  0.10668771783E-02 -0.58862454804E-01 -0.11365275511E-01  0.59961299359E-01  0.51100000000E-03 0.  1.
         11    1    4    4    0    0  0.44196820880E-01 -0.57922166643E-01 -0.25395128670E-01  0.77158991995E-01  0.51100000000E-03 0. -1.
</event>
<event>
 8    1  0.2091070E+004  0.1043930E+01  0.7957747E-01            NaN
         13   -1    0    0    0    0  0.00000000000E+00  0.00000000000E+00  0.74505805969E-08  0.10566000000E+00  0.10566000000E+00 0.  1.
     999900   -1    0    0    0    0 -0.00000000000E+00 -0.00000000000E+00 -0.74505805969E-08  0.93827000000E+00  0.93827000000E+00 0.  1.
     999902    2    1    2    0    0 -0.11987356613E-01 -0.18853453825E-03 -0.90698471187E-02  0.10288968902E+01  0.10287870607E+01 0.  0.
     999903    2    3    3    0    0  0.11383557409E+00  0.52137191408E-01  0.34541112697E-01  0.13734133538E+00  0.44639996445E-01 0.  0.
         14    1    1    2    0    0  0.11987356613E-01  0.18853453825E-03  0.90698471187E-02  0.15033109811E-01  0.00000000000E+00 0.  1.
     999901    1    3    3    0    0 -0.12582293070E+00 -0.52325725947E-01 -0.43610959816E-01  0.89155555480E+00  0.88000000000E+00 0.  1.
        -11    1    4    4    0    0  0.55146024471E-01  0.32327310111E-01  0.39589333031E-01  0.75191192335E-01  0.51100000000E-03 0.  1.
         11    1    4    4    0    0  0.58689549619E-01  0.19809881298E-01 -0.50482203345E-02  0.62150143049E-01  0.51100000000E-03 0. -1.
</event>
<event>
 8    1  0.2091070E+004  0.1043930E+01  0.7957747E-01            NaN
         13   -1    0    0    0    0  0.00000000000E+00  0.00000000000E+00  0.74505805969E-08  0.10566000000E+00  0.10566000000E+00 0. -1.
     999900   -1    0    0    0    0 -0.00000000000E+00 -0.00000000000E+00 -0.74505805969E-08  0.93827000000E+00  0.93827000000E+00 0. -1.
     999902    2    1    2    0    0 -0.84409993233E-02 -0.10476672665E-01  0.39486600136E-02  0.10299084788E+01  0.10298130276E+01 0.  0.
     999903    2    3    3    0    0 -0.86446732653E-01 -0.55501308286E-01 -0.85270788259E-01  0.14082343106E+00  0.44796189528E-01 0.  0.
         14    1    1    2    0    0  0.84409993233E-02  0.10476672665E-01 -0.39486600136E-02  0.14021521159E-01  0.00000000000E+00 0. -1.
     999901    1    3    3    0    0  0.78005733329E-01  0.45024635620E-01  0.89219448273E-01  0.88908504779E+00  0.88000000000E+00 0.  1.
        -11    1    4    4    0    0 -0.17962124648E-01 -0.27530222971E-01 -0.79716548435E-02  0.33828383063E-01  0.51100000000E-03 0.  1.
         11    1    4    4    0    0 -0.68484608005E-01 -0.27971085315E-01 -0.77299133416E-01  0.10699504799E+00  0.51100000000E-03 0. -1.
</event>
<event>
 8    1  0.2091070E+004  0.1043930E+01  0.7957747E-01            NaN
         13   -1    0    0    0    0  0.00000000000E+00  0.00000000000E+00  0.74505805969E-08  0.10566000000E+00  0.10566000000E+00 0. -1.
     999900   -1    0    0    0    0 -0.00000000000E+00 -0.00000000000E+00 -0.74505805969E-08  0.93827000000E+00  0.93827000000E+00 0. -1.
     999902    2    1    2    0    0 -0.93170200385E-02  0.73420638062E-03  0.10246360148E-01  0.10300615532E+01  0.10299681886E+01 0.  0.
     999903    2    3    3    0    0  0.48400529265E-01  0.66698773680E-01 -0.10207822591E+00  0.13860238289E+00  0.44713741670E-01 0.  0.
         14    1    1    2    0    0  0.93170200385E-02 -0.73420638062E-03 -0.10246360148E-01  0.13868446838E-01  0.00000000000E+00 0.  1.
     999901    1    3    3    0    0 -0.57717549303E-01 -0.65964567300E-01  0.11232458605E+00  0.89145917028E+00  0.88000000000E+00 0.  1.
        -11    1    4    4    0    0  0.25555963590E-02  0.24822438825E-01 -0.86371179361E-02  0.26411086104E-01  0.51100000000E-03 0.  1.
         11    1    4    4    0    0  0.45844932906E-01  0.41876334855E-01 -0.93441107970E-01  0.11219129678E+00  0.51100000000E-03 0. -1.
</event>
<event>
 8    1  0.2091070E+004  0.1043930E+01  0.7957747E-01            NaN
         13   -1    0    0    0    0  0.00000000000E+00  0.00000000000E+00  0.74505805969E-08  0.10566000000E+00  0.10566000000E+00 0.  1.
     999900   -1    0    0    0    0 -0.00000000000E+00 -0.00000000000E+00 -0.74505805969E-08  0.93827000000E+00  0.93827000000E+00 0. -1.
     999902    2    1    2    0    0 -0.10397161197E-01 -0.97916685618E-02 -0.90980526636E-03  0.10296189735E+01  0.10295195118E+01 0.  0.
     999903    2    3    3    0    0  0.71600641562E-01 -0.96437655444E-01  0.56971266979E-01  0.13968561350E+00  0.42889067345E-01 0.  0.
         14    1    1    2    0    0  0.10397161197E-01  0.97916685618E-02  0.90980526636E-03  0.14311026511E-01  0.00000000000E+00 0. -1.
     999901    1    3    3    0    0 -0.81997802759E-01  0.86645986882E-01 -0.57881072245E-01  0.88993335999E+00  0.88000000000E+00 0. -1.
        -11    1    4    4    0    0  0.46027004616E-01 -0.51621551379E-01  0.99533808249E-02  0.69875608273E-01  0.51100000000E-03 0.  1.
         11    1    4    4    0    0  0.25573636946E-01 -0.44816104065E-01  0.47017886154E-01  0.69810005225E-01  0.51100000000E-03 0. -1.
</event>
<event>
 8    1  0.2091070E+004  0.1043930E+01  0.7957747E-01            NaN
         13   -1    0    0    0    0  0.00000000000E+00  0.00000000000E+00  0.74505805969E-08  0.10566000000E+00  0.10566000000E+00 0. -1.
     999900   -1    0    0    0    0 -0.00000000000E+00 -0.00000000000E+00 -0.74505805969E-08  0.93827000000E+00  0.93827000000E+00 0.  1.
     999902    2    1    2    0    0 -0.97923398839E-02  0.92386854647E-02 -0.17900554804E-02  0.10303488539E+01  0.10302593427E+01 0.  0.
     999903    2    3    3    0    0  0.13006065628E+00  0.20153865360E-01 -0.12619165194E-01  0.13917251264E+00  0.43448732370E-01 0.  0.
         14    1    1    2    0    0  0.97923398839E-02 -0.92386854647E-02  0.17900554804E-02  0.13581146054E-01  0.00000000000E+00 0. -1.
     999901    1    3    3    0    0 -0.13985299616E+00 -0.10915179896E-01  0.10829109713E-01  0.89117634131E+00  0.88000000000E+00 0. -1.
        -11    1    4    4    0    0  0.59659384588E-01  0.31043072800E-01 -0.34289629963E-02  0.67341914485E-01  0.51100000000E-03 0.  1.
         11    1    4    4    0    0  0.70401271687E-01 -0.10889207439E-01 -0.91902021975E-02  0.71830598155E-01  0.51100000000E-03 0. -1.
</event>
<event>
 8    1  0.2091070E+004  0.1043930E+01  0.7957747E-01            NaN
         13   -1    0    0    0    0  0.00000000000E+00  0.00000000000E+00  0.74505805969E-08  0.10566000000E+00  0.10566000000E+00 0. -1.
     999900   -1    0    0    0    0 -0.00000000000E+00 -0.00000000000E+00 -0.74505805969E-08  0.93827000000E+00  0.93827000000E+00 0. -1.
     999902    2    1    2    0    0 -0.13129458494E-01  0.17178196659E-02 -0.30435762757E-02  0.10303433543E+01  0.10302537701E+01 0.  0.
     999903    2    3    3    0    0  0.85035951335E-01  0.68545455343E-01  0.70405740161E-01  0.13933427317E+00  0.50274038673E-01 0.  0.
         14    1    1    2    0    0  0.13129458494E-01 -0.17178196659E-02  0.30435762757E-02  0.13586645697E-01  0.00000000000E+00 0. -1.
     999901    1    3    3    0    0 -0.98165409829E-01 -0.66827635677E-01 -0.73449316436E-01  0.89100908113E+00  0.88000000000E+00 0. -1.
        -11    1    4    4    0    0  0.36284345367E-01  0.41424135355E-01  0.80371696046E-02  0.55654019844E-01  0.51100000000E-03 0. -1.
         11    1    4    4    0    0  0.48751605968E-01  0.27121319989E-01  0.62368570556E-01  0.83680253325E-01  0.51100000000E-03 0.  1.
</event>
<event>
 8    1  0.2091070E+004  0.1043930E+01  0.7957747E-01            NaN
         13   -1    0    0    0    0  0.00000000000E+00  0.00000000000E+00  0.74505805969E-08  0.10566000000E+00  0.10566000000E+00 0.  1.
     999900   -1    0    0    0    0 -0.00000000000E+00 -0.00000000000E+00 -0.74505805969E-08  0.93827000000E+00  0.93827000000E+00 0.  1.
     999902    2    1    2    0    0 -0.88601355632E-02  0.10085227088E-01  0.47784506634E-02  0.10296805299E+01  0.10295819279E+01 0.  0.
     999903    2    3    3    0    0  0.49802103735E-01  0.10838719976E+00  0.59293781615E-01  0.14059310030E+00  0.44973689027E-01 0.  0.
         14    1    1    2    0    0  0.88601355632E-02 -0.10085227088E-01 -0.47784506634E-02  0.14249470108E-01  0.00000000000E+00 0. -1.
     999901    1    3    3    0    0 -0.58662239298E-01 -0.98301972675E-01 -0.54515330951E-01  0.88908742959E+00  0.88000000000E+00 0.  1.
        -11    1    4    4    0    0  0.20670947669E-01  0.66613764520E-01  0.11388077157E-01  0.70672704231E-01  0.51100000000E-03 0. -1.
         11    1    4    4    0    0  0.29131156066E-01  0.41773435243E-01  0.47905704457E-01  0.69920396068E-01  0.51100000000E-03 0.  1.
</event>
<event>
 8    1  0.2091070E+004  0.1043930E+01  0.7957747E-01            NaN
         13   -1    0    0    0    0  0.00000000000E+00  0.00000000000E+00  0.74505805969E-08  0.10566000000E+00  0.10566000000E+00 0.  1.
     999900   -1    0    0    0    0 -0.00000000000E+00 -0.00000000000E+00 -0.74505805969E-08  0.93827000000E+00  0.93827000000E+00 0. -1.
     999902    2    1    2    0    0  0.38023349367E-02 -0.68261097314E-02  0.11514115115E-01  0.10300149588E+01  0.10299209615E+01 0.  0.
     999903    2    3    3    0    0  0.96033353682E-01 -0.53330686731E-01 -0.73575347440E-01  0.13989729626E+00  0.45731330445E-01 0.  0.
         14    1    1    2    0    0 -0.38023349367E-02  0.68261097314E-02 -0.11514115115E-01  0.13915041212E-01  0.00000000000E+00 0. -1.
     999901    1    3    3    0    0 -0.92231018745E-01  0.46504576999E-01  0.85089462556E-01  0.89011766252E+00  0.88000000000E+00 0.  1.
        -11    1    4    4    0    0  0.48525574496E-01 -0.38743154012E-02 -0.42424354557E-01  0.64574210646E-01  0.51100000000E-03 0.  1.
         11    1    4    4    0    0  0.47507779186E-01 -0.49456371330E-01 -0.31150992883E-01  0.75323085617E-01  0.51100000000E-03 0. -1.
</event>
<event>
 8    1  0.2091070E+004  0.1043930E+01  0.7957747E-01            NaN
         13   -1    0    0    0    0  0.00000000000E+00  0.00000000000E+00  0.74505805969E-08  0.10566000000E+00  0.10566000000E+00 0.  1.
     999900   -1    0    0    0    0 -0.00000000000E+00 -0.00000000000E+00 -0.74505805969E-08  0.93827000000E+00  0.93827000000E+00 0. -1.
     999902    2    1    2    0    0 -0.12958802818E-01 -0.11357723533E-02 -0.39264836512E-02  0.10303418499E+01  0.10302522457E+01 0.  0.
     999903    2    3    3    0    0  0.59165772597E-01  0.38536897963E-01  0.11117047280E+00  0.13903764564E+00  0.44574788069E-01 0.  0.
         14    1    1    2    0    0  0.12958802818E-01  0.11357723533E-02  0.39264836512E-02  0.13588150102E-01  0.00000000000E+00 0.  1.
     999901    1    3    3    0    0 -0.72124575415E-01 -0.39672670316E-01 -0.11509695645E+00  0.89130420426E+00  0.88000000000E+00 0. -1.
        -11    1    4    4    0    0  0.21028488905E-01 -0.68843947801E-02  0.45182318256E-01  0.50311979101E-01  0.51100000000E-03 0.  1.
         11    1    4    4    0    0  0.38137283692E-01  0.45421292743E-01  0.65988154540E-01  0.88725666537E-01  0.51100000000E-03 0. -1.
</event>
<event>
 8    1  0.2091070E+004  0.1043930E+01  0.7957747E-01            NaN
         13   -1    0    0    0    0  0.00000000000E+00  0.00000000000E+00  0.74505805969E-08  0.10566000000E+00  0.10566000000E+00 0.  1.
     999900   -1    0    0    0    0 -0.00000000000E+00 -0.00000000000E+00 -0.74505805969E-08  0.93827000000E+00  0.93827000000E+00 0. -1.
     999902    2    1    2    0    0 -0.19097364436E-03  0.12728485079E-01 -0.24040211180E-02  0.10309750735E+01  0.10308936764E+01 0.  0.
     999903    2    3    3    0    0  0.97446506540E-01  0.63212451566E-01  0.67442440608E-01  0.14139076797E+00  0.44172738228E-01 0.  0.
         14    1    1    2    0    0  0.19097364436E-03 -0.12728485079E-01  0.24040211180E-02  0.12954926510E-01  0.00000000000E+00 0. -1.
     999901    1    3    3    0    0 -0.97637480185E-01 -0.50483966487E-01 -0.69846461726E-01  0.88958430552E+00  0.88000000000E+00 0. -1.
        -11    1    4    4    0    0  0.69133174643E-01  0.52240866633E-01  0.26894212971E-01  0.90730721341E-01  0.51100000000E-03 0.  1.
         11    1    4    4    0    0  0.28313331897E-01  0.10971584933E-01  0.40548227638E-01  0.50660046631E-01  0.51100000000E-03 0. -1.
</event>
<event>
 8    1  0.2091070E+004  0.1043930E+01  0.7957747E-01            NaN
         13   -1    0    0    0    0  0.00000000000E+00  0.00000000000E+00  0.74505805969E-08  0.10566000000E+00  0.10566000000E+00 0. -1.
     999900   -1    0    0    0    0 -0.00000000000E+00 -0.00000000000E+00 -0.74505805969E-08  0.93827000000E+00  0.93827000000E+00 0.  1.
     999902    2    1    2    0    0 -0.12203467745E-01 -0.24860574465E-02 -0.71659361978E-02  0.10295614319E+01  0.10294611631E+01 0.  0.
     999903    2    3    3    0    0  0.94746424444E-01 -0.88777038504E-01 -0.18912543153E-01  0.13881882286E+00  0.45329171409E-01 0.  0.
         14    1    1    2    0    0  0.12203467745E-01  0.24860574465E-02  0.71659361978E-02  0.14368568065E-01  0.00000000000E+00 0. -1.
     999901    1    3    3    0    0 -0.10694989219E+00  0.86290981058E-01  0.11746606955E-01  0.89074260908E+00  0.88000000000E+00 0. -1.
        -11    1    4    4    0    0  0.36193594296E-01 -0.47494451683E-01 -0.29142930730E-01  0.66447503649E-01  0.51100000000E-03 0.  1.
         11    1    4    4    0    0  0.58552830148E-01 -0.41282586821E-01  0.10230387576E-01  0.72371319209E-01  0.51100000000E-03 0. -1.
</event>
<event>
 8    1  0.2091070E+004  0.1043930E+01  0.7957747E-01            NaN
         13   -1    0    0    0    0  0.00000000000E+00  0.00000000000E+00  0.74505805969E-08  0.10566000000E+00  0.10566000000E+00 0.  1.
     999900   -1    0    0    0    0 -0.00000000000E+00 -0.00000000000E+00 -0.74505805969E-08  0.93827000000E+00  0.93827000000E+00 0. -1.
     999902    2    1    2    0    0  0.96509821988E-02  0.82680043525E-02 -0.87943630630E-02  0.10284754804E+01  0.10283593592E+01 0.  0.
     999903    2    3    3    0    0  0.17850938489E-01 -0.11653630952E+00 -0.57270670554E-01  0.13831071567E+00  0.44165109767E-01 0.  0.
         14    1    1    2    0    0 -0.96509821988E-02 -0.82680043525E-02  0.87943630630E-02  0.15454519567E-01  0.00000000000E+00 0.  1.
     999901    1    3    3    0    0 -0.81999562898E-02  0.12480431387E+00  0.48476307491E-01  0.89016476477E+00  0.88000000000E+00 0.  1.
        -11    1    4    4    0    0  0.14970373359E-02 -0.59014999255E-01 -0.56426519775E-02  0.59305243446E-01  0.51100000000E-03 0. -1.
         11    1    4    4    0    0  0.16353901153E-01 -0.57521310265E-01 -0.51628018576E-01  0.79005472220E-01  0.51100000000E-03 0.  1.
</event>
<event>
 8    1  0.2091070E+004  0.1043930E+01  0.7957747E-01            NaN
         13   -1    0    0    0    0  0.00000000000E+00  0.00000000000E+00  0.74505805969E-08  0.10566000000E+00  0.10566000000E+00 0.  1.
     999900   -1    0    0    0    0 -0.00000000000E+00 -0.00000000000E+00 -0.74505805969E-08  0.93827000000E+00  0.93827000000E+00 0. -1.
     999902    2    1    2    0    0  0.12493745942E-01  0.46417891336E-02 -0.33221026090E-02  0.10301940523E+01  0.10301024750E+01 0.  0.
     999903    2    3    3    0    0  0.28484026775E-01  0.77462379365E-01 -0.10546913334E+00  0.14115381510E+00  0.44597101135E-01 0.  0.
         14    1    1    2    0    0 -0.12493745942E-01 -0.46417891336E-02  0.33221026090E-02  0.13735947720E-01  0.00000000000E+00 0.  1.
     999901    1    3    3    0    0 -0.15990280834E-01 -0.72820590232E-01  0.10214703074E+00  0.88904023718E+00  0.88000000000E+00 0.  1.
        -11    1    4    4    0    0  0.13018600213E-01  0.18110785739E-01 -0.62232586487E-01  0.66110819488E-01  0.51100000000E-03 0.  1.
         11    1    4    4    0    0  0.15465426562E-01  0.59351593626E-01 -0.43236546858E-01  0.75042995608E-01  0.51100000000E-03 0. -1.
</event>
<event>
 8    1  0.2091070E+004  0.1043930E+01  0.7957747E-01            NaN
         13   -1    0    0    0    0  0.00000000000E+00  0.00000000000E+00  0.74505805969E-08  0.10566000000E+00  0.10566000000E+00 0. -1.
     999900   -1    0    0    0    0 -0.00000000000E+00 -0.00000000000E+00 -0.74505805969E-08  0.93827000000E+00  0.93827000000E+00 0. -1.
     999902    2    1    2    0    0 -0.82821023185E-02 -0.18499944540E-02  0.11873663765E-01  0.10293354945E+01  0.10292320247E+01 0.  0.
     999903    2    3    3    0    0 -0.28224703759E-01  0.46575029578E-01  0.12200774655E+00  0.14092556298E+00  0.44813578320E-01 0.  0.
         14    1    1    2    0    0  0.82821023185E-02  0.18499944540E-02 -0.11873663765E-01  0.14594505455E-01  0.00000000000E+00 0.  1.
     999901    1    3    3    0    0  0.19942601441E-01 -0.48425024032E-01 -0.11013408278E+00  0.88840993156E+00  0.88000000000E+00 0.  1.
        -11    1    4    4    0    0 -0.96373638067E-02  0.47175793771E-01  0.64556499351E-01  0.80537177928E-01  0.51100000000E-03 0.  1.
         11    1    4    4    0    0 -0.18587339952E-01 -0.60076419262E-03  0.57451247198E-01  0.60388385056E-01  0.51100000000E-03 0. -1.
</event>
<event>
 8    1  0.2091070E+004  0.1043930E+01  0.7957747E-01            NaN
         13   -1    0    0    0    0  0.00000000000E+00  0.00000000000E+00  0.74505805969E-08  0.10566000000E+00  0.10566000000E+00 0.  1.
     999900   -1    0    0    0    0 -0.00000000000E+00 -0.00000000000E+00 -0.74505805969E-08  0.93827000000E+00  0.93827000000E+00 0.  1.
     999902    2    1    2    0    0  0.99157142253E-02 -0.88412988873E-02  0.16837529072E-02  0.10305387723E+01  0.10304517632E+01 0.  0.
     999903    2    3    3    0    0 -0.34756847986E-01 -0.58039375096E-01 -0.11437734975E+00  0.14043413350E+00  0.45419821363E-01 0.  0.
         14    1    1    2    0    0 -0.99157142253E-02  0.88412988873E-02 -0.16837529072E-02  0.13391227668E-01  0.00000000000E+00 0.  1.
     999901    1    3    3    0    0  0.44672562212E-01  0.49198076208E-01  0.11606110266E+00  0.89010463883E+00  0.88000000000E+00 0. -1.
        -11    1    4    4    0    0 -0.10837483920E-02 -0.91148343633E-02  0.23286683258E-02  0.94835928434E-02  0.51100000000E-03 0. -1.
         11    1    4    4    0    0 -0.33673099594E-01 -0.48924540732E-01 -0.11670601808E+00  0.13095054066E+00  0.51100000000E-03 0.  1.
</event>
<event>
 8    1  0.2091070E+004  0.1043930E+01  0.7957747E-01            NaN
         13   -1    0    0    0    0  0.00000000000E+00  0.00000000000E+00  0.74505805969E-08  0.10566000000E+00  0.10566000000E+00 0.  1.
     999900   -1    0    0    0    0 -0.00000000000E+00 -0.00000000000E+00 -0.74505805969E-08  0.93827000000E+00  0.93827000000E+00 0.  1.
     999902    2    1    2    0    0 -0.10533965149E-02 -0.66585357282E-02  0.17101880714E-01  0.10255473977E+01  0.10253826334E+01 0.  0.
     999903    2    3    3    0    0 -0.12375773519E+00 -0.34249989633E-01 -0.74116233898E-03  0.13642647387E+00  0.46071625128E-01 0.  0.
         14    1    1    2    0    0  0.10533965149E-02  0.66585357282E-02 -0.17101880714E-01  0.18382602270E-01  0.00000000000E+00 0. -1.
     999901    1    3    3    0    0  0.12270433868E+00  0.27591453905E-01  0.17843043053E-01  0.88912092386E+00  0.88000000000E+00 0. -1.
        -11    1    4    4    0    0 -0.49504385102E-01 -0.12891214826E-01 -0.22894877507E-01  0.56047338037E-01  0.51100000000E-03 0. -1.
         11    1    4    4    0    0 -0.74253350088E-01 -0.21358774807E-01  0.22153715168E-01  0.80379135834E-01  0.51100000000E-03 0.  1.
</event>
<event>
 8    1  0.2091070E+004  0.1043930E+01  0.7957747E-01            NaN
         13   -1    0    0    0    0  0.00000000000E+00  0.00000000000E+00  0.74505805969E-08  0.10566000000E+00  0.10566000000E+00 0. -1.
     999900   -1    0    0    0    0 -0.00000000000E+00 -0.00000000000E+00 -0.74505805969E-08  0.93827000000E+00  0.93827000000E+00 0.  1.
     999902    2    1    2    0    0  0.45899954034E-02  0.14486151861E-01  0.24690141812E-02  0.10285347837E+01  0.10284195587E+01 0.  0.
     999903    2    3    3    0    0  0.73348014990E-02 -0.15859643368E-01  0.13017941752E+00  0.13879417636E+00  0.44853261242E-01 0.  0.
         14    1    1    2    0    0 -0.45899954034E-02 -0.14486151861E-01 -0.24690141812E-02  0.15395216289E-01  0.00000000000E+00 0.  1.
     999901    1    3    3    0    0 -0.27448060956E-02  0.30345795230E-01 -0.12771040334E+00  0.88974060735E+00  0.88000000000E+00 0.  1.
        -11    1    4    4    0    0 -0.12742337048E-01  0.44741025706E-02  0.15304860452E-01  0.20417752612E-01  0.51100000000E-03 0. -1.
         11    1    4    4    0    0  0.20077138547E-01 -0.20333745939E-01  0.11487455707E+00  0.11837642375E+00  0.51100000000E-03 0.  1.
</event>
<event>
 8    1  0.2091070E+004  0.1043930E+01  0.7957747E-01            NaN
         13   -1    0    0    0    0  0.00000000000E+00  0.00000000000E+00  0.74505805969E-08  0.10566000000E+00  0.10566000000E+00 0. -1.
     999900   -1    0    0    0    0 -0.00000000000E+00 -0.00000000000E+00 -0.74505805969E-08  0.93827000000E+00  0.93827000000E+00 0. -1.
     999902    2    1    2    0    0 -0.38251186804E-02 -0.22000563417E-02  0.13596831751E-01  0.10296350493E+01  0.10295358125E+01 0.  0.
     999903    2    3    3    0    0 -0.89072489613E-01 -0.62332085869E-01 -0.74294119301E-01  0.13912519846E+00  0.44911104972E-01 0.  0.
         14    1    1    2    0    0  0.38251186804E-02  0.22000563417E-02 -0.13596831751E-01  0.14294950664E-01  0.00000000000E+00 0.  1.
     999901    1    3    3    0    0  0.85247370932E-01  0.60132029527E-01  0.87890951053E-01  0.89050985087E+00  0.88000000000E+00 0. -1.
        -11    1    4    4    0    0 -0.10695034319E-01  0.67795944420E-02 -0.44332691720E-02  0.13426155683E-01  0.51100000000E-03 0.  1.
         11    1    4    4    0    0 -0.78377455294E-01 -0.69111680311E-01 -0.69860850129E-01  0.12569904278E+00  0.51100000000E-03 0. -1.
</event>
<event>
 8    1  0.2091070E+004  0.1043930E+01  0.7957747E-01            NaN
         13   -1    0    0    0    0  0.00000000000E+00  0.00000000000E+00  0.74505805969E-08  0.10566000000E+00  0.10566000000E+00 0. -1.
     999900   -1    0    0    0    0 -0.00000000000E+00 -0.00000000000E+00 -0.74505805969E-08  0.93827000000E+00  0.93827000000E+00 0. -1.
     999902    2    1    2    0    0 -0.98686357117E-02  0.84785334121E-02  0.31695517073E-02  0.10305389001E+01  0.10304518926E+01 0.  0.
     999903    2    3    3    0    0  0.12016038928E+00  0.55221723492E-01  0.48858450957E-02  0.13975530186E+00  0.44941239598E-01 0.  0.
         14    1    1    2    0    0  0.98686357117E-02 -0.84785334121E-02 -0.31695517073E-02  0.13391099942E-01  0.00000000000E+00 0.  1.
     999901    1    3    3    0    0 -0.13002902500E+00 -0.46743190080E-01 -0.17162933884E-02  0.89078359820E+00  0.88000000000E+00 0. -1.
        -11    1    4    4    0    0  0.76233055841E-01  0.14048562317E-01  0.14266020043E-01  0.78820183677E-01  0.51100000000E-03 0.  1.
         11    1    4    4    0    0  0.43927333443E-01  0.41173161175E-01 -0.93801749472E-02  0.60935118180E-01  0.51100000000E-03 0. -1.
</event>
<event>
 7    1  0.2091070E+004  0.1043930E+01  0.7957747E-01            NaN
         13   -1    0    0    0    0  0.00000000000E+00  0.00000000000E+00  0.74505805969E-08  0.10566000000E+00  0.10566000000E+00 0.  1.
     999900   -1    0    0    0    0 -0.00000000000E+00 -0.00000000000E+00 -0.74505805969E-08  0.93827000000E+00  0.93827000000E+00 0. -1.
     999903    2    1    2    0    0  0.85108913245E-01 -0.29208525169E-01 -0.78191277177E-01  0.12790101053E+00  0.46347897592E-01 0.  0.
         14    1    1    2    0    0 -0.13814151862E-01  0.25754516615E-01 -0.31757023568E-02  0.29397465932E-01  0.00000000000E+00 0.  1.
     999901    1    1    2    0    0 -0.71294761383E-01  0.34540085533E-02  0.81366979534E-01  0.88663152354E+00  0.88000000000E+00 0.  1.
        -11    1    3    3    0    0  0.15908770260E-01  0.28086184432E-02 -0.38897970317E-01  0.42122328099E-01  0.51100000000E-03 0. -1.
         11    1    3    3    0    0  0.69200142985E-01 -0.32017143612E-01 -0.39293306861E-01  0.85778682429E-01  0.51100000000E-03 0.  1.
</event>
<event>
 8    1  0.2091070E+004  0.1043930E+01  0.7957747E-01            NaN
         13   -1    0    0    0    0  0.00000000000E+00  0.00000000000E+00  0.74505805969E-08  0.10566000000E+00  0.10566000000E+00 0.  1.
     999900   -1    0    0    0    0 -0.00000000000E+00 -0.00000000000E+00 -0.74505805969E-08  0.93827000000E+00  0.93827000000E+00 0. -1.
     999902    2    1    2    0    0  0.12148092006E-01 -0.14041253146E-02  0.88847190139E-02  0.10288142486E+01  0.10287031993E+01 0.  0.
     999903    2    3    3    0    0 -0.10273152018E-02 -0.11637638170E+00  0.62751845178E-01  0.13960455550E+00  0.44800895632E-01 0.  0.
         14    1    1    2    0    0 -0.12148092006E-01  0.14041253146E-02 -0.88847190139E-02  0.15115751362E-01  0.00000000000E+00 0. -1.
     999901    1    3    3    0    0  0.13175407207E-01  0.11497225638E+00 -0.53867126164E-01  0.88920969314E+00  0.88000000000E+00 0.  1.
        -11    1    4    4    0    0  0.93682120441E-02 -0.87361499123E-02  0.19058646971E-01  0.22969041285E-01  0.51100000000E-03 0.  1.
         11    1    4    4    0    0 -0.10395527246E-01 -0.10764023178E+00  0.43693198207E-01  0.11663551421E+00  0.51100000000E-03 0. -1.
</event>
<event>
 8    1  0.2091070E+004  0.1043930E+01  0.7957747E-01            NaN
         13   -1    0    0    0    0  0.00000000000E+00  0.00000000000E+00  0.74505805969E-08  0.10566000000E+00  0.10566000000E+00 0.  1.
     999900   -1    0    0    0    0 -0.00000000000E+00 -0.00000000000E+00 -0.74505805969E-08  0.93827000000E+00  0.93827000000E+00 0. -1.
     999902    2    1    2    0    0  0.12312976304E-01 -0.18403062248E-02 -0.58955949384E-02  0.10301548720E+01  0.10300627680E+01 0.  0.
     999903    2    3    3    0    0  0.10905984908E+00  0.72337449130E-01 -0.29860791037E-01  0.14142733926E+00  0.44533899674E-01 0.  0.
         14    1    1    2    0    0 -0.12312976304E-01  0.18403062248E-02  0.58955949384E-02  0.13775128026E-01  0.00000000000E+00 0. -1.
     999901    1    3    3    0    0 -0.96746872778E-01 -0.74177755355E-01  0.23965196099E-01  0.88872753272E+00  0.88000000000E+00 0.  1.
        -11    1    4    4    0    0  0.86000781630E-01  0.32807996682E-01 -0.14692267758E-01  0.93212783137E-01  0.51100000000E-03 0.  1.
         11    1    4    4    0    0  0.23059067452E-01  0.39529452448E-01 -0.15168523279E-01  0.48214556122E-01  0.51100000000E-03 0. -1.
</event>
<event>
 7    1  0.2927674E+004  0.1043930E+01  0.7957747E-01            NaN
         13   -1    0    0    0    0  0.00000000000E+00  0.00000000000E+00  0.74505805969E-08  0.10566000000E+00  0.10566000000E+00 0. -1.
     999900   -1    0    0    0    0 -0.00000000000E+00 -0.00000000000E+00 -0.74505805969E-08  0.93827000000E+00  0.93827000000E+00 0.  1.
     999902    2    1    2    0    0 -0.29801005391E-03  0.88695120503E-03 -0.15673314872E-01  0.10282287806E+01  0.10281088935E+01 0.  0.
         14    1    1    2    0    0  0.29801005391E-03 -0.88695120503E-03  0.15673314872E-01  0.15701219428E-01  0.00000000000E+00 0. -1.
     999901    1    3    3    0    0  0.73503553759E-01 -0.50682619434E-01  0.89037655118E-01  0.88898774140E+00  0.88000000000E+00 0. -1.
        -11    1    3    3    0    0 -0.34400017608E-01  0.34835483435E-01 -0.56845877098E-01  0.75023909400E-01  0.51100000000E-03 0. -1.
         11    1    3    3    0    0 -0.39401546205E-01  0.16734087204E-01 -0.47865092892E-01  0.64217129774E-01  0.51100000000E-03 0.  1.
</event>
<event>
 8    1  0.2091070E+004  0.1043930E+01  0.7957747E-01            NaN
         13   -1    0    0    0    0  0.00000000000E+00  0.00000000000E+00  0.74505805969E-08  0.10566000000E+00  0.10566000000E+00 0.  1.
     999900   -1    0    0    0    0 -0.00000000000E+00 -0.00000000000E+00 -0.74505805969E-08  0.93827000000E+00  0.93827000000E+00 0. -1.
     999902    2    1    2    0    0 -0.13683478266E-01  0.47167248966E-02  0.10511150967E-02  0.10294182836E+01  0.10293159926E+01 0.  0.
     999903    2    3    3    0    0  0.11858689654E+00 -0.53708133249E-01  0.23191537353E-02  0.13761644232E+00  0.44558850025E-01 0.  0.
         14    1    1    2    0    0  0.13683478266E-01 -0.47167248966E-02 -0.10511150967E-02  0.14511716444E-01  0.00000000000E+00 0.  1.
     999901    1    3    3    0    0 -0.13227037481E+00  0.58424858145E-01 -0.12680386386E-02  0.89180184123E+00  0.88000000000E+00 0.  1.
        -11    1    4    4    0    0  0.18025747203E-01  0.21930839860E-03  0.14111634458E-01  0.22899235937E-01  0.51100000000E-03 0.  1.
         11    1    4    4    0    0  0.10056114934E+00 -0.53927441647E-01 -0.11792480722E-01  0.11471720639E+00  0.51100000000E-03 0. -1.
</event>
<event>
 8    1  0.2091070E+004  0.1043930E+01  0.7957747E-01            NaN
         13   -1    0    0    0    0  0.00000000000E+00  0.00000000000E+00  0.74505805969E-08  0.10566000000E+00  0.10566000000E+00 0.  1.
     999900   -1    0    0    0    0 -0.00000000000E+00 -0.00000000000E+00 -0.74505805969E-08  0.93827000000E+00  0.93827000000E+00 0.  1.
     999902    2    1    2    0    0  0.38248092501E-03 -0.78051163968E-02 -0.12117586863E-01  0.10295111913E+01  0.10294102151E+01 0.  0.
     999903    2    3    3    0    0 -0.12458116171E+00 -0.43998375576E-01  0.77978840310E-02  0.13972330084E+00  0.44782484256E-01 0.  0.
         14    1    1    2    0    0 -0.38248092501E-03  0.78051163968E-02  0.12117586863E-01  0.14418808724E-01  0.00000000000E+00 0. -1.
     999901    1    3    3    0    0  0.12496364263E+00  0.36193259179E-01 -0.19915470894E-01  0.88978789044E+00  0.88000000000E+00 0.  1.
        -11    1    4    4    0    0 -0.83349658124E-01 -0.33844823587E-01  0.25817626968E-01  0.93591925807E-01  0.51100000000E-03 0.  1.
         11    1    4    4    0    0 -0.41231503583E-01 -0.10153551989E-01 -0.18019742937E-01  0.46131375031E-01  0.51100000000E-03 0. -1.
</event>
<event>
 8    1  0.2091070E+004  0.1043930E+01  0.7957747E-01            NaN
         13   -1    0    0    0    0  0.00000000000E+00  0.00000000000E+00  0.74505805969E-08  0.10566000000E+00  0.10566000000E+00 0. -1.
     999900   -1    0    0    0    0 -0.00000000000E+00 -0.00000000000E+00 -0.74505805969E-08  0.93827000000E+00  0.93827000000E+00 0. -1.
     999902    2    1    2    0    0 -0.18440950072E-02  0.32909735800E-02 -0.14814410434E-01  0.10286428175E+01  0.10285292159E+01 0.  0.
     999903    2    3    3    0    0 -0.27673296730E-01 -0.59040997076E-02 -0.13014224701E+00  0.14069450425E+00  0.45357130915E-01 0.  0.
         14    1    1    2    0    0  0.18440950072E-02 -0.32909735800E-02  0.14814410434E-01  0.15287182540E-01  0.00000000000E+00 0. -1.
     999901    1    3    3    0    0  0.25829201723E-01  0.91950732876E-02  0.11532783658E+00  0.88794831321E+00  0.88000000000E+00 0.  1.
        -11    1    4    4    0    0 -0.11938657836E-01  0.18163908633E-01 -0.79878520678E-01  0.82784650235E-01  0.51100000000E-03 0.  1.
         11    1    4    4    0    0 -0.15734638895E-01 -0.24068008341E-01 -0.50263726333E-01  0.57909854020E-01  0.51100000000E-03 0. -1.
</event>
<event>
 8    1  0.2091070E+004  0.1043930E+01  0.7957747E-01            NaN
         13   -1    0    0    0    0  0.00000000000E+00  0.00000000000E+00  0.74505805969E-08  0.10566000000E+00  0.10566000000E+00 0. -1.
     999900   -1    0    0    0    0 -0.00000000000E+00 -0.00000000000E+00 -0.74505805969E-08  0.93827000000E+00  0.93827000000E+00 0.  1.
     999902    2    1    2    0    0  0.81373985268E-02  0.12162503931E-02  0.11120076418E-01  0.10300969736E+01  0.10300040885E+01 0.  0.
     999903    2    3    3    0    0  0.12051029607E+00  0.17995271553E-01  0.56291976041E-01  0.14164342717E+00  0.45249449031E-01 0.  0.
         14    1    1    2    0    0 -0.81373985268E-02 -0.12162503931E-02 -0.11120076418E-01  0.13833026398E-01  0.00000000000E+00 0.  1.
     999901    1    3    3    0    0 -0.11237289754E+00 -0.16779021160E-01 -0.45171899623E-01  0.88845354643E+00  0.88000000000E+00 0.  1.
        -11    1    4    4    0    0  0.97226966245E-01 -0.32468969843E-02  0.50446992759E-01  0.10958460432E+00  0.51100000000E-03 0. -1.
         11    1    4    4    0    0  0.23283329821E-01  0.21242168538E-01  0.58449832820E-02  0.32058822846E-01  0.51100000000E-03 0.  1.
</event>
<event>
 8    1  0.2091070E+004  0.1043930E+01  0.7957747E-01            NaN
         13   -1    0    0    0    0  0.00000000000E+00  0.00000000000E+00  0.74505805969E-08  0.10566000000E+00  0.10566000000E+00 0.  1.
     999900   -1    0    0    0    0 -0.00000000000E+00 -0.00000000000E+00 -0.74505805969E-08  0.93827000000E+00  0.93827000000E+00 0. -1.
     999902    2    1    2    0    0 -0.12451458005E-01  0.39606817408E-03 -0.59664521497E-02  0.10301171716E+01  0.10300245594E+01 0.  0.
     999903    2    3    3    0    0  0.89493558036E-01 -0.81465886018E-02  0.95195003076E-01  0.13843370576E+00  0.45014869133E-01 0.  0.
         14    1    1    2    0    0  0.12451458005E-01 -0.39606817408E-03  0.59664521497E-02  0.13812828375E-01  0.00000000000E+00 0.  1.
     999901    1    3    3    0    0 -0.10194501604E+00  0.85426567758E-02 -0.10116145523E+00  0.89168346587E+00  0.88000000000E+00 0. -1.
        -11    1    4    4    0    0  0.39334311378E-01  0.13304951256E-01  0.61838745589E-01  0.74488263214E-01  0.51100000000E-03 0.  1.
         11    1    4    4    0    0  0.50159246657E-01 -0.21451539857E-01  0.33356257487E-01  0.63945442543E-01  0.51100000000E-03 0. -1.
</event>
<event>
 8    1  0.2091070E+004  0.1043930E+01  0.7957747E-01            NaN
         13   -1    0    0    0    0  0.00000000000E+00  0.00000000000E+00  0.74505805969E-08  0.10566000000E+00  0.10566000000E+00 0.  1.
     999900   -1    0    0    0    0 -0.00000000000E+00 -0.00000000000E+00 -0.74505805969E-08  0.93827000000E+00  0.93827000000E+00 0.  1.
     999902    2    1    2    0    0  0.72470364699E-02  0.10908936770E-01 -0.50100891415E-02  0.10299076809E+01  0.10298122187E+01 0.  0.
     999903    2    3    3    0    0 -0.83423207254E-01  0.38497933922E-01  0.94645794700E-01  0.13922617722E+00  0.44548619998E-01 0.  0.
         14    1    1    2    0    0 -0.72470364699E-02 -0.10908936770E-01  0.50100891415E-02  0.14022319075E-01  0.00000000000E+00 0.  1.
     999901    1    3    3    0    0  0.90670243724E-01 -0.27588997152E-01 -0.99655883841E-01  0.89068150371E+00  0.88000000000E+00 0.  1.
        -11    1    4    4    0    0 -0.19345214361E-01  0.29114886740E-01  0.48140196864E-01  0.59494988223E-01  0.51100000000E-03 0.  1.
         11    1    4    4    0    0 -0.64077992893E-01  0.93830471822E-02  0.46505597836E-01  0.79731188995E-01  0.51100000000E-03 0. -1.
</event>
<event>
 8    1  0.2091070E+004  0.1043930E+01  0.7957747E-01            NaN
         13   -1    0    0    0    0  0.00000000000E+00  0.00000000000E+00  0.74505805969E-08  0.10566000000E+00  0.10566000000E+00 0.  1.
     999900   -1    0    0    0    0 -0.00000000000E+00 -0.00000000000E+00 -0.74505805969E-08  0.93827000000E+00  0.93827000000E+00 0. -1.
     999902    2    1    2    0    0 -0.64013090623E-02 -0.13509355566E-01 -0.19627596618E-02  0.10288524713E+01  0.10287419870E+01 0.  0.
     999903    2    3    3    0    0  0.96119773871E-01  0.16055081532E-01  0.84934240637E-01  0.13815851881E+00  0.48756276667E-01 0.  0.
         14    1    1    2    0    0  0.64013090623E-02  0.13509355566E-01  0.19627596618E-02  0.15077528677E-01  0.00000000000E+00 0. -1.
     999901    1    3    3    0    0 -0.10252108293E+00 -0.29564437098E-01 -0.86897000299E-01  0.89069395252E+00  0.88000000000E+00 0. -1.
        -11    1    4    4    0    0  0.27882918792E-01  0.27873610202E-01  0.26080984345E-01  0.47274455803E-01  0.51100000000E-03 0.  1.
         11    1    4    4    0    0  0.68236855079E-01 -0.11818528670E-01  0.58853256292E-01  0.90884063005E-01  0.51100000000E-03 0. -1.
</event>
<event>
 8    1  0.2091070E+004  0.1043930E+01  0.7957747E-01            NaN
         13   -1    0    0    0    0  0.00000000000E+00  0.00000000000E+00  0.74505805969E-08  0.10566000000E+00  0.10566000000E+00 0.  1.
     999900   -1    0    0    0    0 -0.00000000000E+00 -0.00000000000E+00 -0.74505805969E-08  0.93827000000E+00  0.93827000000E+00 0. -1.
     999902    2    1    2    0    0 -0.32182407028E-02 -0.68827106470E-02  0.12726698279E-01  0.10291077995E+01  0.10290010522E+01 0.  0.
     999903    2    3    3    0    0  0.72061087810E-01 -0.85153265944E-01  0.74342100319E-01  0.14029414359E+00  0.41374143733E-01 0.  0.
         14    1    1    2    0    0  0.32182407028E-02  0.68827106470E-02 -0.12726698279E-01  0.14822200516E-01  0.00000000000E+00 0. -1.
     999901    1    3    3    0    0 -0.75279328512E-01  0.78270555297E-01 -0.61615402041E-01  0.88881365589E+00  0.88000000000E+00 0.  1.
        -11    1    4    4    0    0  0.16760255178E-01 -0.50707195613E-01  0.39350045319E-01  0.66338623955E-01  0.51100000000E-03 0.  1.
         11    1    4    4    0    0  0.55300832631E-01 -0.34446070331E-01  0.34992055000E-01  0.73955519639E-01  0.51100000000E-03 0. -1.
</event>
<event>
 8    1  0.2091070E+004  0.1043930E+01  0.7957747E-01            NaN
         13   -1    0    0    0    0  0.00000000000E+00  0.00000000000E+00  0.74505805969E-08  0.10566000000E+00  0.10566000000E+00 0.  1.
     999900   -1    0    0    0    0 -0.00000000000E+00 -0.00000000000E+00 -0.74505805969E-08  0.93827000000E+00  0.93827000000E+00 0. -1.
     999902    2    1    2    0    0  0.61235863297E-02 -0.11666382273E-01  0.66962064887E-02  0.10291502177E+01  0.10290440848E+01 0.  0.
     999903    2    3    3    0    0 -0.36334142317E-01 -0.10371027448E+00  0.75467974616E-01  0.14066595054E+00  0.44894359550E-01 0.  0.
         14    1    1    2    0    0 -0.61235863297E-02  0.11666382273E-01 -0.66962064887E-02  0.14779782347E-01  0.00000000000E+00 0. -1.
     999901    1    3    3    0    0  0.42457728646E-01  0.92043892202E-01 -0.68771768127E-01  0.88848426711E+00  0.88000000000E+00 0.  1.
        -11    1    4    4    0    0  0.38015520173E-02 -0.49998891189E-01  0.43493727157E-01  0.66380014620E-01  0.51100000000E-03 0. -1.
         11    1    4    4    0    0 -0.40135694334E-01 -0.53711383287E-01  0.31974247458E-01  0.74285935922E-01  0.51100000000E-03 0.  1.
</event>
<event>
 8    1  0.2091070E+004  0.1043930E+01  0.7957747E-01            NaN
         13   -1    0    0    0    0  0.00000000000E+00  0.00000000000E+00  0.74505805969E-08  0.10566000000E+00  0.10566000000E+00 0.  1.
     999900   -1    0    0    0    0 -0.00000000000E+00 -0.00000000000E+00 -0.74505805969E-08  0.93827000000E+00  0.93827000000E+00 0.  1.
     999902    2    1    2    0    0 -0.75390036741E-02 -0.54688979328E-02  0.76325496831E-02  0.10318883541E+01  0.10318180916E+01 0.  0.
     999903    2    3    3    0    0  0.10657653330E+00  0.40686170846E-01 -0.67668339230E-01  0.14013565856E+00  0.45222524463E-01 0.  0.
         14    1    1    2    0    0  0.75390036741E-02  0.54688979328E-02 -0.76325496831E-02  0.12041645887E-01  0.00000000000E+00 0. -1.
     999901    1    3    3    0    0 -0.11411553697E+00 -0.46155068779E-01  0.75300888913E-01  0.89175269555E+00  0.88000000000E+00 0.  1.
        -11    1    4    4    0    0  0.90872746056E-01  0.43190622150E-01 -0.40113634492E-01  0.10831736062E+00  0.51100000000E-03 0. -1.
         11    1    4    4    0    0  0.15703787241E-01 -0.25044513040E-02 -0.27554704738E-01  0.31818297947E-01  0.51100000000E-03 0.  1.
</event>
<event>
 8    1  0.2091070E+004  0.1043930E+01  0.7957747E-01            NaN
         13   -1    0    0    0    0  0.00000000000E+00  0.00000000000E+00  0.74505805969E-08  0.10566000000E+00  0.10566000000E+00 0. -1.
     999900   -1    0    0    0    0 -0.00000000000E+00 -0.00000000000E+00 -0.74505805969E-08  0.93827000000E+00  0.93827000000E+00 0.  1.
     999902    2    1    2    0    0  0.59802917766E-02 -0.11781682248E-01 -0.54325480291E-02  0.10296441852E+01  0.10295450760E+01 0.  0.
     999903    2    3    3    0    0  0.46252717737E-01 -0.12358858714E+00 -0.12937969127E-01  0.14162448744E+00  0.49765968569E-01 0.  0.
         14    1    1    2    0    0 -0.59802917766E-02  0.11781682248E-01  0.54325480291E-02  0.14285814797E-01  0.00000000000E+00 0. -1.
     999901    1    3    3    0    0 -0.40272425961E-01  0.11180690489E+00  0.75054210976E-02  0.88801969777E+00  0.88000000000E+00 0.  1.
        -11    1    4    4    0    0  0.31429623814E-01 -0.78460685951E-01  0.15967825891E-01  0.86018213639E-01  0.51100000000E-03 0.  1.
         11    1    4    4    0    0  0.14823093924E-01 -0.45127901188E-01 -0.28905795018E-01  0.55606273799E-01  0.51100000000E-03 0. -1.
</event>
<event>
 8    1  0.2091070E+004  0.1043930E+01  0.7957747E-01            NaN
         13   -1    0    0    0    0  0.00000000000E+00  0.00000000000E+00  0.74505805969E-08  0.10566000000E+00  0.10566000000E+00 0. -1.
     999900   -1    0    0    0    0 -0.00000000000E+00 -0.00000000000E+00 -0.74505805969E-08  0.93827000000E+00  0.93827000000E+00 0. -1.
     999902    2    1    2    0    0  0.12356010450E-01  0.61256954830E-03 -0.53297020517E-02  0.10304595895E+01  0.10303715415E+01 0.  0.
     999903    2    3    3    0    0  0.57684907734E-01 -0.11948960773E+00 -0.17261657471E-01  0.14106563094E+00  0.44679217535E-01 0.  0.
         14    1    1    2    0    0 -0.12356010450E-01 -0.61256954830E-03  0.53297020517E-02  0.13470410523E-01  0.00000000000E+00 0. -1.
     999901    1    3    3    0    0 -0.45328897284E-01  0.12010217728E+00  0.11931955419E-01  0.88939395853E+00  0.88000000000E+00 0.  1.
        -11    1    4    4    0    0  0.30705158185E-01 -0.21023914093E-01  0.15584005830E-02  0.37249180344E-01  0.51100000000E-03 0. -1.
         11    1    4    4    0    0  0.26979749549E-01 -0.98465693636E-01 -0.18820058054E-01  0.10381645060E+00  0.51100000000E-03 0.  1.
</event>
<event>
 8    1  0.2207565E+004  0.1043930E+01  0.7957747E-01            NaN
         13   -1    0    0    0    0  0.00000000000E+00  0.00000000000E+00  0.74505805969E-08  0.10566000000E+00  0.10566000000E+00 0.  1.
     999900   -1    0    0    0    0 -0.00000000000E+00 -0.00000000000E+00 -0.74505805969E-08  0.93827000000E+00  0.93827000000E+00 0. -1.
     999902    2    1    2    0    0 -0.10586363317E-02 -0.14261934438E-01  0.38505798128E-02  0.10291195155E+01  0.10290129381E+01 0.  0.
     999903    2    3    3    0    0  0.10409012756E+00  0.46408008113E-02  0.80783739895E-01  0.13932611983E+00  0.45049565449E-01 0.  0.
         14    1    1    2    0    0  0.10586363317E-02  0.14261934438E-01 -0.38505798128E-02  0.14810484451E-01  0.00000000000E+00 0. -1.
     999901    1    3    3    0    0 -0.10514876389E+00 -0.18902735249E-01 -0.76933160082E-01  0.88979339572E+00  0.88000000000E+00 0. -1.
        -11    1    4    4    0    0  0.68917229001E-01 -0.15608174233E-01  0.37535406258E-01  0.80014794882E-01  0.51100000000E-03 0.  1.
         11    1    4    4    0    0  0.35172898559E-01  0.20248975045E-01  0.43248333637E-01  0.59311324946E-01  0.51100000000E-03 0. -1.
</event>
<event>
 8    1  0.2091070E+004  0.1043930E+01  0.7957747E-01            NaN
         13   -1    0    0    0    0  0.00000000000E+00  0.00000000000E+00  0.74505805969E-08  0.10566000000E+00  0.10566000000E+00 0. -1.
     999900   -1    0    0    0    0 -0.00000000000E+00 -0.00000000000E+00 -0.74505805969E-08  0.93827000000E+00  0.93827000000E+00 0. -1.
     999902    2    1    2    0    0  0.12173993007E-01 -0.30719344884E-03 -0.58279068144E-02  0.10304294455E+01  0.10303410005E+01 0.  0.
     999903    2    3    3    0    0  0.69655565706E-01 -0.11191618693E+00  0.27305294371E-01  0.14090231965E+00  0.41602329874E-01 0.  0.
         14    1    1    2    0    0 -0.12173993007E-01  0.30719344884E-03  0.58279068144E-02  0.13500554484E-01  0.00000000000E+00 0. -1.
     999901    1    3    3    0    0 -0.57481572700E-01  0.11160899349E+00 -0.33133201185E-01  0.88952712586E+00  0.88000000000E+00 0. -1.
        -11    1    4    4    0    0  0.59188448986E-01 -0.77009596949E-01  0.31526493337E-02  0.97179991946E-01  0.51100000000E-03 0. -1.
         11    1    4    4    0    0  0.10467116720E-01 -0.34906589985E-01  0.24152645037E-01  0.43722327707E-01  0.51100000000E-03 0.  1.
</event>
<event>
 8    1  0.2091070E+004  0.1043930E+01  0.7957747E-01            NaN
         13   -1    0    0    0    0  0.00000000000E+00  0.00000000000E+00  0.74505805969E-08  0.10566000000E+00  0.10566000000E+00 0.  1.
     999900   -1    0    0    0    0 -0.00000000000E+00 -0.00000000000E+00 -0.74505805969E-08  0.93827000000E+00  0.93827000000E+00 0. -1.
     999902    2    1    2    0    0 -0.55133194759E-02 -0.58314141277E-02 -0.11061725045E-01  0.10302638431E+01  0.10301732003E+01 0.  0.
     999903    2    3    3    0    0 -0.11192329973E+00  0.34390890143E-01  0.61050150647E-01  0.14001610218E+00  0.46559957354E-01 0.  0.
         14    1    1    2    0    0  0.55133194759E-02  0.58314141277E-02  0.11061725045E-01  0.13666156861E-01  0.00000000000E+00 0.  1.
     999901    1    3    3    0    0  0.10640998026E+00 -0.40222304271E-01 -0.72111875692E-01  0.89024774095E+00  0.88000000000E+00 0. -1.
        -11    1    4    4    0    0 -0.44268864250E-01 -0.70938216177E-03  0.42929823868E-01  0.61672250351E-01  0.51100000000E-03 0. -1.
         11    1    4    4    0    0 -0.67654435484E-01  0.35100272305E-01  0.18120326779E-01  0.78343851833E-01  0.51100000000E-03 0.  1.
</event>
<event>
 8    1  0.2091070E+004  0.1043930E+01  0.7957747E-01            NaN
         13   -1    0    0    0    0  0.00000000000E+00  0.00000000000E+00  0.74505805969E-08  0.10566000000E+00  0.10566000000E+00 0. -1.
     999900   -1    0    0    0    0 -0.00000000000E+00 -0.00000000000E+00 -0.74505805969E-08  0.93827000000E+00  0.93827000000E+00 0.  1.
     999902    2    1    2    0    0 -0.63399653145E-02 -0.33409986942E-02 -0.12240555816E-01  0.10297459019E+01  0.10296482088E+01 0.  0.
     999903    2    3    3    0    0 -0.45162046618E-02 -0.11741917160E+00 -0.63411956015E-01  0.14090639566E+00  0.45009756829E-01 0.  0.
         14    1    1    2    0    0  0.63399653145E-02  0.33409986942E-02  0.12240555816E-01  0.14184098109E-01  0.00000000000E+00 0. -1.
     999901    1    3    3    0    0 -0.18237606528E-02  0.11407817290E+00  0.51171400198E-01  0.88883950623E+00  0.88000000000E+00 0. -1.
        -11    1    4    4    0    0  0.39600254325E-02 -0.85984406508E-01 -0.65669075630E-01  0.10826674734E+00  0.51100000000E-03 0. -1.
         11    1    4    4    0    0 -0.84762300943E-02 -0.31434765089E-01  0.22571196150E-02  0.32639648325E-01  0.51100000000E-03 0.  1.
</event>
<event>
 8    1  0.2091070E+004  0.1043930E+01  0.7957747E-01            NaN
         13   -1    0    0    0    0  0.00000000000E+00  0.00000000000E+00  0.74505805969E-08  0.10566000000E+00  0.10566000000E+00 0.  1.
     999900   -1    0    0    0    0 -0.00000000000E+00 -0.00000000000E+00 -0.74505805969E-08  0.93827000000E+00  0.93827000000E+00 0.  1.
     999902    2    1    2    0    0  0.75824979968E-02  0.14179060398E-02  0.10835919823E-01  0.10306288011E+01  0.10305429655E+01 0.  0.
     999903    2    3    3    0    0  0.56501219750E-01  0.55553756121E-02  0.12248477960E+00  0.14221694399E+00  0.44720106122E-01 0.  0.
         14    1    1    2    0    0 -0.75824979968E-02 -0.14179060398E-02 -0.10835919823E-01  0.13301198887E-01  0.00000000000E+00 0. -1.
     999901    1    3    3    0    0 -0.48918721753E-01 -0.41374695723E-02 -0.11164885978E+00  0.88841185713E+00  0.88000000000E+00 0.  1.
        -11    1    4    4    0    0  0.16830983126E-01  0.15379577467E-01  0.80317247047E-01  0.83492123522E-01  0.51100000000E-03 0. -1.
         11    1    4    4    0    0  0.39670236625E-01 -0.98242018544E-02  0.42167532555E-01  0.58724820465E-01  0.51100000000E-03 0.  1.
</event>
<event>
 8    1  0.2091070E+004  0.1043930E+01  0.7957747E-01            NaN
         13   -1    0    0    0    0  0.00000000000E+00  0.00000000000E+00  0.74505805969E-08  0.10566000000E+00  0.10566000000E+00 0.  1.
     999900   -1    0    0    0    0 -0.00000000000E+00 -0.00000000000E+00 -0.74505805969E-08  0.93827000000E+00  0.93827000000E+00 0.  1.
     999902    2    1    2    0    0  0.15110363330E-02  0.16884729188E-02 -0.15732332085E-01  0.10280353328E+01  0.10279124501E+01 0.  0.
     999903    2    3    3    0    0 -0.32602403077E-01  0.38795915755E-01 -0.12251545258E+00  0.14014833333E+00  0.45425537416E-01 0.  0.
         14    1    1    2    0    0 -0.15110363330E-02 -0.16884729188E-02  0.15732332085E-01  0.15894667170E-01  0.00000000000E+00 0.  1.
     999901    1    3    3    0    0  0.34113439410E-01 -0.37107442836E-01  0.10678312049E+00  0.88788699950E+00  0.88000000000E+00 0. -1.
        -11    1    4    4    0    0 -0.14123585661E-01  0.17642486240E-01 -0.10417381081E+00  0.10659820342E+00  0.51100000000E-03 0. -1.
         11    1    4    4    0    0 -0.18478817416E-01  0.21153429515E-01 -0.18341641767E-01  0.33550129911E-01  0.51100000000E-03 0.  1.
</event>
<event>
 8    1  0.2091070E+004  0.1043930E+01  0.7957747E-01            NaN
         13   -1    0    0    0    0  0.00000000000E+00  0.00000000000E+00  0.74505805969E-08  0.10566000000E+00  0.10566000000E+00 0.  1.
     999900   -1    0    0    0    0 -0.00000000000E+00 -0.00000000000E+00 -0.74505805969E-08  0.93827000000E+00  0.93827000000E+00 0. -1.
     999902    2    1    2    0    0 -0.80462873777E-02  0.46552319575E-02  0.85527840692E-02  0.10312981339E+01  0.10312207703E+01 0.  0.
     999903    2    3    3    0    0 -0.15738005229E-01  0.12113449034E+00  0.57115977967E-01  0.14226215943E+00  0.45332521513E-01 0.  0.
         14    1    1    2    0    0  0.80462873777E-02 -0.46552319575E-02 -0.85527840692E-02  0.12631866073E-01  0.00000000000E+00 0. -1.
     999901    1    3    3    0    0  0.76917178516E-02 -0.11647925838E+00 -0.48563193897E-01  0.88903597450E+00  0.88000000000E+00 0. -1.
        -11    1    4    4    0    0 -0.30899008832E-01  0.63309587496E-01  0.33084239543E-01  0.77831103312E-01  0.51100000000E-03 0.  1.
         11    1    4    4    0    0  0.15161003602E-01  0.57824902844E-01  0.24031738424E-01  0.64431056113E-01  0.51100000000E-03 0. -1.
</event>
<event>
 8    1  0.2091070E+004  0.1043930E+01  0.7957747E-01            NaN
         13   -1    0    0    0    0  0.00000000000E+00  0.00000000000E+00  0.74505805969E-08  0.10566000000E+00  0.10566000000E+00 0. -1.
     999900   -1    0    0    0    0 -0.00000000000E+00 -0.00000000000E+00 -0.74505805969E-08  0.93827000000E+00  0.93827000000E+00 0. -1.
     999902    2    1    2    0    0  0.14724512105E-01 -0.26865315557E-02 -0.59316892228E-02  0.10278298868E+01  0.10277037815E+01 0.  0.
     999903    2    3    3    0    0 -0.55009478449E-01  0.60371265892E-01  0.99522918056E-01  0.13656124633E+00  0.45534935124E-01 0.  0.
         14    1    1    2    0    0 -0.14724512105E-01  0.26865315557E-02  0.59316892228E-02  0.16100113216E-01  0.00000000000E+00 0.  1.
     999901    1    3    3    0    0  0.69733990553E-01 -0.63057797448E-01 -0.10545460728E+00  0.89126864045E+00  0.88000000000E+00 0.  1.
        -11    1    4    4    0    0 -0.38634566564E-01  0.52680503347E-01  0.98802634806E-01  0.11844866792E+00  0.51100000000E-03 0.  1.
         11    1    4    4    0    0 -0.16374911885E-01  0.76907625456E-02  0.72028325009E-03  0.18112578412E-01  0.51100000000E-03 0. -1.
</event>
<event>
 8    1  0.2091070E+004  0.1043930E+01  0.7957747E-01            NaN
         13   -1    0    0    0    0  0.00000000000E+00  0.00000000000E+00  0.74505805969E-08  0.10566000000E+00  0.10566000000E+00 0.  1.
     999900   -1    0    0    0    0 -0.00000000000E+00 -0.00000000000E+00 -0.74505805969E-08  0.93827000000E+00  0.93827000000E+00 0. -1.
     999902    2    1    2    0    0  0.75671251096E-02  0.52102700678E-02 -0.52925579588E-02  0.10333271954E+01  0.10332727971E+01 0.  0.
     999903    2    3    3    0    0 -0.97004410045E-01  0.73072852779E-02  0.92824129774E-01  0.14171826323E+00  0.44771587838E-01 0.  0.
         14    1    1    2    0    0 -0.75671251096E-02 -0.52102700678E-02  0.52925579588E-02  0.10602804646E-01  0.00000000000E+00 0.  1.
     999901    1    3    3    0    0  0.10457153515E+00 -0.20970152101E-02 -0.98116687733E-01  0.89160893213E+00  0.88000000000E+00 0. -1.
        -11    1    4    4    0    0 -0.50299913513E-01 -0.13399244832E-01  0.27772631487E-01  0.59001705417E-01  0.51100000000E-03 0. -1.
         11    1    4    4    0    0 -0.46704496532E-01  0.20706530110E-01  0.65051498287E-01  0.82716557810E-01  0.51100000000E-03 0.  1.
</event>
<event>
 8    1  0.2091070E+004  0.1043930E+01  0.7957747E-01            NaN
         13   -1    0    0    0    0  0.00000000000E+00  0.00000000000E+00  0.74505805969E-08  0.10566000000E+00  0.10566000000E+00 0. -1.
     999900   -1    0    0    0    0 -0.00000000000E+00 -0.00000000000E+00 -0.74505805969E-08  0.93827000000E+00  0.93827000000E+00 0. -1.
     999902    2    1    2    0    0  0.11780937924E-01  0.65355169453E-02 -0.85089148812E-03  0.10304308335E+01  0.10303424067E+01 0.  0.
     999903    2    3    3    0    0  0.77122518245E-01  0.61578118357E-01 -0.90367559076E-01  0.14177316945E+00  0.46835759423E-01 0.  0.
         14    1    1    2    0    0 -0.11780937924E-01 -0.65355169453E-02  0.85089148812E-03  0.13499166509E-01  0.00000000000E+00 0.  1.
     999901    1    3    3    0    0 -0.65341580320E-01 -0.55042601411E-01  0.89516667588E-01  0.88865766404E+00  0.88000000000E+00 0.  1.
        -11    1    4    4    0    0  0.63371064855E-01  0.62467326439E-01 -0.57018341534E-01  0.10568543478E+00  0.51100000000E-03 0.  1.
         11    1    4    4    0    0  0.13751453390E-01 -0.88920808289E-03 -0.33349217542E-01  0.36087734661E-01  0.51100000000E-03 0. -1.
</event>
<event>
 8    1  0.2091070E+004  0.1043930E+01  0.7957747E-01            NaN
         13   -1    0    0    0    0  0.00000000000E+00  0.00000000000E+00  0.74505805969E-08  0.10566000000E+00  0.10566000000E+00 0.  1.
     999900   -1    0    0    0    0 -0.00000000000E+00 -0.00000000000E+00 -0.74505805969E-08  0.93827000000E+00  0.93827000000E+00 0. -1.
     999902    2    1    2    0    0 -0.13601474971E-02  0.74969681419E-02  0.11777020223E-01  0.10299031423E+01  0.10298076178E+01 0.  0.
     999903    2    3    3    0    0 -0.58533105141E-03  0.15500660080E-01 -0.13006190536E+00  0.13850932344E+00  0.45034657529E-01 0.  0.
         14    1    1    2    0    0  0.13601474971E-02 -0.74969681419E-02 -0.11777020223E-01  0.14026857733E-01  0.00000000000E+00 0. -1.
     999901    1    3    3    0    0 -0.77481644565E-03 -0.80036919379E-02  0.14183892559E+00  0.89139381882E+00  0.88000000000E+00 0.  1.
        -11    1    4    4    0    0 -0.53457071218E-02 -0.14244358826E-01 -0.25546977451E-01  0.29738653650E-01  0.51100000000E-03 0.  1.
         11    1    4    4    0    0  0.47603760704E-02  0.29745018906E-01 -0.10451492791E+00  0.10877066979E+00  0.51100000000E-03 0. -1.
</event>
<event>
 8    1  0.2091070E+004  0.1043930E+01  0.7957747E-01            NaN
         13   -1    0    0    0    0  0.00000000000E+00  0.00000000000E+00  0.74505805969E-08  0.10566000000E+00  0.10566000000E+00 0.  1.
     999900   -1    0    0    0    0 -0.00000000000E+00 -0.00000000000E+00 -0.74505805969E-08  0.93827000000E+00  0.93827000000E+00 0.  1.
     999902    2    1    2    0    0 -0.20742975623E-02 -0.13403283889E-02 -0.13598365955E-01  0.10301091915E+01  0.10300164716E+01 0.  0.
     999903    2    3    3    0    0  0.56536220634E-01  0.92858772873E-01 -0.77156369165E-01  0.14086890717E+00  0.45517554444E-01 0.  0.
         14    1    1    2    0    0  0.20742975623E-02  0.13403283889E-02  0.13598365955E-01  0.13820808486E-01  0.00000000000E+00 0.  1.
     999901    1    3    3    0    0 -0.58610518197E-01 -0.94199101262E-01  0.63558003210E-01  0.88924028434E+00  0.88000000000E+00 0. -1.
        -11    1    4    4    0    0 -0.61246734673E-02  0.18674354632E-01 -0.62517324174E-02  0.20629794599E-01  0.51100000000E-03 0.  1.
         11    1    4    4    0    0  0.62660894102E-01  0.74184418241E-01 -0.70904636748E-01  0.12023911257E+00  0.51100000000E-03 0. -1.
</event>
<event>
 8    1  0.2091070E+004  0.1043930E+01  0.7957747E-01            NaN
         13   -1    0    0    0    0  0.00000000000E+00  0.00000000000E+00  0.74505805969E-08  0.10566000000E+00  0.10566000000E+00 0. -1.
     999900   -1    0    0    0    0 -0.00000000000E+00 -0.00000000000E+00 -0.74505805969E-08  0.93827000000E+00  0.93827000000E+00 0.  1.
     999902    2    1    2    0    0 -0.80379185755E-02  0.85492966549E-02 -0.80185198704E-02  0.10297174960E+01  0.10296194085E+01 0.  0.
     999903    2    3    3    0    0  0.85434523083E-01  0.99180932795E-01 -0.20656321783E-01  0.14004850991E+00  0.45287816615E-01 0.  0.
         14    1    1    2    0    0  0.80379185755E-02 -0.85492966549E-02  0.80185198704E-02  0.14212503975E-01  0.00000000000E+00 0. -1.
     999901    1    3    3    0    0 -0.93472441658E-01 -0.90631636140E-01  0.12637801913E-01  0.88966898612E+00  0.88000000000E+00 0.  1.
        -11    1    4    4    0    0  0.75597019727E-01  0.60438825330E-01 -0.24639927320E-01  0.99875663393E-01  0.51100000000E-03 0.  1.
         11    1    4    4    0    0  0.98375033553E-02  0.38742107466E-01  0.39836055373E-02  0.40172846516E-01  0.51100000000E-03 0. -1.
</event>
<event>
 8    1  0.2091070E+004  0.1043930E+01  0.7957747E-01            NaN
         13   -1    0    0    0    0  0.00000000000E+00  0.00000000000E+00  0.74505805969E-08  0.10566000000E+00  0.10566000000E+00 0.  1.
     999900   -1    0    0    0    0 -0.00000000000E+00 -0.00000000000E+00 -0.74505805969E-08  0.93827000000E+00  0.93827000000E+00 0. -1.
     999902    2    1    2    0    0  0.13566389913E-01 -0.45610920995E-02 -0.29721169269E-02  0.10293120666E+01  0.10292082620E+01 0.  0.
     999903    2    3    3    0    0  0.72733255852E-01  0.11040069170E+00 -0.20931763304E-02  0.13986409049E+00  0.45597622593E-01 0.  0.
         14    1    1    2    0    0 -0.13566389913E-01  0.45610920995E-02  0.29721169269E-02  0.14617933350E-01  0.00000000000E+00 0.  1.
     999901    1    3    3    0    0 -0.59166865939E-01 -0.11496178380E+00 -0.87894059649E-03  0.88944797616E+00  0.88000000000E+00 0. -1.
        -11    1    4    4    0    0  0.44686641701E-01  0.83499517046E-01 -0.20437528646E-01  0.96886629581E-01  0.51100000000E-03 0.  1.
         11    1    4    4    0    0  0.28046614151E-01  0.26901174657E-01  0.18344352316E-01  0.42977460908E-01  0.51100000000E-03 0. -1.
</event>
<event>
 8    1  0.2091070E+004  0.1043930E+01  0.7957747E-01            NaN
         13   -1    0    0    0    0  0.00000000000E+00  0.00000000000E+00  0.74505805969E-08  0.10566000000E+00  0.10566000000E+00 0. -1.
     999900   -1    0    0    0    0 -0.00000000000E+00 -0.00000000000E+00 -0.74505805969E-08  0.93827000000E+00  0.93827000000E+00 0.  1.
     999902    2    1    2    0    0 -0.23913639564E-02  0.18537685758E-02  0.13144751801E-01  0.10304415020E+01  0.10303532158E+01 0.  0.
     999903    2    3    3    0    0 -0.20273264805E-01 -0.13083118781E+00 -0.32816483212E-02  0.14016351916E+00  0.45904661190E-01 0.  0.
         14    1    1    2    0    0  0.23913639564E-02 -0.18537685758E-02 -0.13144751801E-01  0.13488498042E-01  0.00000000000E+00 0.  1.
     999901    1    3    3    0    0  0.17881900848E-01  0.13268495639E+00  0.16426400122E-01  0.89027798280E+00  0.88000000000E+00 0. -1.
        -11    1    4    4    0    0  0.20116415332E-02 -0.73355239997E-01 -0.20430831679E-01  0.76175573124E-01  0.51100000000E-03 0.  1.
         11    1    4    4    0    0 -0.22284906338E-01 -0.57475947813E-01  0.17149183358E-01  0.63987946039E-01  0.51100000000E-03 0. -1.
</event>
<event>
 8    1  0.2091070E+004  0.1043930E+01  0.7957747E-01            NaN
         13   -1    0    0    0    0  0.00000000000E+00  0.00000000000E+00  0.74505805969E-08  0.10566000000E+00  0.10566000000E+00 0. -1.
     999900   -1    0    0    0    0 -0.00000000000E+00 -0.00000000000E+00 -0.74505805969E-08  0.93827000000E+00  0.93827000000E+00 0. -1.
     999902    2    1    2    0    0 -0.77100331552E-02  0.19886415969E-02  0.10402902416E-01  0.10308296303E+01  0.10307463835E+01 0.  0.
     999903    2    3    3    0    0  0.17512221038E-01  0.93574513499E-01  0.94511395096E-01  0.14172987633E+00  0.45739332946E-01 0.  0.
         14    1    1    2    0    0  0.77100331552E-02 -0.19886415969E-02 -0.10402902416E-01  0.13100369664E-01  0.00000000000E+00 0.  1.
     999901    1    3    3    0    0 -0.25222254193E-01 -0.91585871902E-01 -0.84108492680E-01  0.88909975401E+00  0.88000000000E+00 0. -1.
        -11    1    4    4    0    0  0.31475719009E-01  0.64298613007E-01  0.53145551801E-01  0.89161333093E-01  0.51100000000E-03 0. -1.
         11    1    4    4    0    0 -0.13963497971E-01  0.29275900492E-01  0.41365843295E-01  0.52568543233E-01  0.51100000000E-03 0.  1.
</event>
<event>
 8    1  0.2091070E+004  0.1043930E+01  0.7957747E-01            NaN
         13   -1    0    0    0    0  0.00000000000E+00  0.00000000000E+00  0.74505805969E-08  0.10566000000E+00  0.10566000000E+00 0.  1.
     999900   -1    0    0    0    0 -0.00000000000E+00 -0.00000000000E+00 -0.74505805969E-08  0.93827000000E+00  0.93827000000E+00 0.  1.
     999902    2    1    2    0    0 -0.10750256183E-01 -0.88548030333E-02 -0.28085275713E-02  0.10297221370E+01  0.10296241139E+01 0.  0.
     999903    2    3    3    0    0  0.29292099170E-01 -0.88947459796E-01 -0.94071100941E-01  0.14048252855E+00  0.46003164204E-01 0.  0.
         14    1    1    2    0    0  0.10750256183E-01  0.88548030333E-02  0.28085275713E-02  0.14207863030E-01  0.00000000000E+00 0.  1.
     999901    1    3    3    0    0 -0.40042355353E-01  0.80092656763E-01  0.91262573370E-01  0.88923960842E+00  0.88000000000E+00 0. -1.
        -11    1    4    4    0    0  0.16130381600E-04 -0.38476834285E-01 -0.64404982657E-01  0.75024862205E-01  0.51100000000E-03 0. -1.
         11    1    4    4    0    0  0.29275968788E-01 -0.50470625511E-01 -0.29666118284E-01  0.65457666342E-01  0.51100000000E-03 0.  1.
</event>
<event>
 8    1  0.2091070E+004  0.1043930E+01  0.7957747E-01            NaN
         13   -1    0    0    0    0  0.00000000000E+00  0.00000000000E+00  0.74505805969E-08  0.10566000000E+00  0.10566000000E+00 0. -1.
     999900   -1    0    0    0    0 -0.00000000000E+00 -0.00000000000E+00 -0.74505805969E-08  0.93827000000E+00  0.93827000000E+00 0.  1.
     999902    2    1    2    0    0  0.57173690536E-02 -0.68847759231E-02  0.10847436158E-01  0.10298674497E+01  0.10297714352E+01 0.  0.
     999903    2    3    3    0    0 -0.11985012446E+00  0.16212938486E-01  0.53505085978E-01  0.13963131538E+00  0.44801766744E-01 0.  0.
         14    1    1    2    0    0 -0.57173690536E-02  0.68847759231E-02 -0.10847436158E-01  0.14062550253E-01  0.00000000000E+00 0.  1.
     999901    1    3    3    0    0  0.12556749351E+00 -0.23097714409E-01 -0.42657649820E-01  0.89023613436E+00  0.88000000000E+00 0.  1.
        -11    1    4    4    0    0 -0.67604987742E-01  0.11027923701E-02  0.68289490455E-02  0.67959886585E-01  0.51100000000E-03 0. -1.
         11    1    4    4    0    0 -0.52245136716E-01  0.15110146116E-01  0.46676136933E-01  0.71671428799E-01  0.51100000000E-03 0.  1.
</event>
<event>
 8    1  0.2091070E+004  0.1043930E+01  0.7957747E-01            NaN
         13   -1    0    0    0    0  0.00000000000E+00  0.00000000000E+00  0.74505805969E-08  0.10566000000E+00  0.10566000000E+00 0.  1.
     999900   -1    0    0    0    0 -0.00000000000E+00 -0.00000000000E+00 -0.74505805969E-08  0.93827000000E+00  0.93827000000E+00 0. -1.
     999902    2    1    2    0    0 -0.25930801453E-02 -0.15251056760E-02  0.10678967019E-01  0.10328353910E+01  0.10327758007E+01 0.  0.
     999903    2    3    3    0    0  0.22209270976E-01  0.13324740972E+00  0.62762758659E-02  0.14221865458E+00  0.44029878023E-01 0.  0.
         14    1    1    2    0    0  0.25930801453E-02  0.15251056760E-02 -0.10678967019E-01  0.11094608986E-01  0.00000000000E+00 0. -1.
     999901    1    3    3    0    0 -0.24802351121E-01 -0.13477251539E+00  0.44026911533E-02  0.89061673643E+00  0.88000000000E+00 0.  1.
        -11    1    4    4    0    0  0.20310773693E-01  0.25811956070E-01 -0.80326039320E-02  0.33816688943E-01  0.51100000000E-03 0.  1.
         11    1    4    4    0    0  0.18984972834E-02  0.10743545365E+00  0.14308879798E-01  0.10840196564E+00  0.51100000000E-03 0. -1.
</event>
<event>
 8    1  0.2091070E+004  0.1043930E+01  0.7957747E-01            NaN
         13   -1    0    0    0    0  0.00000000000E+00  0.00000000000E+00  0.74505805969E-08  0.10566000000E+00  0.10566000000E+00 0.  1.
     999900   -1    0    0    0    0 -0.00000000000E+00 -0.00000000000E+00 -0.74505805969E-08  0.93827000000E+00  0.93827000000E+00 0. -1.
     999902    2    1    2    0    0  0.24694868586E-02  0.23314025594E-01 -0.11559956073E-02  0.10204570692E+01  0.10201870670E+01 0.  0.
     999903    2    3    3    0    0  0.26926970168E-01 -0.94279847923E-01 -0.71674085128E-01  0.12950292417E+00  0.44945316153E-01 0.  0.
         14    1    1    2    0    0 -0.24694868586E-02 -0.23314025594E-01  0.11559956073E-02  0.23472930805E-01  0.00000000000E+00 0. -1.
     999901    1    3    3    0    0 -0.24457483309E-01  0.11759387352E+00  0.70518089521E-01  0.89095414502E+00  0.88000000000E+00 0.  1.
        -11    1    4    4    0    0  0.12729517830E-01 -0.14120086064E-01  0.27329339267E-02  0.19213211691E-01  0.51100000000E-03 0.  1.
         11    1    4    4    0    0  0.14197452338E-01 -0.80159761859E-01 -0.74407019054E-01  0.11028971248E+00  0.51100000000E-03 0. -1.
</event>
<event>
 8    1  0.2091070E+004  0.1043930E+01  0.7957747E-01            NaN
         13   -1    0    0    0    0  0.00000000000E+00  0.00000000000E+00  0.74505805969E-08  0.10566000000E+00  0.10566000000E+00 0.  1.
     999900   -1    0    0    0    0 -0.00000000000E+00 -0.00000000000E+00 -0.74505805969E-08  0.93827000000E+00  0.93827000000E+00 0.  1.
     999902    2    1    2    0    0 -0.61948011470E-02 -0.37306262890E-02  0.12098507236E-01  0.10298350714E+01  0.10297386112E+01 0.  0.
     999903    2    3    3    0    0 -0.94223199892E-01 -0.48202901842E-01  0.82619302910E-01  0.14152208330E+00  0.44732758735E-01 0.  0.
         14    1    1    2    0    0  0.61948011470E-02  0.37306262890E-02 -0.12098507236E-01  0.14094928559E-01  0.00000000000E+00 0. -1.
     999901    1    3    3    0    0  0.88028398745E-01  0.44472275553E-01 -0.70520795675E-01  0.88831298814E+00  0.88000000000E+00 0.  1.
        -11    1    4    4    0    0 -0.38967443363E-01  0.26795844443E-02  0.20903636207E-01  0.44304231657E-01  0.51100000000E-03 0. -1.
         11    1    4    4    0    0 -0.55255756529E-01 -0.50882486286E-01  0.61715666703E-01  0.97217851642E-01  0.51100000000E-03 0.  1.
</event>
<event>
 8    1  0.2091070E+004  0.1043930E+01  0.7957747E-01            NaN
         13   -1    0    0    0    0  0.00000000000E+00  0.00000000000E+00  0.74505805969E-08  0.10566000000E+00  0.10566000000E+00 0.  1.
     999900   -1    0    0    0    0 -0.00000000000E+00 -0.00000000000E+00 -0.74505805969E-08  0.93827000000E+00  0.93827000000E+00 0. -1.
     999902    2    1    2    0    0  0.16454322794E-02  0.17242692510E-01 -0.74872547502E-02  0.10250600006E+01  0.10248863000E+01 0.  0.
     999903    2    3    3    0    0 -0.73619437366E-01  0.10603138882E+00 -0.13711371316E-01  0.13737369747E+00  0.44956135066E-01 0.  0.
         14    1    1    2    0    0 -0.16454322794E-02 -0.17242692510E-01  0.74872547502E-02  0.18869999366E-01  0.00000000000E+00 0.  1.
     999901    1    3    3    0    0  0.75264869645E-01 -0.88788696312E-01  0.62241165659E-02  0.88768630316E+00  0.88000000000E+00 0.  1.
        -11    1    4    4    0    0 -0.60759198081E-01  0.52651953057E-01  0.14384942485E-02  0.80412926192E-01  0.51100000000E-03 0. -1.
         11    1    4    4    0    0 -0.12860239285E-01  0.53379435765E-01 -0.15149865565E-01  0.56960771279E-01  0.51100000000E-03 0.  1.
</event>
<event>
 7    1  0.2091070E+004  0.1043930E+01  0.7957747E-01            NaN
         13   -1    0    0    0    0  0.00000000000E+00  0.00000000000E+00  0.74505805969E-08  0.10566000000E+00  0.10566000000E+00 0.  1.
     999900   -1    0    0    0    0 -0.00000000000E+00 -0.00000000000E+00 -0.74505805969E-08  0.93827000000E+00  0.93827000000E+00 0.  1.
     999903    2    1    2    0    0  0.57907525951E-01 -0.76067734806E-01 -0.71126350680E-01  0.12730519691E+00  0.44811533762E-01 0.  0.
         14    1    1    2    0    0 -0.54548718515E-02  0.25531343438E-01  0.18598208793E-01  0.32054617374E-01  0.00000000000E+00 0.  1.
     999901    1    1    2    0    0 -0.52452654099E-01  0.50536391368E-01  0.52528141887E-01  0.88457018572E+00  0.88000000000E+00 0. -1.
        -11    1    3    3    0    0  0.55538994511E-01 -0.37757952835E-01 -0.43656169460E-01  0.80102216989E-01  0.51100000000E-03 0. -1.
         11    1    3    3    0    0  0.23685314394E-02 -0.38309781971E-01 -0.27470181221E-01  0.47202979918E-01  0.51100000000E-03 0.  1.
</event>
<event>
 8    1  0.2091070E+004  0.1043930E+01  0.7957747E-01            NaN
         13   -1    0    0    0    0  0.00000000000E+00  0.00000000000E+00  0.74505805969E-08  0.10566000000E+00  0.10566000000E+00 0. -1.
     999900   -1    0    0    0    0 -0.00000000000E+00 -0.00000000000E+00 -0.74505805969E-08  0.93827000000E+00  0.93827000000E+00 0. -1.
     999902    2    1    2    0    0 -0.23090359025E-02  0.91420934616E-02 -0.10166897702E-01  0.10300636620E+01  0.10299703260E+01 0.  0.
     999903    2    3    3    0    0  0.11342401460E+00 -0.62630870579E-01 -0.24311404127E-01  0.13947646001E+00  0.45552228144E-01 0.  0.
         14    1    1    2    0    0  0.23090359025E-02 -0.91420934616E-02  0.10166897702E-01  0.13866337964E-01  0.00000000000E+00 0. -1.
     999901    1    3    3    0    0 -0.11573305050E+00  0.71772964041E-01  0.14144506425E-01  0.89058720202E+00  0.88000000000E+00 0. -1.
        -11    1    4    4    0    0  0.11705733547E-01 -0.11285456082E-01 -0.19549790471E-01  0.25433071881E-01  0.51100000000E-03 0. -1.
         11    1    4    4    0    0  0.10171828106E+00 -0.51345414497E-01 -0.47616136559E-02  0.11404338813E+00  0.51100000000E-03 0.  1.
</event>
<event>
 8    1  0.2091070E+004  0.1043930E+01  0.7957747E-01            NaN
         13   -1    0    0    0    0  0.00000000000E+00  0.00000000000E+00  0.74505805969E-08  0.10566000000E+00  0.10566000000E+00 0.  1.
     999900   -1    0    0    0    0 -0.00000000000E+00 -0.00000000000E+00 -0.74505805969E-08  0.93827000000E+00  0.93827000000E+00 0.  1.
     999902    2    1    2    0    0 -0.10858600816E-01  0.79313556328E-02  0.49693014557E-02  0.10295943950E+01  0.10294945889E+01 0.  0.
     999903    2    3    3    0    0  0.90911091738E-01  0.21645420267E-01 -0.91647229552E-01  0.13837057353E+00  0.44875941373E-01 0.  0.
         14    1    1    2    0    0  0.10858600816E-01 -0.79313556328E-02 -0.49693014557E-02  0.14335605003E-01  0.00000000000E+00 0. -1.
     999901    1    3    3    0    0 -0.10176969255E+00 -0.13714064634E-01  0.96616531008E-01  0.89122382147E+00  0.88000000000E+00 0.  1.
        -11    1    4    4    0    0  0.44768479029E-01  0.26536181527E-01 -0.69836790555E-01  0.87096636449E-01  0.51100000000E-03 0.  1.
         11    1    4    4    0    0  0.46142612708E-01 -0.48907612605E-02 -0.21810438997E-01  0.51273937078E-01  0.51100000000E-03 0. -1.
</event>
<event>
 8    1  0.2091070E+004  0.1043930E+01  0.7957747E-01            NaN
         13   -1    0    0    0    0  0.00000000000E+00  0.00000000000E+00  0.74505805969E-08  0.10566000000E+00  0.10566000000E+00 0. -1.
     999900   -1    0    0    0    0 -0.00000000000E+00 -0.00000000000E+00 -0.74505805969E-08  0.93827000000E+00  0.93827000000E+00 0.  1.
     999902    2    1    2    0    0 -0.30633377153E-02  0.34195810487E-02  0.13089305941E-01  0.10300588969E+01  0.10299654963E+01 0.  0.
     999903    2    3    3    0    0 -0.96941943010E-01  0.11392246137E-01 -0.88363633241E-01  0.13923374297E+00  0.45281120962E-01 0.  0.
         14    1    1    2    0    0  0.30633377153E-02 -0.34195810487E-02 -0.13089305941E-01  0.13871103147E-01  0.00000000000E+00 0.  1.
     999901    1    3    3    0    0  0.93878605295E-01 -0.79726650882E-02  0.10145293918E+00  0.89082515388E+00  0.88000000000E+00 0. -1.
        -11    1    4    4    0    0 -0.93052478855E-01  0.75724169966E-02 -0.61452154684E-01  0.11177089852E+00  0.51100000000E-03 0.  1.
         11    1    4    4    0    0 -0.38894641549E-02  0.38198291402E-02 -0.26911478557E-01  0.27462844448E-01  0.51100000000E-03 0. -1.
</event>
<event>
 8    1  0.2091070E+004  0.1043930E+01  0.7957747E-01            NaN
         13   -1    0    0    0    0  0.00000000000E+00  0.00000000000E+00  0.74505805969E-08  0.10566000000E+00  0.10566000000E+00 0.  1.
     999900   -1    0    0    0    0 -0.00000000000E+00 -0.00000000000E+00 -0.74505805969E-08  0.93827000000E+00  0.93827000000E+00 0.  1.
     999902    2    1    2    0    0 -0.73339675737E-02  0.53357890991E-02  0.65739954094E-02  0.10327284313E+01  0.10326676802E+01 0.  0.
     999903    2    3    3    0    0 -0.48218885906E-02  0.87128064668E-01 -0.10294686417E+00  0.14217180448E+00  0.44723761979E-01 0.  0.
         14    1    1    2    0    0  0.73339675737E-02 -0.53357890991E-02 -0.65739954094E-02  0.11201568699E-01  0.00000000000E+00 0.  1.
     999901    1    3    3    0    0 -0.25120789830E-02 -0.81792275569E-01  0.10952085958E+00  0.89055662682E+00  0.88000000000E+00 0. -1.
        -11    1    4    4    0    0  0.19637023709E-01  0.34916868626E-01 -0.36508531570E-01  0.54202715921E-01  0.51100000000E-03 0.  1.
         11    1    4    4    0    0 -0.24458912300E-01  0.52211196042E-01 -0.66438332600E-01  0.87969088564E-01  0.51100000000E-03 0. -1.
</event>
<event>
 8    1  0.2091070E+004  0.1043930E+01  0.7957747E-01            NaN
         13   -1    0    0    0    0  0.00000000000E+00  0.00000000000E+00  0.74505805969E-08  0.10566000000E+00  0.10566000000E+00 0. -1.
     999900   -1    0    0    0    0 -0.00000000000E+00 -0.00000000000E+00 -0.74505805969E-08  0.93827000000E+00  0.93827000000E+00 0.  1.
     999902    2    1    2    0    0 -0.30259393644E-02  0.72104776113E-02 -0.12291494250E-01  0.10293619484E+01  0.10292588560E+01 0.  0.
     999903    2    3    3    0    0  0.11870122956E+00  0.52690496420E-01  0.21896085676E-01  0.13916268622E+00  0.44950465602E-01 0.  0.
         14    1    1    2    0    0  0.30259393644E-02 -0.72104776113E-02  0.12291494250E-01  0.14568051597E-01  0.00000000000E+00 0. -1.
     999901    1    3    3    0    0 -0.12172716892E+00 -0.45480018809E-01 -0.34187579927E-01  0.89019926218E+00  0.88000000000E+00 0.  1.
        -11    1    4    4    0    0  0.63003095375E-01  0.26291395870E-01  0.34120735837E-01  0.76322429591E-01  0.51100000000E-03 0. -1.
         11    1    4    4    0    0  0.55698134181E-01  0.26399100550E-01 -0.12224650160E-01  0.62840256632E-01  0.51100000000E-03 0.  1.
</event>
<event>
 8    1  0.2091070E+004  0.1043930E+01  0.7957747E-01            NaN
         13   -1    0    0    0    0  0.00000000000E+00  0.00000000000E+00  0.74505805969E-08  0.10566000000E+00  0.10566000000E+00 0.  1.
     999900   -1    0    0    0    0 -0.00000000000E+00 -0.00000000000E+00 -0.74505805969E-08  0.93827000000E+00  0.93827000000E+00 0. -1.
     999902    2    1    2    0    0  0.44134247225E-02 -0.12200594842E-01  0.35456123216E-02  0.10304799368E+01  0.10303921564E+01 0.  0.
     999903    2    3    3    0    0  0.17857673996E-01 -0.10991567877E+00  0.75701152940E-01  0.14203443626E+00  0.45196942009E-01 0.  0.
         14    1    1    2    0    0 -0.44134247225E-02  0.12200594842E-01 -0.35456123216E-02  0.13450063160E-01  0.00000000000E+00 0.  1.
     999901    1    3    3    0    0 -0.13444249274E-01  0.97715083926E-01 -0.72155540618E-01  0.88844550058E+00  0.88000000000E+00 0. -1.
        -11    1    4    4    0    0  0.66412198059E-02 -0.58442035877E-01  0.13186044587E-01  0.60280264190E-01  0.51100000000E-03 0. -1.
         11    1    4    4    0    0  0.11216454190E-01 -0.51473642890E-01  0.62515108352E-01  0.81754172067E-01  0.51100000000E-03 0.  1.
</event>
<event>
 8    1  0.2091070E+004  0.1043930E+01  0.7957747E-01            NaN
         13   -1    0    0    0    0  0.00000000000E+00  0.00000000000E+00  0.74505805969E-08  0.10566000000E+00  0.10566000000E+00 0.  1.
     999900   -1    0    0    0    0 -0.00000000000E+00 -0.00000000000E+00 -0.74505805969E-08  0.93827000000E+00  0.93827000000E+00 0. -1.
     999902    2    1    2    0    0  0.53388008114E-02  0.95736612903E-02 -0.56075553192E-02  0.10316173049E+01  0.10315438242E+01 0.  0.
     999903    2    3    3    0    0 -0.11325481366E+00  0.70316546415E-01 -0.15559721322E-01  0.14153124775E+00  0.44921260500E-01 0.  0.
         14    1    1    2    0    0 -0.53388008114E-02 -0.95736612903E-02  0.56075553192E-02  0.12312695126E-01  0.00000000000E+00 0.  1.
     999901    1    3    3    0    0  0.11859361447E+00 -0.60742885125E-01  0.99521660031E-02  0.89008605713E+00  0.88000000000E+00 0.  1.
        -11    1    4    4    0    0 -0.26842869714E-01  0.72690367411E-02 -0.20336697413E-01  0.34456072502E-01  0.51100000000E-03 0. -1.
         11    1    4    4    0    0 -0.86411943942E-01  0.63047509674E-01  0.47769760903E-02  0.10707517524E+00  0.51100000000E-03 0.  1.
</event>
<event>
 8    1  0.2091070E+004  0.1043930E+01  0.7957747E-01            NaN
         13   -1    0    0    0    0  0.00000000000E+00  0.00000000000E+00  0.74505805969E-08  0.10566000000E+00  0.10566000000E+00 0.  1.
     999900   -1    0    0    0    0 -0.00000000000E+00 -0.00000000000E+00 -0.74505805969E-08  0.93827000000E+00  0.93827000000E+00 0. -1.
     999902    2    1    2    0    0 -0.42520925398E-02 -0.12008935108E-01 -0.68453413290E-02  0.10294678594E+01  0.10293662711E+01 0.  0.
     999903    2    3    3    0    0 -0.83974206662E-01  0.10079556385E+00  0.66652639691E-03  0.13866097873E+00  0.44888859280E-01 0.  0.
         14    1    1    2    0    0  0.42520925398E-02  0.12008935108E-01  0.68453413290E-02  0.14462140620E-01  0.00000000000E+00 0.  1.
     999901    1    3    3    0    0  0.79722114122E-01 -0.11280449896E+00 -0.75118677259E-02  0.89080688065E+00  0.88000000000E+00 0. -1.
        -11    1    4    4    0    0 -0.79230366014E-01  0.66122798074E-01  0.54167026738E-02  0.10334058792E+00  0.51100000000E-03 0. -1.
         11    1    4    4    0    0 -0.47438406477E-02  0.34672765776E-01 -0.47501762769E-02  0.35320390800E-01  0.51100000000E-03 0.  1.
</event>
<event>
 8    1  0.2091070E+004  0.1043930E+01  0.7957747E-01            NaN
         13   -1    0    0    0    0  0.00000000000E+00  0.00000000000E+00  0.74505805969E-08  0.10566000000E+00  0.10566000000E+00 0.  1.
     999900   -1    0    0    0    0 -0.00000000000E+00 -0.00000000000E+00 -0.74505805969E-08  0.93827000000E+00  0.93827000000E+00 0.  1.
     999902    2    1    2    0    0  0.99853132178E-02  0.10902896982E-01 -0.15420855458E-02  0.10290653550E+01  0.10289579910E+01 0.  0.
     999903    2    3    3    0    0  0.14471485777E-01  0.98330504023E-01 -0.89418830421E-01  0.14036628643E+00  0.42762778325E-01 0.  0.
         14    1    1    2    0    0 -0.99853132178E-02 -0.10902896982E-01  0.15420855458E-02  0.14864644983E-01  0.00000000000E+00 0.  1.
     999901    1    3    3    0    0 -0.44861725589E-02 -0.87427607041E-01  0.87876744876E-01  0.88869906859E+00  0.88000000000E+00 0. -1.
        -11    1    4    4    0    0  0.13328702992E-01  0.96477075953E-01 -0.67889774731E-01  0.11872136767E+00  0.51100000000E-03 0. -1.
         11    1    4    4    0    0  0.11427827846E-02  0.18534280701E-02 -0.21529055690E-01  0.21644918758E-01  0.51100000000E-03 0.  1.
</event>
<event>
 8    1  0.2091070E+004  0.1043930E+01  0.7957747E-01            NaN
         13   -1    0    0    0    0  0.00000000000E+00  0.00000000000E+00  0.74505805969E-08  0.10566000000E+00  0.10566000000E+00 0. -1.
     999900   -1    0    0    0    0 -0.00000000000E+00 -0.00000000000E+00 -0.74505805969E-08  0.93827000000E+00  0.93827000000E+00 0. -1.
     999902    2    1    2    0    0 -0.98420244184E-02 -0.35632529401E-02  0.85892784463E-02  0.10303897666E+01  0.10303007974E+01 0.  0.
     999903    2    3    3    0    0  0.64762934927E-01  0.15661211309E-01  0.11525946722E+00  0.14060664182E+00  0.45232418233E-01 0.  0.
         14    1    1    2    0    0  0.98420244184E-02  0.35632529401E-02 -0.85892784463E-02  0.13540233395E-01  0.00000000000E+00 0.  1.
     999901    1    3    3    0    0 -0.74604959346E-01 -0.19224464249E-01 -0.10667018877E+00  0.88978312479E+00  0.88000000000E+00 0. -1.
        -11    1    4    4    0    0  0.31170768547E-01 -0.14840498588E-01  0.58613716798E-01  0.68027098483E-01  0.51100000000E-03 0.  1.
         11    1    4    4    0    0  0.33592166381E-01  0.30501709896E-01  0.56645750421E-01  0.72579543334E-01  0.51100000000E-03 0. -1.
</event>
<event>
 8    1  0.2091070E+004  0.1043930E+01  0.7957747E-01            NaN
         13   -1    0    0    0    0  0.00000000000E+00  0.00000000000E+00  0.74505805969E-08  0.10566000000E+00  0.10566000000E+00 0. -1.
     999900   -1    0    0    0    0 -0.00000000000E+00 -0.00000000000E+00 -0.74505805969E-08  0.93827000000E+00  0.93827000000E+00 0.  1.
     999902    2    1    2    0    0  0.13562823690E-01  0.51598390322E-02 -0.69455890005E-03  0.10294022150E+01  0.10292996958E+01 0.  0.
     999903    2    3    3    0    0  0.76167003915E-02 -0.12540135016E+00  0.26277201206E-01  0.13934094948E+00  0.54239249196E-01 0.  0.
         14    1    1    2    0    0 -0.13562823690E-01 -0.51598390322E-02  0.69455890005E-03  0.14527785012E-01  0.00000000000E+00 0. -1.
     999901    1    3    3    0    0  0.59461232990E-02  0.13056118919E+00 -0.26971760106E-01  0.89006126550E+00  0.88000000000E+00 0.  1.
        -11    1    4    4    0    0 -0.19500773795E-03 -0.11593823100E+00  0.65768613195E-02  0.11612591296E+00  0.51100000000E-03 0.  1.
         11    1    4    4    0    0  0.78117081294E-02 -0.94631191607E-02  0.19700339886E-01  0.23215036524E-01  0.51100000000E-03 0. -1.
</event>
<event>
 8    1  0.2091070E+004  0.1043930E+01  0.7957747E-01            NaN
         13   -1    0    0    0    0  0.00000000000E+00  0.00000000000E+00  0.74505805969E-08  0.10566000000E+00  0.10566000000E+00 0.  1.
     999900   -1    0    0    0    0 -0.00000000000E+00 -0.00000000000E+00 -0.74505805969E-08  0.93827000000E+00  0.93827000000E+00 0.  1.
     999902    2    1    2    0    0  0.17598825618E-01 -0.31696986005E-02  0.95676078656E-02  0.10236493498E+01  0.10234484289E+01 0.  0.
     999903    2    3    3    0    0 -0.97532058033E-01  0.63414012695E-01 -0.42494817767E-01  0.13213434311E+00  0.46041673981E-01 0.  0.
         14    1    1    2    0    0 -0.17598825618E-01  0.31696986005E-02 -0.95676078656E-02  0.20280650202E-01  0.00000000000E+00 0. -1.
     999901    1    3    3    0    0  0.11513088365E+00 -0.66583711296E-01  0.52062425632E-01  0.89151500668E+00  0.88000000000E+00 0. -1.
        -11    1    4    4    0    0 -0.90560056530E-01  0.60068526049E-01 -0.51496601698E-01  0.12025603007E+00  0.51100000000E-03 0.  1.
         11    1    4    4    0    0 -0.69720015033E-02  0.33454866457E-02  0.90017839317E-02  0.11878313046E-01  0.51100000000E-03 0. -1.
</event>
<event>
 8    1  0.2091070E+004  0.1043930E+01  0.7957747E-01            NaN
         13   -1    0    0    0    0  0.00000000000E+00  0.00000000000E+00  0.74505805969E-08  0.10566000000E+00  0.10566000000E+00 0.  1.
     999900   -1    0    0    0    0 -0.00000000000E+00 -0.00000000000E+00 -0.74505805969E-08  0.93827000000E+00  0.93827000000E+00 0.  1.
     999902    2    1    2    0    0 -0.36849424984E-02 -0.93529659525E-02  0.91733228717E-02  0.10303209359E+01  0.10302310538E+01 0.  0.
     999903    2    3    3    0    0  0.11082708925E+00 -0.64370040748E-01  0.36662283917E-01  0.14077300188E+00  0.45241232718E-01 0.  0.
         14    1    1    2    0    0  0.36849424984E-02  0.93529659525E-02 -0.91733228717E-02  0.13609064106E-01  0.00000000000E+00 0. -1.
     999901    1    3    3    0    0 -0.11451203175E+00  0.55017074795E-01 -0.27488961045E-01  0.88954793402E+00  0.88000000000E+00 0. -1.
        -11    1    4    4    0    0  0.53528206878E-02 -0.21299753575E-01  0.51167622176E-02  0.22556031749E-01  0.51100000000E-03 0. -1.
         11    1    4    4    0    0  0.10547426856E+00 -0.43070287173E-01  0.31545521700E-01  0.11821697013E+00  0.51100000000E-03 0.  1.
</event>
<event>
 8    1  0.2091070E+004  0.1043930E+01  0.7957747E-01            NaN
         13   -1    0    0    0    0  0.00000000000E+00  0.00000000000E+00  0.74505805969E-08  0.10566000000E+00  0.10566000000E+00 0.  1.
     999900   -1    0    0    0    0 -0.00000000000E+00 -0.00000000000E+00 -0.74505805969E-08  0.93827000000E+00  0.93827000000E+00 0.  1.
     999902    2    1    2    0    0  0.69216989447E-02  0.15982752502E-02 -0.11232582526E-01  0.10306395783E+01  0.10305538826E+01 0.  0.
     999903    2    3    3    0    0 -0.11912327555E+00  0.44355697961E-01 -0.39289280376E-01  0.14018873116E+00  0.44175220120E-01 0.  0.
         14    1    1    2    0    0 -0.69216989447E-02 -0.15982752502E-02  0.11232582526E-01  0.13290421749E-01  0.00000000000E+00 0.  1.
     999901    1    3    3    0    0  0.12604497449E+00 -0.42757422711E-01  0.28056697850E-01  0.89045084709E+00  0.88000000000E+00 0.  1.
        -11    1    4    4    0    0 -0.13369886789E-01 -0.57437023511E-02 -0.14543572555E-01  0.20579616447E-01  0.51100000000E-03 0.  1.
         11    1    4    4    0    0 -0.10575338876E+00  0.50099400312E-01 -0.24745707821E-01  0.11960911471E+00  0.51100000000E-03 0. -1.
</event>
<event>
 8    1  0.2091070E+004  0.1043930E+01  0.7957747E-01            NaN
         13   -1    0    0    0    0  0.00000000000E+00  0.00000000000E+00  0.74505805969E-08  0.10566000000E+00  0.10566000000E+00 0.  1.
     999900   -1    0    0    0    0 -0.00000000000E+00 -0.00000000000E+00 -0.74505805969E-08  0.93827000000E+00  0.93827000000E+00 0. -1.
     999902    2    1    2    0    0  0.79218392834E-03  0.38033836946E-02  0.13567079846E-01  0.10298176317E+01  0.10297209310E+01 0.  0.
     999903    2    3    3    0    0 -0.59457183046E-01  0.11787820204E+00  0.14839374158E-01  0.14041071184E+00  0.45437141645E-01 0.  0.
         14    1    1    2    0    0 -0.79218392834E-03 -0.38033836946E-02 -0.13567079846E-01  0.14112368280E-01  0.00000000000E+00 0. -1.
     999901    1    3    3    0    0  0.60249366975E-01 -0.11407481835E+00 -0.12722943121E-02  0.88940691988E+00  0.88000000000E+00 0.  1.
        -11    1    4    4    0    0 -0.96232769214E-02  0.55405383230E-01 -0.91393930587E-02  0.56975025898E-01  0.51100000000E-03 0.  1.
         11    1    4    4    0    0 -0.49833906125E-01  0.62472818812E-01  0.23978767217E-01  0.83435685940E-01  0.51100000000E-03 0. -1.
</event>
<event>
 8    1  0.2091070E+004  0.1043930E+01  0.7957747E-01            NaN
         13   -1    0    0    0    0  0.00000000000E+00  0.00000000000E+00  0.74505805969E-08  0.10566000000E+00  0.10566000000E+00 0. -1.
     999900   -1    0    0    0    0 -0.00000000000E+00 -0.00000000000E+00 -0.74505805969E-08  0.93827000000E+00  0.93827000000E+00 0. -1.
     999902    2    1    2    0    0  0.45860099422E-02 -0.10607917775E-01 -0.49209563203E-02  0.10313691394E+01  0.10312926484E+01 0.  0.
     999903    2    3    3    0    0 -0.70209484089E-01  0.10807668500E+00 -0.30552150670E-01  0.13988870837E+00  0.45005281061E-01 0.  0.
         14    1    1    2    0    0 -0.45860099422E-02  0.10607917775E-01  0.49209563203E-02  0.12560860553E-01  0.00000000000E+00 0. -1.
     999901    1    3    3    0    0  0.74795494032E-01 -0.11868460277E+00  0.25631194350E-01  0.89148043107E+00  0.88000000000E+00 0.  1.
        -11    1    4    4    0    0 -0.32373072665E-01  0.87565048477E-01 -0.23522496262E-01  0.96276801463E-01  0.51100000000E-03 0.  1.
         11    1    4    4    0    0 -0.37836411424E-01  0.20511636522E-01 -0.70296544076E-02  0.43611906910E-01  0.51100000000E-03 0. -1.
</event>
<event>
 8    1  0.2091070E+004  0.1043930E+01  0.7957747E-01            NaN
         13   -1    0    0    0    0  0.00000000000E+00  0.00000000000E+00  0.74505805969E-08  0.10566000000E+00  0.10566000000E+00 0.  1.
     999900   -1    0    0    0    0 -0.00000000000E+00 -0.00000000000E+00 -0.74505805969E-08  0.93827000000E+00  0.93827000000E+00 0.  1.
     999902    2    1    2    0    0 -0.27113649462E-02 -0.76834045414E-02  0.11535808272E-01  0.10298069310E+01  0.10297100825E+01 0.  0.
     999903    2    3    3    0    0 -0.70941512965E-01 -0.15511251523E-01  0.11271504946E+00  0.14135104176E+00  0.44745250555E-01 0.  0.
         14    1    1    2    0    0  0.27113649462E-02  0.76834045414E-02 -0.11535808272E-01  0.14123068991E-01  0.00000000000E+00 0. -1.
     999901    1    3    3    0    0  0.68230148019E-01  0.78278469811E-02 -0.10117924119E+00  0.88845588925E+00  0.88000000000E+00 0.  1.
        -11    1    4    4    0    0 -0.22657858763E-01  0.12715248301E-01  0.18916617918E-01  0.32142738800E-01  0.51100000000E-03 0. -1.
         11    1    4    4    0    0 -0.48283654202E-01 -0.28226499824E-01  0.93798431543E-01  0.10920830296E+00  0.51100000000E-03 0.  1.
</event>
<event>
 8    1  0.2091070E+004  0.1043930E+01  0.7957747E-01            NaN
         13   -1    0    0    0    0  0.00000000000E+00  0.00000000000E+00  0.74505805969E-08  0.10566000000E+00  0.10566000000E+00 0.  1.
     999900   -1    0    0    0    0 -0.00000000000E+00 -0.00000000000E+00 -0.74505805969E-08  0.93827000000E+00  0.93827000000E+00 0.  1.
     999902    2    1    2    0    0  0.79896046339E-02 -0.23300680830E-02  0.11554147937E-01  0.10296905711E+01  0.10295921090E+01 0.  0.
     999903    2    3    3    0    0  0.13001550191E-01 -0.10016483558E+00 -0.84089719431E-01  0.13910396071E+00  0.45571881412E-01 0.  0.
         14    1    1    2    0    0 -0.79896046339E-02  0.23300680830E-02 -0.11554147937E-01  0.14239428852E-01  0.00000000000E+00 0. -1.
     999901    1    3    3    0    0 -0.50119455574E-02  0.97834767502E-01  0.95643867369E-01  0.89058661044E+00  0.88000000000E+00 0. -1.
        -11    1    4    4    0    0  0.18462453055E-01 -0.62570336721E-01 -0.76179044248E-01  0.10029664558E+00  0.51100000000E-03 0.  1.
         11    1    4    4    0    0 -0.54609028635E-02 -0.37594498864E-01 -0.79106751835E-02  0.38807315132E-01  0.51100000000E-03 0. -1.
</event>
<event>
 8    1  0.2091070E+004  0.1043930E+01  0.7957747E-01            NaN
         13   -1    0    0    0    0  0.00000000000E+00  0.00000000000E+00  0.74505805969E-08  0.10566000000E+00  0.10566000000E+00 0.  1.
     999900   -1    0    0    0    0 -0.00000000000E+00 -0.00000000000E+00 -0.74505805969E-08  0.93827000000E+00  0.93827000000E+00 0. -1.
     999902    2    1    2    0    0  0.46535361903E-02 -0.99174358357E-02  0.79895329386E-02  0.10303711074E+01  0.10302818912E+01 0.  0.
     999903    2    3    3    0    0  0.28760221516E-01  0.48769265374E-01 -0.11361526048E+00  0.13974605329E+00  0.58437491473E-01 0.  0.
         14    1    1    2    0    0 -0.46535361903E-02  0.99174358357E-02 -0.79895329386E-02  0.13558892625E-01  0.00000000000E+00 0. -1.
     999901    1    3    3    0    0 -0.24106685326E-01 -0.58686701210E-01  0.12160479342E+00  0.89062505408E+00  0.88000000000E+00 0.  1.
        -11    1    4    4    0    0  0.21748341911E-01  0.45933988382E-01 -0.37270786020E-01  0.63026139625E-01  0.51100000000E-03 0.  1.
         11    1    4    4    0    0  0.70118796056E-02  0.28352769923E-02 -0.76344474462E-01  0.76719913668E-01  0.51100000000E-03 0. -1.
</event>
<event>
 8    1  0.2091070E+004  0.1043930E+01  0.7957747E-01            NaN
         13   -1    0    0    0    0  0.00000000000E+00  0.00000000000E+00  0.74505805969E-08  0.10566000000E+00  0.10566000000E+00 0.  1.
     999900   -1    0    0    0    0 -0.00000000000E+00 -0.00000000000E+00 -0.74505805969E-08  0.93827000000E+00  0.93827000000E+00 0. -1.
     999902    2    1    2    0    0 -0.88243821986E-02  0.40581762748E-02 -0.11494801777E-01  0.10288811135E+01  0.10287710517E+01 0.  0.
     999903    2    3    3    0    0 -0.32594431530E-01 -0.10391584794E+00 -0.75954132581E-01  0.13962388951E+00  0.43184486175E-01 0.  0.
         14    1    1    2    0    0  0.88243821986E-02 -0.40581762748E-02  0.11494801777E-01  0.15048886462E-01  0.00000000000E+00 0.  1.
     999901    1    3    3    0    0  0.23770049331E-01  0.10797402422E+00  0.64459330804E-01  0.88925722402E+00  0.88000000000E+00 0.  1.
        -11    1    4    4    0    0  0.47701679325E-02  0.50731161754E-03 -0.86146256533E-02  0.98734372601E-02  0.51100000000E-03 0.  1.
         11    1    4    4    0    0 -0.37364599462E-01 -0.10442315956E+00 -0.67339506928E-01  0.12975045225E+00  0.51100000000E-03 0. -1.
</event>
<event>
 8    1  0.2091070E+004  0.1043930E+01  0.7957747E-01            NaN
         13   -1    0    0    0    0  0.00000000000E+00  0.00000000000E+00  0.74505805969E-08  0.10566000000E+00  0.10566000000E+00 0.  1.
     999900   -1    0    0    0    0 -0.00000000000E+00 -0.00000000000E+00 -0.74505805969E-08  0.93827000000E+00  0.93827000000E+00 0. -1.
     999902    2    1    2    0    0  0.69218979363E-02  0.31382851381E-02 -0.11651390460E-01  0.10300189826E+01  0.10299250401E+01 0.  0.
     999903    2    3    3    0    0  0.52125917711E-01  0.97001324346E-01 -0.76618960674E-01  0.14149523015E+00  0.44989629909E-01 0.  0.
         14    1    1    2    0    0 -0.69218979363E-02 -0.31382851381E-02  0.11651390460E-01  0.13911017371E-01  0.00000000000E+00 0.  1.
     999901    1    3    3    0    0 -0.45204019774E-01 -0.93863039208E-01  0.64967570214E-01  0.88852375248E+00  0.88000000000E+00 0.  1.
        -11    1    4    4    0    0 -0.28796678845E-03  0.40966784222E-01 -0.36693000494E-01  0.54999979460E-01  0.51100000000E-03 0. -1.
         11    1    4    4    0    0  0.52413884499E-01  0.56034540125E-01 -0.39925960180E-01  0.86495250694E-01  0.51100000000E-03 0.  1.
</event>
<event>
 8    1  0.2091070E+004  0.1043930E+01  0.7957747E-01            NaN
         13   -1    0    0    0    0  0.00000000000E+00  0.00000000000E+00  0.74505805969E-08  0.10566000000E+00  0.10566000000E+00 0. -1.
     999900   -1    0    0    0    0 -0.00000000000E+00 -0.00000000000E+00 -0.74505805969E-08  0.93827000000E+00  0.93827000000E+00 0.  1.
     999902    2    1    2    0    0  0.97335096854E-02 -0.11342086626E-02  0.99102374759E-02  0.10299929829E+01  0.10298986864E+01 0.  0.
     999903    2    3    3    0    0  0.99904071132E-01  0.78277684985E-01  0.42793998481E-01  0.14121949048E+00  0.44759343057E-01 0.  0.
         14    1    1    2    0    0 -0.97335096854E-02  0.11342086626E-02 -0.99102374759E-02  0.13937017146E-01  0.00000000000E+00 0.  1.
     999901    1    3    3    0    0 -0.90170561446E-01 -0.79411893648E-01 -0.32883761005E-01  0.88877349237E+00  0.88000000000E+00 0. -1.
        -11    1    4    4    0    0  0.72857100138E-01  0.44486032219E-01  0.81079304628E-02  0.85750590438E-01  0.51100000000E-03 0. -1.
         11    1    4    4    0    0  0.27046970994E-01  0.33791652767E-01  0.34686068018E-01  0.55468900045E-01  0.51100000000E-03 0.  1.
</event>
<event>
 8    1  0.2091070E+004  0.1043930E+01  0.7957747E-01            NaN
         13   -1    0    0    0    0  0.00000000000E+00  0.00000000000E+00  0.74505805969E-08  0.10566000000E+00  0.10566000000E+00 0.  1.
     999900   -1    0    0    0    0 -0.00000000000E+00 -0.00000000000E+00 -0.74505805969E-08  0.93827000000E+00  0.93827000000E+00 0. -1.
     999902    2    1    2    0    0 -0.10832335806E-01 -0.25207505698E-02  0.65445503499E-02  0.10310255503E+01  0.10309447903E+01 0.  0.
     999903    2    3    3    0    0 -0.15506313368E-01 -0.13243997477E+00 -0.13526881654E-01  0.14124821116E+00  0.44579008038E-01 0.  0.
         14    1    1    2    0    0  0.10832335806E-01  0.25207505698E-02 -0.65445503499E-02  0.12904449687E-01  0.00000000000E+00 0.  1.
     999901    1    3    3    0    0  0.46739775625E-02  0.12991922420E+00  0.20071432004E-01  0.88977733915E+00  0.88000000000E+00 0.  1.
        -11    1    4    4    0    0  0.64879300167E-03 -0.11333195913E+00 -0.20707540634E-01  0.11521118545E+00  0.51100000000E-03 0.  1.
         11    1    4    4    0    0 -0.16155106370E-01 -0.19108015640E-01  0.71806589800E-02  0.26037025712E-01  0.51100000000E-03 0. -1.
</event>
<event>
 8    1  0.2091070E+004  0.1043930E+01  0.7957747E-01            NaN
         13   -1    0    0    0    0  0.00000000000E+00  0.00000000000E+00  0.74505805969E-08  0.10566000000E+00  0.10566000000E+00 0. -1.
     999900   -1    0    0    0    0 -0.00000000000E+00 -0.00000000000E+00 -0.74505805969E-08  0.93827000000E+00  0.93827000000E+00 0. -1.
     999902    2    1    2    0    0  0.82238369954E-03 -0.12908190015E-01 -0.32467856539E-03  0.10309915650E+01  0.10309103763E+01 0.  0.
     999903    2    3    3    0    0  0.58938416090E-01 -0.98324206789E-01 -0.71242083054E-01  0.14211438146E+00  0.44493555566E-01 0.  0.
         14    1    1    2    0    0 -0.82238369954E-03  0.12908190015E-01  0.32467856539E-03  0.12938435013E-01  0.00000000000E+00 0.  1.
     999901    1    3    3    0    0 -0.58116032391E-01  0.85416016774E-01  0.70917404488E-01  0.88887718353E+00  0.88000000000E+00 0.  1.
        -11    1    4    4    0    0  0.57502267947E-01 -0.72918006552E-01 -0.38220031875E-01  0.10042200185E+00  0.51100000000E-03 0.  1.
         11    1    4    4    0    0  0.14361481436E-02 -0.25406200237E-01 -0.33022051178E-01  0.41692379603E-01  0.51100000000E-03 0. -1.
</event>
<event>
 8    1  0.2091070E+004  0.1043930E+01  0.7957747E-01            NaN
         13   -1    0    0    0    0  0.00000000000E+00  0.00000000000E+00  0.74505805969E-08  0.10566000000E+00  0.10566000000E+00 0.  1.
     999900   -1    0    0    0    0 -0.00000000000E+00 -0.00000000000E+00 -0.74505805969E-08  0.93827000000E+00  0.93827000000E+00 0. -1.
     999902    2    1    2    0    0 -0.77842560810E-02  0.10791099357E-01 -0.33038542760E-02  0.10302202253E+01  0.10301289991E+01 0.  0.
     999903    2    3    3    0    0  0.10902547190E+00  0.75765349999E-01 -0.10595713843E-01  0.14009701083E+00  0.43450679027E-01 0.  0.
         14    1    1    2    0    0  0.77842560810E-02 -0.10791099357E-01  0.33038542760E-02  0.13709774657E-01  0.00000000000E+00 0. -1.
     999901    1    3    3    0    0 -0.11680972798E+00 -0.64974250643E-01  0.72918595670E-02  0.89012321451E+00  0.88000000000E+00 0. -1.
        -11    1    4    4    0    0  0.57915694874E-01  0.16240326340E-01 -0.13250147243E-01  0.61593858747E-01  0.51100000000E-03 0. -1.
         11    1    4    4    0    0  0.51109777028E-01  0.59525023659E-01  0.26544333996E-02  0.78503152084E-01  0.51100000000E-03 0.  1.
</event>
<event>
 8    1  0.2091070E+004  0.1043930E+01  0.7957747E-01            NaN
         13   -1    0    0    0    0  0.00000000000E+00  0.00000000000E+00  0.74505805969E-08  0.10566000000E+00  0.10566000000E+00 0. -1.
     999900   -1    0    0    0    0 -0.00000000000E+00 -0.00000000000E+00 -0.74505805969E-08  0.93827000000E+00  0.93827000000E+00 0. -1.
     999902    2    1    2    0    0  0.17290645428E-02  0.94965219992E-02  0.11203360610E-01  0.10291418668E+01  0.10290356132E+01 0.  0.
     999903    2    3    3    0    0 -0.55113565954E-01 -0.59702348527E-01 -0.10188338818E+00  0.13739740730E+00  0.43542475510E-01 0.  0.
         14    1    1    2    0    0 -0.17290645428E-02 -0.94965219992E-02 -0.11203360610E-01  0.14788133189E-01  0.00000000000E+00 0.  1.
     999901    1    3    3    0    0  0.56842630497E-01  0.69198870527E-01  0.11308674879E+00  0.89174445951E+00  0.88000000000E+00 0.  1.
        -11    1    4    4    0    0 -0.13194202291E-01 -0.67327713811E-02  0.39221438750E-03  0.14826737257E-01  0.51100000000E-03 0.  1.
         11    1    4    4    0    0 -0.41919363663E-01 -0.52969577146E-01 -0.10227560256E+00  0.12257067004E+00  0.51100000000E-03 0. -1.
</event>
<event>
 8    1  0.2091070E+004  0.1043930E+01  0.7957747E-01            NaN
         13   -1    0    0    0    0  0.00000000000E+00  0.00000000000E+00  0.74505805969E-08  0.10566000000E+00  0.10566000000E+00 0.  1.
     999900   -1    0    0    0    0 -0.00000000000E+00 -0.00000000000E+00 -0.74505805969E-08  0.93827000000E+00  0.93827000000E+00 0. -1.
     999902    2    1    2    0    0  0.14292166486E-01  0.11236210410E-01  0.14341980286E-02  0.10256933509E+01  0.10255312158E+01 0.  0.
     999903    2    3    3    0    0  0.11806378605E+00 -0.44052013974E-01  0.32919983521E-01  0.13731466390E+00  0.43496598676E-01 0.  0.
         14    1    1    2    0    0 -0.14292166486E-01 -0.11236210410E-01 -0.14341980286E-02  0.18236649123E-01  0.00000000000E+00 0.  1.
     999901    1    3    3    0    0 -0.10377161956E+00  0.55288224384E-01 -0.31485785493E-01  0.88837868697E+00  0.88000000000E+00 0. -1.
        -11    1    4    4    0    0  0.10139089151E+00 -0.18950889890E-01  0.24385260444E-01  0.10599127868E+00  0.51100000000E-03 0.  1.
         11    1    4    4    0    0  0.16672894536E-01 -0.25101124084E-01  0.85347230777E-02  0.31323385218E-01  0.51100000000E-03 0. -1.
</event>
<event>
 8    1  0.2091070E+004  0.1043930E+01  0.7957747E-01            NaN
         13   -1    0    0    0    0  0.00000000000E+00  0.00000000000E+00  0.74505805969E-08  0.10566000000E+00  0.10566000000E+00 0. -1.
     999900   -1    0    0    0    0 -0.00000000000E+00 -0.00000000000E+00 -0.74505805969E-08  0.93827000000E+00  0.93827000000E+00 0. -1.
     999902    2    1    2    0    0 -0.11439572110E-01 -0.75151415497E-02 -0.22082363570E-02  0.10300657485E+01  0.10299724408E+01 0.  0.
     999903    2    3    3    0    0 -0.14495332810E-01 -0.11986226524E+00  0.57234143394E-01  0.14092874532E+00  0.44811681337E-01 0.  0.
         14    1    1    2    0    0  0.11439572110E-01  0.75151415497E-02  0.22082363570E-02  0.13864251526E-01  0.00000000000E+00 0.  1.
     999901    1    3    3    0    0  0.30557606999E-02  0.11234712369E+00 -0.59442379751E-01  0.88913700316E+00  0.88000000000E+00 0. -1.
        -11    1    4    4    0    0 -0.12188800867E-01 -0.67342243214E-01  0.55854368840E-01  0.88337513136E-01  0.51100000000E-03 0.  1.
         11    1    4    4    0    0 -0.23065319426E-02 -0.52520022027E-01  0.13797745549E-02  0.52591232179E-01  0.51100000000E-03 0. -1.
</event>
<event>
 8    1  0.2091070E+004  0.1043930E+01  0.7957747E-01            NaN
         13   -1    0    0    0    0  0.00000000000E+00  0.00000000000E+00  0.74505805969E-08  0.10566000000E+00  0.10566000000E+00 0.  1.
     999900   -1    0    0    0    0 -0.00000000000E+00 -0.00000000000E+00 -0.74505805969E-08  0.93827000000E+00  0.93827000000E+00 0.  1.
     999902    2    1    2    0    0 -0.11781173018E-01 -0.12504746386E-02 -0.56088842271E-02  0.10308220136E+01  0.10307386693E+01 0.  0.
     999903    2    3    3    0    0 -0.45966899768E-01 -0.12452306208E+00 -0.20016635855E-01  0.14145573473E+00  0.44610652465E-01 0.  0.
         14    1    1    2    0    0  0.11781173018E-01  0.12504746386E-02  0.56088842271E-02  0.13107986374E-01  0.00000000000E+00 0.  1.
     999901    1    3    3    0    0  0.34185726750E-01  0.12327258744E+00  0.14407751627E-01  0.88936627889E+00  0.88000000000E+00 0. -1.
        -11    1    4    4    0    0 -0.26724423604E-02 -0.71385396216E-01 -0.12125185255E-01  0.72458939956E-01  0.51100000000E-03 0. -1.
         11    1    4    4    0    0 -0.43294457408E-01 -0.53137665864E-01 -0.78914506001E-02  0.68996794776E-01  0.51100000000E-03 0.  1.
</event>
<event>
 8    1  0.2091070E+004  0.1043930E+01  0.7957747E-01            NaN
         13   -1    0    0    0    0  0.00000000000E+00  0.00000000000E+00  0.74505805969E-08  0.10566000000E+00  0.10566000000E+00 0. -1.
     999900   -1    0    0    0    0 -0.00000000000E+00 -0.00000000000E+00 -0.74505805969E-08  0.93827000000E+00  0.93827000000E+00 0.  1.
     999902    2    1    2    0    0 -0.11840046898E-01 -0.67561854927E-02 -0.32362540224E-04  0.10302979128E+01  0.10302077244E+01 0.  0.
     999903    2    3    3    0    0  0.67181793609E-01 -0.68296996050E-01  0.91578888300E-01  0.13989107104E+00  0.44776622398E-01 0.  0.
         14    1    1    2    0    0  0.11840046898E-01  0.67561854927E-02  0.32362540224E-04  0.13632087158E-01  0.00000000000E+00 0. -1.
     999901    1    3    3    0    0 -0.79021840507E-01  0.61540810557E-01 -0.91611250840E-01  0.89040684180E+00  0.88000000000E+00 0.  1.
        -11    1    4    4    0    0  0.61379342766E-01 -0.68969670462E-01  0.65603715832E-01  0.11326229652E+00  0.51100000000E-03 0.  1.
         11    1    4    4    0    0  0.58024508431E-02  0.67267441173E-03  0.25975172468E-01  0.26628774519E-01  0.51100000000E-03 0. -1.
</event>
<event>
 8    1  0.2091070E+004  0.1043930E+01  0.7957747E-01            NaN
         13   -1    0    0    0    0  0.00000000000E+00  0.00000000000E+00  0.74505805969E-08  0.10566000000E+00  0.10566000000E+00 0. -1.
     999900   -1    0    0    0    0 -0.00000000000E+00 -0.00000000000E+00 -0.74505805969E-08  0.93827000000E+00  0.93827000000E+00 0. -1.
     999902    2    1    2    0    0  0.36297054343E-02  0.10154072616E-01  0.47409227038E-02  0.10321505136E+01  0.10320832943E+01 0.  0.
     999903    2    3    3    0    0  0.40421881940E-02  0.62371277303E-01 -0.11936697977E+00  0.14190921030E+00  0.44533499635E-01 0.  0.
         14    1    1    2    0    0 -0.36297054343E-02 -0.10154072616E-01 -0.47409227038E-02  0.11779486420E-01  0.00000000000E+00 0. -1.
     999901    1    3    3    0    0 -0.41248275968E-03 -0.52217204686E-01  0.12410790248E+00  0.89024130328E+00  0.88000000000E+00 0.  1.
        -11    1    4    4    0    0  0.93403397188E-02  0.43163269849E-01 -0.38398870534E-01  0.58523877088E-01  0.51100000000E-03 0. -1.
         11    1    4    4    0    0 -0.52981515248E-02  0.19208007454E-01 -0.80968109241E-01  0.83385333212E-01  0.51100000000E-03 0.  1.
</event>
<event>
 8    1  0.2091070E+004  0.1043930E+01  0.7957747E-01            NaN
         13   -1    0    0    0    0  0.00000000000E+00  0.00000000000E+00  0.74505805969E-08  0.10566000000E+00  0.10566000000E+00 0.  1.
     999900   -1    0    0    0    0 -0.00000000000E+00 -0.00000000000E+00 -0.74505805969E-08  0.93827000000E+00  0.93827000000E+00 0. -1.
     999902    2    1    2    0    0 -0.44327503642E-02  0.13963157484E-01 -0.14537864694E-02  0.10292081612E+01  0.10291028649E+01 0.  0.
     999903    2    3    3    0    0  0.19503497832E-01 -0.12846462368E+00  0.21507409676E-02  0.13742813818E+00  0.44702589559E-01 0.  0.
         14    1    1    2    0    0  0.44327503642E-02 -0.13963157484E-01  0.14537864694E-02  0.14721838806E-01  0.00000000000E+00 0. -1.
     999901    1    3    3    0    0 -0.23936248196E-01  0.14242778116E+00 -0.36045274370E-02  0.89178002301E+00  0.88000000000E+00 0. -1.
        -11    1    4    4    0    0  0.12192186488E-01 -0.44674825998E-01 -0.20007712370E-01  0.50448579411E-01  0.51100000000E-03 0.  1.
         11    1    4    4    0    0  0.73113113445E-02 -0.83789797679E-01  0.22158453338E-01  0.86979558771E-01  0.51100000000E-03 0. -1.
</event>
<event>
 8    1  0.2091070E+004  0.1043930E+01  0.7957747E-01            NaN
         13   -1    0    0    0    0  0.00000000000E+00  0.00000000000E+00  0.74505805969E-08  0.10566000000E+00  0.10566000000E+00 0.  1.
     999900   -1    0    0    0    0 -0.00000000000E+00 -0.00000000000E+00 -0.74505805969E-08  0.93827000000E+00  0.93827000000E+00 0. -1.
     999902    2    1    2    0    0  0.77034221014E-02  0.75163594255E-02  0.81001640021E-02  0.10304596241E+01  0.10303715766E+01 0.  0.
     999903    2    3    3    0    0  0.79599745248E-02  0.79218531300E-01 -0.10678622972E+00  0.14010006145E+00  0.43425700503E-01 0.  0.
         14    1    1    2    0    0 -0.77034221014E-02 -0.75163594255E-02 -0.81001640021E-02  0.13470375939E-01  0.00000000000E+00 0. -1.
     999901    1    3    3    0    0 -0.25655242338E-03 -0.71702171874E-01  0.11488639372E+00  0.89035956261E+00  0.88000000000E+00 0.  1.
        -11    1    4    4    0    0 -0.95308458665E-02  0.68050221603E-01 -0.71548584586E-01  0.99202473560E-01  0.51100000000E-03 0.  1.
         11    1    4    4    0    0  0.17490820391E-01  0.11168309697E-01 -0.35237645136E-01  0.40897587890E-01  0.51100000000E-03 0. -1.
</event>
<event>
 8    1  0.2091070E+004  0.1043930E+01  0.7957747E-01            NaN
         13   -1    0    0    0    0  0.00000000000E+00  0.00000000000E+00  0.74505805969E-08  0.10566000000E+00  0.10566000000E+00 0.  1.
     999900   -1    0    0    0    0 -0.00000000000E+00 -0.00000000000E+00 -0.74505805969E-08  0.93827000000E+00  0.93827000000E+00 0. -1.
     999902    2    1    2    0    0  0.86509526033E-02 -0.76980891459E-02 -0.93482822041E-02  0.10290474620E+01  0.10289398374E+01 0.  0.
     999903    2    3    3    0    0 -0.29339813600E-01  0.29570327547E-01  0.12292836966E+00  0.13757152523E+00  0.45599468774E-01 0.  0.
         14    1    1    2    0    0 -0.86509526033E-02  0.76980891459E-02  0.93482822041E-02  0.14882538010E-01  0.00000000000E+00 0.  1.
     999901    1    3    3    0    0  0.37990766203E-01 -0.37268416693E-01 -0.13227665187E+00  0.89147593676E+00  0.88000000000E+00 0. -1.
        -11    1    4    4    0    0  0.28763324142E-02  0.17197540840E-01  0.11434070791E-01  0.20857319937E-01  0.51100000000E-03 0. -1.
         11    1    4    4    0    0 -0.32216146014E-01  0.12372786707E-01  0.11149429887E+00  0.11671420529E+00  0.51100000000E-03 0.  1.
</event>
<event>
 8    1  0.2091070E+004  0.1043930E+01  0.7957747E-01            NaN
         13   -1    0    0    0    0  0.00000000000E+00  0.00000000000E+00  0.74505805969E-08  0.10566000000E+00  0.10566000000E+00 0.  1.
     999900   -1    0    0    0    0 -0.00000000000E+00 -0.00000000000E+00 -0.74505805969E-08  0.93827000000E+00  0.93827000000E+00 0. -1.
     999902    2    1    2    0    0 -0.60919876377E-03 -0.54132109460E-02 -0.15443012092E-01  0.10275543901E+01  0.10274238970E+01 0.  0.
     999903    2    3    3    0    0  0.23844064700E-01  0.11235830219E+00 -0.61824110516E-01  0.13816173349E+00  0.45535881107E-01 0.  0.
         14    1    1    2    0    0  0.60919876377E-03  0.54132109460E-02  0.15443012092E-01  0.16375609862E-01  0.00000000000E+00 0.  1.
     999901    1    3    3    0    0 -0.24453263464E-01 -0.11777151314E+00  0.46381098424E-01  0.88939265664E+00  0.88000000000E+00 0.  1.
        -11    1    4    4    0    0 -0.77511611647E-03  0.59073383569E-01 -0.10126527028E-01  0.59942248223E-01  0.51100000000E-03 0.  1.
         11    1    4    4    0    0  0.24619180816E-01  0.53284918622E-01 -0.51697583488E-01  0.78219485271E-01  0.51100000000E-03 0. -1.
</event>
<event>
 8    1  0.2091070E+004  0.1043930E+01  0.7957747E-01            NaN
         13   -1    0    0    0    0  0.00000000000E+00  0.00000000000E+00  0.74505805969E-08  0.10566000000E+00  0.10566000000E+00 0. -1.
     999900   -1    0    0    0    0 -0.00000000000E+00 -0.00000000000E+00 -0.74505805969E-08  0.93827000000E+00  0.93827000000E+00 0.  1.
     999902    2    1    2    0    0  0.16456957658E-01  0.47878654004E-02  0.17512117511E-01  0.10194263397E+01  0.10191318034E+01 0.  0.
     999903    2    3    3    0    0 -0.89522760756E-01  0.55758807585E-01 -0.57668008293E-01  0.12842589691E+00  0.45213300032E-01 0.  0.
         14    1    1    2    0    0 -0.16456957658E-01 -0.47878654004E-02 -0.17512117511E-01  0.24503660342E-01  0.00000000000E+00 0.  1.
     999901    1    3    3    0    0  0.10597971841E+00 -0.50970942185E-01  0.75180125804E-01  0.89100044275E+00  0.88000000000E+00 0.  1.
        -11    1    4    4    0    0 -0.31009834908E-01  0.28231904656E-01 -0.23939360860E-03  0.41940061180E-01  0.51100000000E-03 0.  1.
         11    1    4    4    0    0 -0.58512925849E-01  0.27526902929E-01 -0.57428614685E-01  0.86485835729E-01  0.51100000000E-03 0. -1.
</event>
<event>
 8    1  0.2091070E+004  0.1043930E+01  0.7957747E-01            NaN
         13   -1    0    0    0    0  0.00000000000E+00  0.00000000000E+00  0.74505805969E-08  0.10566000000E+00  0.10566000000E+00 0. -1.
     999900   -1    0    0    0    0 -0.00000000000E+00 -0.00000000000E+00 -0.74505805969E-08  0.93827000000E+00  0.93827000000E+00 0. -1.
     999902    2    1    2    0    0  0.11742262976E-01  0.60832934824E-02 -0.49073311470E-02  0.10298243593E+01  0.10297277514E+01 0.  0.
     999903    2    3    3    0    0  0.11489506573E+00 -0.67334595073E-01 -0.13654579795E-01  0.14071964029E+00  0.43367566138E-01 0.  0.
         14    1    1    2    0    0 -0.11742262976E-01 -0.60832934824E-02  0.49073311470E-02  0.14105640658E-01  0.00000000000E+00 0. -1.
     999901    1    3    3    0    0 -0.10315280275E+00  0.73417888556E-01  0.87472486480E-02  0.88910471905E+00  0.88000000000E+00 0. -1.
        -11    1    4    4    0    0  0.47594982294E-01 -0.23956062065E-01  0.15518908935E-01  0.55500206349E-01  0.51100000000E-03 0. -1.
         11    1    4    4    0    0  0.67300083434E-01 -0.43378533009E-01 -0.29173488730E-01  0.85219433945E-01  0.51100000000E-03 0.  1.
</event>
<event>
 8    1  0.2091070E+004  0.1043930E+01  0.7957747E-01            NaN
         13   -1    0    0    0    0  0.00000000000E+00  0.00000000000E+00  0.74505805969E-08  0.10566000000E+00  0.10566000000E+00 0. -1.
     999900   -1    0    0    0    0 -0.00000000000E+00 -0.00000000000E+00 -0.74505805969E-08  0.93827000000E+00  0.93827000000E+00 0. -1.
     999902    2    1    2    0    0 -0.12749011910E-01 -0.43437059066E-02 -0.78311812981E-03  0.10304385820E+01  0.10303502574E+01 0.  0.
     999903    2    3    3    0    0 -0.77561919816E-01 -0.95599600823E-01 -0.51246905062E-01  0.14191455577E+00  0.48562956856E-01 0.  0.
         14    1    1    2    0    0  0.12749011910E-01  0.43437059066E-02  0.78311812981E-03  0.13491418002E-01  0.00000000000E+00 0.  1.
     999901    1    3    3    0    0  0.64812907906E-01  0.91255894916E-01  0.50463786933E-01  0.88852402623E+00  0.88000000000E+00 0.  1.
        -11    1    4    4    0    0 -0.47382537742E-02 -0.35145797928E-01 -0.27726531726E-02  0.35575650204E-01  0.51100000000E-03 0. -1.
         11    1    4    4    0    0 -0.72823666042E-01 -0.60453802895E-01 -0.48474251890E-01  0.10633890557E+00  0.51100000000E-03 0.  1.
</event>
<event>
 8    1  0.2091070E+004  0.1043930E+01  0.7957747E-01            NaN
         13   -1    0    0    0    0  0.00000000000E+00  0.00000000000E+00  0.74505805969E-08  0.10566000000E+00  0.10566000000E+00 0. -1.
     999900   -1    0    0    0    0 -0.00000000000E+00 -0.00000000000E+00 -0.74505805969E-08  0.93827000000E+00  0.93827000000E+00 0. -1.
     999902    2    1    2    0    0  0.86573743224E-02 -0.83962954337E-02  0.77382012220E-02  0.10296007409E+01  0.10295010238E+01 0.  0.
     999903    2    3    3    0    0 -0.52916543078E-01 -0.11702729671E+00 -0.27371907492E-01  0.14009258388E+00  0.48797151866E-01 0.  0.
         14    1    1    2    0    0 -0.86573743224E-02  0.83962954337E-02 -0.77382012220E-02  0.14329259064E-01  0.00000000000E+00 0.  1.
     999901    1    3    3    0    0  0.61573917401E-01  0.10863100128E+00  0.35110108714E-01  0.88950815706E+00  0.88000000000E+00 0. -1.
        -11    1    4    4    0    0 -0.87209145043E-02 -0.67403296344E-01 -0.28323221515E-01  0.73632361811E-01  0.51100000000E-03 0. -1.
         11    1    4    4    0    0 -0.44195628574E-01 -0.49624000368E-01  0.95131402379E-03  0.66460222065E-01  0.51100000000E-03 0.  1.
</event>
<event>
 8    1  0.2091070E+004  0.1043930E+01  0.7957747E-01            NaN
         13   -1    0    0    0    0  0.00000000000E+00  0.00000000000E+00  0.74505805969E-08  0.10566000000E+00  0.10566000000E+00 0. -1.
     999900   -1    0    0    0    0 -0.00000000000E+00 -0.00000000000E+00 -0.74505805969E-08  0.93827000000E+00  0.93827000000E+00 0. -1.
     999902    2    1    2    0    0  0.41436499888E-02 -0.12382530142E-01 -0.58703647370E-02  0.10296136433E+01  0.10295141069E+01 0.  0.
     999903    2    3    3    0    0  0.64257966065E-01 -0.36616715031E-01  0.10986776771E+00  0.13967187999E+00  0.44355807476E-01 0.  0.
         14    1    1    2    0    0 -0.41436499888E-02  0.12382530142E-01  0.58703647370E-02  0.14316356733E-01  0.00000000000E+00 0. -1.
     999901    1    3    3    0    0 -0.60114316076E-01  0.24234184889E-01 -0.11573813245E+00  0.88994176327E+00  0.88000000000E+00 0. -1.
        -11    1    4    4    0    0  0.14978725808E-01  0.10287573704E-01  0.24602647548E-01  0.30589994882E-01  0.51100000000E-03 0.  1.
         11    1    4    4    0    0  0.49279240257E-01 -0.46904288735E-01  0.85265120164E-01  0.10908188511E+00  0.51100000000E-03 0. -1.
</event>
<event>
 8    1  0.2091070E+004  0.1043930E+01  0.7957747E-01            NaN
         13   -1    0    0    0    0  0.00000000000E+00  0.00000000000E+00  0.74505805969E-08  0.10566000000E+00  0.10566000000E+00 0.  1.
     999900   -1    0    0    0    0 -0.00000000000E+00 -0.00000000000E+00 -0.74505805969E-08  0.93827000000E+00  0.93827000000E+00 0. -1.
     999902    2    1    2    0    0 -0.55918443722E-02 -0.12386772967E-01 -0.20637250897E-02  0.10301837340E+01  0.10300920182E+01 0.  0.
     999903    2    3    3    0    0  0.48957500524E-01  0.11894136544E+00 -0.15854217803E-01  0.13866094199E+00  0.49311411874E-01 0.  0.
         14    1    1    2    0    0  0.55918443722E-02  0.12386772967E-01  0.20637250897E-02  0.13746266012E-01  0.00000000000E+00 0. -1.
     999901    1    3    3    0    0 -0.54549344896E-01 -0.13132813841E+00  0.13790492713E-01  0.89152279200E+00  0.88000000000E+00 0. -1.
        -11    1    4    4    0    0  0.33348352746E-01  0.96578348766E-01  0.79147393629E-02  0.10248118999E+00  0.51100000000E-03 0. -1.
         11    1    4    4    0    0  0.15609147778E-01  0.22363016673E-01 -0.23768957166E-01  0.36179752000E-01  0.51100000000E-03 0.  1.
</event>
<event>
 8    1  0.2091070E+004  0.1043930E+01  0.7957747E-01            NaN
         13   -1    0    0    0    0  0.00000000000E+00  0.00000000000E+00  0.74505805969E-08  0.10566000000E+00  0.10566000000E+00 0.  1.
     999900   -1    0    0    0    0 -0.00000000000E+00 -0.00000000000E+00 -0.74505805969E-08  0.93827000000E+00  0.93827000000E+00 0. -1.
     999902    2    1    2    0    0  0.94299392800E-02  0.10122761683E-01  0.22889439880E-02  0.10299073995E+01  0.10298119335E+01 0.  0.
     999903    2    3    3    0    0 -0.39078324195E-01 -0.11842986765E+00 -0.38523518628E-01  0.13831080509E+00  0.45750063891E-01 0.  0.
         14    1    1    2    0    0 -0.94299392800E-02 -0.10122761683E-01 -0.22889439880E-02  0.14022600454E-01  0.00000000000E+00 0. -1.
     999901    1    3    3    0    0  0.48508263475E-01  0.12855262933E+00  0.40812462616E-01  0.89159659445E+00  0.88000000000E+00 0.  1.
        -11    1    4    4    0    0 -0.85079072173E-02 -0.91947866298E-01 -0.25096397167E-01  0.95691613393E-01  0.51100000000E-03 0. -1.
         11    1    4    4    0    0 -0.30570416978E-01 -0.26482001347E-01 -0.13427121461E-01  0.42619191701E-01  0.51100000000E-03 0.  1.
</event>
<event>
 8    1  0.2091070E+004  0.1043930E+01  0.7957747E-01            NaN
         13   -1    0    0    0    0  0.00000000000E+00  0.00000000000E+00  0.74505805969E-08  0.10566000000E+00  0.10566000000E+00 0. -1.
     999900   -1    0    0    0    0 -0.00000000000E+00 -0.00000000000E+00 -0.74505805969E-08  0.93827000000E+00  0.93827000000E+00 0. -1.
     999902    2    1    2    0    0 -0.13796530858E-01 -0.92495148420E-02  0.20858284365E-02  0.10271893767E+01  0.10270529524E+01 0.  0.
     999903    2    3    3    0    0 -0.78521979999E-01 -0.66419532350E-01  0.82397264336E-01  0.13932242641E+00  0.45212539296E-01 0.  0.
         14    1    1    2    0    0  0.13796530858E-01  0.92495148420E-02 -0.20858284365E-02  0.16740623309E-01  0.00000000000E+00 0. -1.
     999901    1    3    3    0    0  0.64725449141E-01  0.57170017508E-01 -0.80311435899E-01  0.88786695028E+00  0.88000000000E+00 0. -1.
        -11    1    4    4    0    0 -0.58944784730E-01 -0.69214073639E-01  0.76105180180E-01  0.11856363358E+00  0.51100000000E-03 0.  1.
         11    1    4    4    0    0 -0.19577195269E-01  0.27945412889E-02  0.62920841556E-02  0.20758792827E-01  0.51100000000E-03 0. -1.
</event>
<event>
 8    1  0.2091070E+004  0.1043930E+01  0.7957747E-01            NaN
         13   -1    0    0    0    0  0.00000000000E+00  0.00000000000E+00  0.74505805969E-08  0.10566000000E+00  0.10566000000E+00 0. -1.
     999900   -1    0    0    0    0 -0.00000000000E+00 -0.00000000000E+00 -0.74505805969E-08  0.93827000000E+00  0.93827000000E+00 0. -1.
     999902    2    1    2    0    0 -0.31008975203E-02  0.13769376148E-01  0.13557224911E-01  0.10243593681E+01  0.10241724002E+01 0.  0.
     999903    2    3    3    0    0  0.21350832238E-01 -0.10710183950E+00 -0.60319059493E-01  0.13269494511E+00  0.45198423182E-01 0.  0.
         14    1    1    2    0    0  0.31008975203E-02 -0.13769376148E-01 -0.13557224911E-01  0.19570631881E-01  0.00000000000E+00 0. -1.
     999901    1    3    3    0    0 -0.24451729759E-01  0.12087121565E+00  0.73876284404E-01  0.89166442301E+00  0.88000000000E+00 0. -1.
        -11    1    4    4    0    0  0.21218964115E-01 -0.90962469415E-01 -0.67276251096E-01  0.11511199053E+00  0.51100000000E-03 0.  1.
         11    1    4    4    0    0  0.13186812332E-03 -0.16139370086E-01  0.69571916027E-02  0.17582954586E-01  0.51100000000E-03 0. -1.
</event>
<event>
 8    1  0.2091070E+004  0.1043930E+01  0.7957747E-01            NaN
         13   -1    0    0    0    0  0.00000000000E+00  0.00000000000E+00  0.74505805969E-08  0.10566000000E+00  0.10566000000E+00 0. -1.
     999900   -1    0    0    0    0 -0.00000000000E+00 -0.00000000000E+00 -0.74505805969E-08  0.93827000000E+00  0.93827000000E+00 0. -1.
     999902    2    1    2    0    0  0.61159031237E-03  0.12302180946E-01 -0.62114746660E-02  0.10301350692E+01  0.10300426985E+01 0.  0.
     999903    2    3    3    0    0 -0.10875048981E+00 -0.69611053940E-01  0.25444047596E-01  0.13902794055E+00  0.44821878915E-01 0.  0.
         14    1    1    2    0    0 -0.61159031237E-03 -0.12302180946E-01  0.62114746660E-02  0.13794930818E-01  0.00000000000E+00 0. -1.
     999901    1    3    3    0    0  0.10936208012E+00  0.81913234886E-01 -0.31655522262E-01  0.89110712864E+00  0.88000000000E+00 0.  1.
        -11    1    4    4    0    0 -0.41943620463E-01 -0.48379301193E-01 -0.11751470883E-02  0.64042690239E-01  0.51100000000E-03 0.  1.
         11    1    4    4    0    0 -0.66806869348E-01 -0.21231752747E-01  0.26619194684E-01  0.74985250306E-01  0.51100000000E-03 0. -1.
</event>
<event>
 8    1  0.2091070E+004  0.1043930E+01  0.7957747E-01            NaN
         13   -1    0    0    0    0  0.00000000000E+00  0.00000000000E+00  0.74505805969E-08  0.10566000000E+00  0.10566000000E+00 0.  1.
     999900   -1    0    0    0    0 -0.00000000000E+00 -0.00000000000E+00 -0.74505805969E-08  0.93827000000E+00  0.93827000000E+00 0.  1.
     999902    2    1    2    0    0  0.11204635736E-01  0.46581359724E-03 -0.74734821536E-02  0.10304535843E+01  0.10303654573E+01 0.  0.
     999903    2    3    3    0    0  0.42460249811E-01  0.51958856583E-02  0.12532271940E+00  0.13992895347E+00  0.45215682879E-01 0.  0.
         14    1    1    2    0    0 -0.11204635736E-01 -0.46581359724E-03  0.74734821536E-02  0.13476415687E-01  0.00000000000E+00 0.  1.
     999901    1    3    3    0    0 -0.31255614075E-01 -0.47300720610E-02 -0.13279620156E+00  0.89052463084E+00  0.88000000000E+00 0.  1.
        -11    1    4    4    0    0  0.18114827944E-01 -0.17431475286E-01  0.30972582757E-01  0.39894427252E-01  0.51100000000E-03 0. -1.
         11    1    4    4    0    0  0.24345421867E-01  0.22627360944E-01  0.94350136646E-01  0.10003452622E+00  0.51100000000E-03 0.  1.
</event>
<event>
 8    1  0.2091070E+004  0.1043930E+01  0.7957747E-01            NaN
         13   -1    0    0    0    0  0.00000000000E+00  0.00000000000E+00  0.74505805969E-08  0.10566000000E+00  0.10566000000E+00 0.  1.
     999900   -1    0    0    0    0 -0.00000000000E+00 -0.00000000000E+00 -0.74505805969E-08  0.93827000000E+00  0.93827000000E+00 0. -1.
     999902    2    1    2    0    0 -0.10243076336E-01 -0.30980478460E-02 -0.84417874801E-02  0.10302998023E+01  0.10302096390E+01 0.  0.
     999903    2    3    3    0    0 -0.29207193904E-01 -0.47677325623E-01 -0.12211968731E+00  0.14166623628E+00  0.45054599314E-01 0.  0.
         14    1    1    2    0    0  0.10243076336E-01  0.30980478460E-02  0.84417874801E-02  0.13630197693E-01  0.00000000000E+00 0.  1.
     999901    1    3    3    0    0  0.18964117567E-01  0.44579277777E-01  0.11367789983E+00  0.88863356603E+00  0.88000000000E+00 0.  1.
        -11    1    4    4    0    0  0.48698945040E-02 -0.25232884831E-01 -0.75261533822E-01  0.79529704787E-01  0.51100000000E-03 0.  1.
         11    1    4    4    0    0 -0.34077088408E-01 -0.22444440792E-01 -0.46858153485E-01  0.62136531492E-01  0.51100000000E-03 0. -1.
</event>
<event>
 8    1  0.2091070E+004  0.1043930E+01  0.7957747E-01            NaN
         13   -1    0    0    0    0  0.00000000000E+00  0.00000000000E+00  0.74505805969E-08  0.10566000000E+00  0.10566000000E+00 0.  1.
     999900   -1    0    0    0    0 -0.00000000000E+00 -0.00000000000E+00 -0.74505805969E-08  0.93827000000E+00  0.93827000000E+00 0.  1.
     999902    2    1    2    0    0  0.12777381416E-01  0.62156974997E-02 -0.26943503024E-04  0.10297209502E+01  0.10296229106E+01 0.  0.
     999903    2    3    3    0    0 -0.50792664572E-01  0.11239475571E-01  0.12094154241E+00  0.13915946230E+00  0.45080801693E-01 0.  0.
         14    1    1    2    0    0 -0.12777381416E-01 -0.62156974997E-02  0.26943503024E-04  0.14209049835E-01  0.00000000000E+00 0.  1.
     999901    1    3    3    0    0  0.63570045987E-01 -0.50237780712E-02 -0.12096848591E+00  0.89056148787E+00  0.88000000000E+00 0.  1.
        -11    1    4    4    0    0 -0.47471366552E-01  0.47197031621E-02  0.54988214192E-01  0.72799526518E-01  0.51100000000E-03 0. -1.
         11    1    4    4    0    0 -0.33212980197E-02  0.65197724088E-02  0.65953328215E-01  0.66359935777E-01  0.51100000000E-03 0.  1.
</event>
<event>
 7    1  0.2091070E+004  0.1043930E+01  0.7957747E-01            NaN
         13   -1    0    0    0    0  0.00000000000E+00  0.00000000000E+00  0.74505805969E-08  0.10566000000E+00  0.10566000000E+00 0.  1.
     999900   -1    0    0    0    0 -0.00000000000E+00 -0.00000000000E+00 -0.74505805969E-08  0.93827000000E+00  0.93827000000E+00 0.  1.
     999902    2    1    2    0    0  0.12894890284E-01 -0.65805922907E-02  0.39773809557E-02  0.10289166077E+01  0.10288070682E+01 0.  0.
         14    1    1    2    0    0 -0.12894890284E-01  0.65805922907E-02 -0.39773809557E-02  0.15013392341E-01  0.00000000000E+00 0. -1.
     999901    1    3    3    0    0 -0.12155777972E+00  0.22418704937E-01 -0.21506257411E-01  0.88889898821E+00  0.88000000000E+00 0.  1.
        -11    1    3    3    0    0  0.39845272926E-01 -0.10179870281E-01  0.99204319298E-02  0.42307819894E-01  0.51100000000E-03 0. -1.
         11    1    3    3    0    0  0.94607397078E-01 -0.18819426947E-01  0.15563206437E-01  0.97709799549E-01  0.51100000000E-03 0.  1.
</event>
<event>
 8    1  0.2091070E+004  0.1043930E+01  0.7957747E-01            NaN
         13   -1    0    0    0    0  0.00000000000E+00  0.00000000000E+00  0.74505805969E-08  0.10566000000E+00  0.10566000000E+00 0.  1.
     999900   -1    0    0    0    0 -0.00000000000E+00 -0.00000000000E+00 -0.74505805969E-08  0.93827000000E+00  0.93827000000E+00 0. -1.
     999902    2    1    2    0    0  0.38350732765E-02 -0.10336782735E-01 -0.82832156854E-02  0.10301398395E+01  0.10300475331E+01 0.  0.
     999903    2    3    3    0    0 -0.92778467577E-01  0.18519256816E-01 -0.93110681700E-01  0.14032944044E+00  0.45518632326E-01 0.  0.
         14    1    1    2    0    0 -0.38350732765E-02  0.10336782735E-01  0.82832156854E-02  0.13790160494E-01  0.00000000000E+00 0. -1.
     999901    1    3    3    0    0  0.96613540853E-01 -0.28856039551E-01  0.84827466015E-01  0.88981039907E+00  0.88000000000E+00 0.  1.
        -11    1    4    4    0    0 -0.27370694993E-01  0.21130118177E-01 -0.53847222714E-01  0.63995479165E-01  0.51100000000E-03 0. -1.
         11    1    4    4    0    0 -0.65407772584E-01 -0.26108613616E-02 -0.39263458986E-01  0.76333961275E-01  0.51100000000E-03 0.  1.
</event>
<event>
 8    1  0.2091070E+004  0.1043930E+01  0.7957747E-01            NaN
         13   -1    0    0    0    0  0.00000000000E+00  0.00000000000E+00  0.74505805969E-08  0.10566000000E+00  0.10566000000E+00 0. -1.
     999900   -1    0    0    0    0 -0.00000000000E+00 -0.00000000000E+00 -0.74505805969E-08  0.93827000000E+00  0.93827000000E+00 0. -1.
     999902    2    1    2    0    0  0.11685263447E-01  0.14314154987E-01 -0.22186665877E-02  0.10253191726E+01  0.10251502538E+01 0.  0.
     999903    2    3    3    0    0  0.59454521660E-01  0.10963613112E+00  0.38971309677E-01  0.13792704096E+00  0.44160890579E-01 0.  0.
         14    1    1    2    0    0 -0.11685263447E-01 -0.14314154987E-01  0.22186665877E-02  0.18610827393E-01  0.00000000000E+00 0. -1.
     999901    1    3    3    0    0 -0.47769258213E-01 -0.95321976135E-01 -0.41189976265E-01  0.88739213165E+00  0.88000000000E+00 0. -1.
        -11    1    4    4    0    0  0.32430643299E-01  0.19206029911E-01  0.14818200563E-01  0.40502572741E-01  0.51100000000E-03 0. -1.
         11    1    4    4    0    0  0.27023878361E-01  0.90430101212E-01  0.24153109115E-01  0.97424468219E-01  0.51100000000E-03 0.  1.
</event>
<event>
 8    1  0.2091070E+004  0.1043930E+01  0.7957747E-01            NaN
         13   -1    0    0    0    0  0.00000000000E+00  0.00000000000E+00  0.74505805969E-08  0.10566000000E+00  0.10566000000E+00 0.  1.
     999900   -1    0    0    0    0 -0.00000000000E+00 -0.00000000000E+00 -0.74505805969E-08  0.93827000000E+00  0.93827000000E+00 0. -1.
     999902    2    1    2    0    0  0.24991682770E-02  0.64732278911E-02  0.11562701826E-01  0.10304450234E+01  0.10303567836E+01 0.  0.
     999903    2    3    3    0    0  0.98306133945E-01  0.65101232844E-01 -0.61192821232E-01  0.14032728746E+00  0.45220788871E-01 0.  0.
         14    1    1    2    0    0 -0.24991682770E-02 -0.64732278911E-02 -0.11562701826E-01  0.13484976637E-01  0.00000000000E+00 0. -1.
     999901    1    3    3    0    0 -0.95806965668E-01 -0.58628004953E-01  0.72755523058E-01  0.89011773590E+00  0.88000000000E+00 0.  1.
        -11    1    4    4    0    0  0.29942336658E-01  0.46703632410E-01 -0.26314203604E-01  0.61404163028E-01  0.51100000000E-03 0. -1.
         11    1    4    4    0    0  0.68363797287E-01  0.18397600434E-01 -0.34878617628E-01  0.78923124431E-01  0.51100000000E-03 0.  1.
</event>
<event>
 8    1  0.2091070E+004  0.1043930E+01  0.7957747E-01            NaN
         13   -1    0    0    0    0  0.00000000000E+00  0.00000000000E+00  0.74505805969E-08  0.10566000000E+00  0.10566000000E+00 0.  1.
     999900   -1    0    0    0    0 -0.00000000000E+00 -0.00000000000E+00 -0.74505805969E-08  0.93827000000E+00  0.93827000000E+00 0. -1.
     999902    2    1    2    0    0 -0.91340244796E-02 -0.12531632110E-01 -0.58750497617E-02  0.10273472253E+01  0.10272133824E+01 0.  0.
     999903    2    3    3    0    0  0.56506321478E-01 -0.11527448914E+00  0.25783331612E-01  0.13837759546E+00  0.44748257201E-01 0.  0.
         14    1    1    2    0    0  0.91340244796E-02  0.12531632110E-01  0.58750497617E-02  0.16582774685E-01  0.00000000000E+00 0. -1.
     999901    1    3    3    0    0 -0.65640345957E-01  0.10274285703E+00 -0.31658381374E-01  0.88896962985E+00  0.88000000000E+00 0. -1.
        -11    1    4    4    0    0  0.12410933005E-01 -0.75213413591E-01  0.17628610534E-01  0.78243963809E-01  0.51100000000E-03 0.  1.
         11    1    4    4    0    0  0.44095388473E-01 -0.40061075553E-01  0.81547210775E-02  0.60133631654E-01  0.51100000000E-03 0. -1.
</event>
<event>
 8    1  0.2091070E+004  0.1043930E+01  0.7957747E-01            NaN
         13   -1    0    0    0    0  0.00000000000E+00  0.00000000000E+00  0.74505805969E-08  0.10566000000E+00  0.10566000000E+00 0. -1.
     999900   -1    0    0    0    0 -0.00000000000E+00 -0.00000000000E+00 -0.74505805969E-08  0.93827000000E+00  0.93827000000E+00 0.  1.
     999902    2    1    2    0    0 -0.73219449446E-02  0.79923059619E-02 -0.79687204833E-02  0.10304768094E+01  0.10303889878E+01 0.  0.
     999903    2    3    3    0    0 -0.64683185637E-01  0.39867366042E-01 -0.11165457366E+00  0.14196283224E+00  0.43742205449E-01 0.  0.
         14    1    1    2    0    0  0.73219449446E-02 -0.79923059619E-02  0.79687204833E-02  0.13453190644E-01  0.00000000000E+00 0. -1.
     999901    1    3    3    0    0  0.57361240693E-01 -0.31875060080E-01  0.10368585318E+00  0.88851397712E+00  0.88000000000E+00 0. -1.
        -11    1    4    4    0    0 -0.34214074932E-01 -0.19086946908E-02 -0.31332001746E-01  0.46434916746E-01  0.51100000000E-03 0.  1.
         11    1    4    4    0    0 -0.30469110705E-01  0.41776060733E-01 -0.80322571916E-01  0.95527915489E-01  0.51100000000E-03 0. -1.
</event>
<event>
 8    1  0.2091070E+004  0.1043930E+01  0.7957747E-01            NaN
         13   -1    0    0    0    0  0.00000000000E+00  0.00000000000E+00  0.74505805969E-08  0.10566000000E+00  0.10566000000E+00 0. -1.
     999900   -1    0    0    0    0 -0.00000000000E+00 -0.00000000000E+00 -0.74505805969E-08  0.93827000000E+00  0.93827000000E+00 0. -1.
     999902    2    1    2    0    0 -0.35078023641E-02  0.10260766570E-01 -0.75310735916E-02  0.10307275352E+01  0.10306429773E+01 0.  0.
     999903    2    3    3    0    0 -0.68819440723E-01  0.57789635545E-01 -0.10065660869E+00  0.14213484514E+00  0.44663227980E-01 0.  0.
         14    1    1    2    0    0  0.35078023641E-02 -0.10260766570E-01  0.75310735916E-02  0.13202464826E-01  0.00000000000E+00 0. -1.
     999901    1    3    3    0    0  0.65311638358E-01 -0.47528868975E-01  0.93125535095E-01  0.88859269003E+00  0.88000000000E+00 0.  1.
        -11    1    4    4    0    0 -0.28696029106E-01  0.45587996038E-01 -0.35053251532E-01  0.64270670085E-01  0.51100000000E-03 0. -1.
         11    1    4    4    0    0 -0.40123411617E-01  0.12201639507E-01 -0.65603357155E-01  0.77864175058E-01  0.51100000000E-03 0.  1.
</event>
<event>
 8    1  0.2091070E+004  0.1043930E+01  0.7957747E-01            NaN
         13   -1    0    0    0    0  0.00000000000E+00  0.00000000000E+00  0.74505805969E-08  0.10566000000E+00  0.10566000000E+00 0.  1.
     999900   -1    0    0    0    0 -0.00000000000E+00 -0.00000000000E+00 -0.74505805969E-08  0.93827000000E+00  0.93827000000E+00 0.  1.
     999902    2    1    2    0    0  0.58148016156E-02  0.10709654822E-01 -0.69978039232E-02  0.10298773176E+01  0.10297814386E+01 0.  0.
     999903    2    3    3    0    0  0.46933552050E-03  0.93953647097E-01 -0.96410109669E-01  0.14142208701E+00  0.43333467082E-01 0.  0.
         14    1    1    2    0    0 -0.58148016156E-02 -0.10709654822E-01  0.69978039232E-02  0.14052682448E-01  0.00000000000E+00 0.  1.
     999901    1    3    3    0    0  0.53454660951E-02 -0.83243992274E-01  0.89412305746E-01  0.88845523054E+00  0.88000000000E+00 0. -1.
        -11    1    4    4    0    0  0.76504943242E-02  0.36850541338E-01 -0.66853788522E-01  0.76721461281E-01  0.51100000000E-03 0.  1.
         11    1    4    4    0    0 -0.71811588037E-02  0.57103105758E-01 -0.29556321147E-01  0.64700625729E-01  0.51100000000E-03 0. -1.
</event>
<event>
 8    1  0.2091070E+004  0.1043930E+01  0.7957747E-01            NaN
         13   -1    0    0    0    0  0.00000000000E+00  0.00000000000E+00  0.74505805969E-08  0.10566000000E+00  0.10566000000E+00 0. -1.
     999900   -1    0    0    0    0 -0.00000000000E+00 -0.00000000000E+00 -0.74505805969E-08  0.93827000000E+00  0.93827000000E+00 0. -1.
     999902    2    1    2    0    0 -0.10471191807E-01  0.64769949056E-02  0.63496222005E-02  0.10300766602E+01  0.10299835003E+01 0.  0.
     999903    2    3    3    0    0  0.33832346608E-01  0.40715703994E-01  0.12239604756E+00  0.14069380366E+00  0.44850392415E-01 0.  0.
         14    1    1    2    0    0  0.10471191807E-01 -0.64769949056E-02 -0.63496222005E-02  0.13853339776E-01  0.00000000000E+00 0. -1.
     999901    1    3    3    0    0 -0.44303538416E-01 -0.34238709089E-01 -0.11604642536E+00  0.88938285657E+00  0.88000000000E+00 0.  1.
        -11    1    4    4    0    0  0.44741504333E-01  0.34156801339E-01  0.93911289084E-01  0.10949009373E+00  0.51100000000E-03 0. -1.
         11    1    4    4    0    0 -0.10909157725E-01  0.65589026555E-02  0.28484758478E-01  0.31203709922E-01  0.51100000000E-03 0.  1.
</event>
<event>
 8    1  0.2091070E+004  0.1043930E+01  0.7957747E-01            NaN
         13   -1    0    0    0    0  0.00000000000E+00  0.00000000000E+00  0.74505805969E-08  0.10566000000E+00  0.10566000000E+00 0. -1.
     999900   -1    0    0    0    0 -0.00000000000E+00 -0.00000000000E+00 -0.74505805969E-08  0.93827000000E+00  0.93827000000E+00 0. -1.
     999902    2    1    2    0    0 -0.76815767589E-02  0.70307435531E-02 -0.87654670994E-02  0.10303185567E+01  0.10302286430E+01 0.  0.
     999903    2    3    3    0    0  0.40254944213E-01 -0.52230826009E-01 -0.11529240472E+00  0.14062319750E+00  0.46195512423E-01 0.  0.
         14    1    1    2    0    0  0.76815767589E-02 -0.70307435531E-02  0.87654670994E-02  0.13611443343E-01  0.00000000000E+00 0. -1.
     999901    1    3    3    0    0 -0.47936520972E-01  0.59261569562E-01  0.10652693763E+00  0.88969535916E+00  0.88000000000E+00 0.  1.
        -11    1    4    4    0    0  0.46491838544E-01 -0.31738788531E-01 -0.98293563641E-01  0.11327280134E+00  0.51100000000E-03 0.  1.
         11    1    4    4    0    0 -0.62368943313E-02 -0.20492037478E-01 -0.16998841083E-01  0.27350396160E-01  0.51100000000E-03 0. -1.
</event>
<event>
 8    1  0.2091070E+004  0.1043930E+01  0.7957747E-01            NaN
         13   -1    0    0    0    0  0.00000000000E+00  0.00000000000E+00  0.74505805969E-08  0.10566000000E+00  0.10566000000E+00 0. -1.
     999900   -1    0    0    0    0 -0.00000000000E+00 -0.00000000000E+00 -0.74505805969E-08  0.93827000000E+00  0.93827000000E+00 0. -1.
     999902    2    1    2    0    0 -0.11519210519E-02  0.49257621076E-03 -0.15552507319E-01  0.10283271145E+01  0.10282087358E+01 0.  0.
     999903    2    3    3    0    0 -0.16288219693E-01 -0.10517292819E+00 -0.79804088569E-01  0.13955123042E+00  0.42180593085E-01 0.  0.
         14    1    1    2    0    0  0.11519210519E-02 -0.49257621076E-03  0.15552507319E-01  0.15602885545E-01  0.00000000000E+00 0. -1.
     999901    1    3    3    0    0  0.15136298642E-01  0.10566550440E+00  0.64251581250E-01  0.88877588404E+00  0.88000000000E+00 0. -1.
        -11    1    4    4    0    0 -0.27371873458E-01 -0.75540727366E-01 -0.43408701440E-01  0.91324681381E-01  0.51100000000E-03 0.  1.
         11    1    4    4    0    0  0.11083653764E-01 -0.29632200825E-01 -0.36395387129E-01  0.48226549034E-01  0.51100000000E-03 0. -1.
</event>
<event>
 8    1  0.2091070E+004  0.1043930E+01  0.7957747E-01            NaN
         13   -1    0    0    0    0  0.00000000000E+00  0.00000000000E+00  0.74505805969E-08  0.10566000000E+00  0.10566000000E+00 0.  1.
     999900   -1    0    0    0    0 -0.00000000000E+00 -0.00000000000E+00 -0.74505805969E-08  0.93827000000E+00  0.93827000000E+00 0. -1.
     999902    2    1    2    0    0  0.15780442772E-01 -0.11797774026E-02  0.34255049664E-02  0.10277390046E+01  0.10276114602E+01 0.  0.
     999903    2    3    3    0    0  0.67997871037E-01 -0.10329313166E+00  0.45307948905E-01  0.13930896453E+00  0.45398192157E-01 0.  0.
         14    1    1    2    0    0 -0.15780442772E-01  0.11797774026E-02 -0.34255049664E-02  0.16190995432E-01  0.00000000000E+00 0. -1.
     999901    1    3    3    0    0 -0.52217428265E-01  0.10211335425E+00 -0.41882443939E-01  0.88843004004E+00  0.88000000000E+00 0. -1.
        -11    1    4    4    0    0  0.42306463140E-01 -0.95727396923E-01  0.39726492224E-01  0.11194653479E+00  0.51100000000E-03 0. -1.
         11    1    4    4    0    0  0.25691407897E-01 -0.75657347340E-02  0.55814566816E-02  0.27362429744E-01  0.51100000000E-03 0.  1.
</event>
<event>
 8    1  0.2091070E+004  0.1043930E+01  0.7957747E-01            NaN
         13   -1    0    0    0    0  0.00000000000E+00  0.00000000000E+00  0.74505805969E-08  0.10566000000E+00  0.10566000000E+00 0. -1.
     999900   -1    0    0    0    0 -0.00000000000E+00 -0.00000000000E+00 -0.74505805969E-08  0.93827000000E+00  0.93827000000E+00 0.  1.
     999902    2    1    2    0    0 -0.73694044483E-02  0.11773956219E-01 -0.24358098059E-02  0.10298279669E+01  0.10297314087E+01 0.  0.
     999903    2    3    3    0    0  0.55192507849E-02 -0.10505042412E+00 -0.78197482694E-01  0.13878706757E+00  0.45617431835E-01 0.  0.
         14    1    1    2    0    0  0.73694044483E-02 -0.11773956219E-01  0.24358098059E-02  0.14102033059E-01  0.00000000000E+00 0. -1.
     999901    1    3    3    0    0 -0.12888655233E-01  0.11682438034E+00  0.75761672888E-01  0.89104089937E+00  0.88000000000E+00 0. -1.
        -11    1    4    4    0    0 -0.10858306165E-02 -0.41651649582E-01 -0.58969990828E-01  0.72206370081E-01  0.51100000000E-03 0. -1.
         11    1    4    4    0    0  0.66050814014E-02 -0.63398774540E-01 -0.19227491866E-01  0.66580697488E-01  0.51100000000E-03 0.  1.
</event>
<event>
 8    1  0.2091070E+004  0.1043930E+01  0.7957747E-01            NaN
         13   -1    0    0    0    0  0.00000000000E+00  0.00000000000E+00  0.74505805969E-08  0.10566000000E+00  0.10566000000E+00 0.  1.
     999900   -1    0    0    0    0 -0.00000000000E+00 -0.00000000000E+00 -0.74505805969E-08  0.93827000000E+00  0.93827000000E+00 0. -1.
     999902    2    1    2    0    0 -0.99426572033E-03 -0.13652962679E-01  0.16227779350E-03  0.10302399201E+01  0.10301489575E+01 0.  0.
     999903    2    3    3    0    0  0.11438562314E+00  0.44897374324E-01  0.48073954655E-01  0.13948956813E+00  0.45237036794E-01 0.  0.
         14    1    1    2    0    0  0.99426572033E-03  0.13652962679E-01 -0.16227779350E-03  0.13690079924E-01  0.00000000000E+00 0. -1.
     999901    1    3    3    0    0 -0.11537988886E+00 -0.58550337003E-01 -0.47911676862E-01  0.89075035195E+00  0.88000000000E+00 0. -1.
        -11    1    4    4    0    0  0.87645918134E-01  0.47745632226E-01  0.51609841365E-01  0.11236231223E+00  0.51100000000E-03 0.  1.
         11    1    4    4    0    0  0.26739705006E-01 -0.28482579026E-02 -0.35358867092E-02  0.27127255901E-01  0.51100000000E-03 0. -1.
</event>
<event>
 8    1  0.2091070E+004  0.1043930E+01  0.7957747E-01            NaN
         13   -1    0    0    0    0  0.00000000000E+00  0.00000000000E+00  0.74505805969E-08  0.10566000000E+00  0.10566000000E+00 0. -1.
     999900   -1    0    0    0    0 -0.00000000000E+00 -0.00000000000E+00 -0.74505805969E-08  0.93827000000E+00  0.93827000000E+00 0.  1.
     999902    2    1    2    0    0 -0.12624174335E-01 -0.34073851906E-02  0.50038574864E-03  0.10308444951E+01  0.10307614383E+01 0.  0.
     999903    2    3    3    0    0  0.12994831047E-01 -0.10915511365E+00 -0.76709980248E-01  0.14078811708E+00  0.43048442167E-01 0.  0.
         14    1    1    2    0    0  0.12624174335E-01  0.34073851906E-02 -0.50038574864E-03  0.13085504857E-01  0.00000000000E+00 0. -1.
     999901    1    3    3    0    0 -0.25619005382E-01  0.10574772845E+00  0.77210365997E-01  0.89005637806E+00  0.88000000000E+00 0.  1.
        -11    1    4    4    0    0 -0.45603088034E-03 -0.54801408379E-01 -0.62284913663E-01  0.82964293015E-01  0.51100000000E-03 0.  1.
         11    1    4    4    0    0  0.13450861928E-01 -0.54353705266E-01 -0.14425066586E-01  0.57823824067E-01  0.51100000000E-03 0. -1.
</event>
<event>
 8    1  0.2091070E+004  0.1043930E+01  0.7957747E-01            NaN
         13   -1    0    0    0    0  0.00000000000E+00  0.00000000000E+00  0.74505805969E-08  0.10566000000E+00  0.10566000000E+00 0.  1.
     999900   -1    0    0    0    0 -0.00000000000E+00 -0.00000000000E+00 -0.74505805969E-08  0.93827000000E+00  0.93827000000E+00 0. -1.
     999902    2    1    2    0    0  0.49041918950E-02 -0.87520016456E-02 -0.96221722002E-02  0.10300291069E+01  0.10299353020E+01 0.  0.
     999903    2    3    3    0    0  0.10133817812E+00 -0.13294425270E-01 -0.86484292257E-01  0.14141899397E+00  0.45537138268E-01 0.  0.
         14    1    1    2    0    0 -0.49041918950E-02  0.87520016456E-02  0.96221722002E-02  0.13900893094E-01  0.00000000000E+00 0.  1.
     999901    1    3    3    0    0 -0.96433986221E-01  0.45424236249E-02  0.76862120056E-01  0.88861011294E+00  0.88000000000E+00 0.  1.
        -11    1    4    4    0    0  0.67772068779E-01 -0.25144256013E-01 -0.74623255422E-01  0.10389503495E+00  0.51100000000E-03 0. -1.
         11    1    4    4    0    0  0.33566109337E-01  0.11849830743E-01 -0.11861036834E-01  0.37523959018E-01  0.51100000000E-03 0.  1.
</event>
<event>
 8    1  0.2091070E+004  0.1043930E+01  0.7957747E-01            NaN
         13   -1    0    0    0    0  0.00000000000E+00  0.00000000000E+00  0.74505805969E-08  0.10566000000E+00  0.10566000000E+00 0.  1.
     999900   -1    0    0    0    0 -0.00000000000E+00 -0.00000000000E+00 -0.74505805969E-08  0.93827000000E+00  0.93827000000E+00 0.  1.
     999902    2    1    2    0    0 -0.73144967811E-02  0.11671583998E-01 -0.25750774801E-02  0.10299171930E+01  0.10298218611E+01 0.  0.
     999903    2    3    3    0    0  0.31281345148E-01 -0.11813355538E+00 -0.46956758668E-01  0.13845280961E+00  0.45057561432E-01 0.  0.
         14    1    1    2    0    0  0.73144967811E-02 -0.11671583998E-01  0.25750774801E-02  0.14012807007E-01  0.00000000000E+00 0.  1.
     999901    1    3    3    0    0 -0.38595841929E-01  0.12980513938E+00  0.44381681188E-01  0.89146438339E+00  0.88000000000E+00 0. -1.
        -11    1    4    4    0    0  0.17261574214E-01 -0.39994187665E-01 -0.39343515676E-01  0.58699832522E-01  0.51100000000E-03 0.  1.
         11    1    4    4    0    0  0.14019770934E-01 -0.78139367714E-01 -0.76132429921E-02  0.79752977084E-01  0.51100000000E-03 0. -1.
</event>
<event>
 8    1  0.2091070E+004  0.1043930E+01  0.7957747E-01            NaN
         13   -1    0    0    0    0  0.00000000000E+00  0.00000000000E+00  0.74505805969E-08  0.10566000000E+00  0.10566000000E+00 0.  1.
     999900   -1    0    0    0    0 -0.00000000000E+00 -0.00000000000E+00 -0.74505805969E-08  0.93827000000E+00  0.93827000000E+00 0.  1.
     999902    2    1    2    0    0  0.14373824041E-02 -0.12431953210E-01  0.59755778364E-02  0.10300617968E+01  0.10299684355E+01 0.  0.
     999903    2    3    3    0    0  0.11387530024E+00  0.63284077688E-01  0.23691891070E-01  0.13950631262E+00  0.43911810071E-01 0.  0.
         14    1    1    2    0    0 -0.14373824041E-02  0.12431953210E-01 -0.59755778364E-02  0.13868203174E-01  0.00000000000E+00 0.  1.
     999901    1    3    3    0    0 -0.11243791784E+00 -0.75716030898E-01 -0.17716313233E-01  0.89055548421E+00  0.88000000000E+00 0.  1.
        -11    1    4    4    0    0  0.48115406989E-01  0.48281157248E-01  0.23352545758E-01  0.72053903776E-01  0.51100000000E-03 0.  1.
         11    1    4    4    0    0  0.65759893251E-01  0.15002920440E-01  0.33934531156E-03  0.67452408840E-01  0.51100000000E-03 0. -1.
</event>
<event>
 8    1  0.2091070E+004  0.1043930E+01  0.7957747E-01            NaN
         13   -1    0    0    0    0  0.00000000000E+00  0.00000000000E+00  0.74505805969E-08  0.10566000000E+00  0.10566000000E+00 0.  1.
     999900   -1    0    0    0    0 -0.00000000000E+00 -0.00000000000E+00 -0.74505805969E-08  0.93827000000E+00  0.93827000000E+00 0.  1.
     999902    2    1    2    0    0 -0.38916527295E-02  0.10879379901E-01  0.85316003841E-02  0.10295670590E+01  0.10294668693E+01 0.  0.
     999903    2    3    3    0    0  0.10545584019E+00  0.13176312733E-01 -0.76018783589E-01  0.13877476140E+00  0.46744299060E-01 0.  0.
         14    1    1    2    0    0  0.38916527295E-02 -0.10879379901E-01 -0.85316003841E-02  0.14362940963E-01  0.00000000000E+00 0.  1.
     999901    1    3    3    0    0 -0.10934749292E+00 -0.22969328326E-02  0.84550383973E-01  0.89079229764E+00  0.88000000000E+00 0. -1.
        -11    1    4    4    0    0  0.88339322478E-02  0.36584958808E-02  0.63182167383E-02  0.11471875820E-01  0.51100000000E-03 0.  1.
         11    1    4    4    0    0  0.96621907942E-01  0.95178168523E-02 -0.82337000327E-01  0.12730288558E+00  0.51100000000E-03 0. -1.
</event>
<event>
 8    1  0.2091070E+004  0.1043930E+01  0.7957747E-01            NaN
         13   -1    0    0    0    0  0.00000000000E+00  0.00000000000E+00  0.74505805969E-08  0.10566000000E+00  0.10566000000E+00 0.  1.
     999900   -1    0    0    0    0 -0.00000000000E+00 -0.00000000000E+00 -0.74505805969E-08  0.93827000000E+00  0.93827000000E+00 0. -1.
     999902    2    1    2    0    0 -0.47965031194E-02 -0.54658607545E-02  0.11509561733E-01  0.10303155927E+01  0.10302256396E+01 0.  0.
     999903    2    3    3    0    0 -0.73580224001E-02  0.38118994229E-01  0.12830535178E+00  0.14152570886E+00  0.45387936282E-01 0.  0.
         14    1    1    2    0    0  0.47965031194E-02  0.54658607545E-02 -0.11509561733E-01  0.13614407341E-01  0.00000000000E+00 0. -1.
     999901    1    3    3    0    0  0.25615192807E-02 -0.43584854983E-01 -0.11679579004E+00  0.88878988380E+00  0.88000000000E+00 0. -1.
        -11    1    4    4    0    0 -0.21476924641E-01  0.29897752207E-01  0.53422674778E-01  0.64879713166E-01  0.51100000000E-03 0. -1.
         11    1    4    4    0    0  0.14118902241E-01  0.82212420219E-02  0.74882677000E-01  0.76645995698E-01  0.51100000000E-03 0.  1.
</event>
<event>
 8    1  0.2091070E+004  0.1043930E+01  0.7957747E-01            NaN
         13   -1    0    0    0    0  0.00000000000E+00  0.00000000000E+00  0.74505805969E-08  0.10566000000E+00  0.10566000000E+00 0.  1.
     999900   -1    0    0    0    0 -0.00000000000E+00 -0.00000000000E+00 -0.74505805969E-08  0.93827000000E+00  0.93827000000E+00 0.  1.
     999902    2    1    2    0    0  0.28788467713E-02 -0.95596881976E-02  0.10500249952E-01  0.10294410164E+01  0.10293390479E+01 0.  0.
     999903    2    3    3    0    0  0.10478294282E+00 -0.79639772413E-01 -0.19047967997E-01  0.14030167962E+00  0.44718874799E-01 0.  0.
         14    1    1    2    0    0 -0.28788467713E-02  0.95596881976E-02 -0.10500249952E-01  0.14488983616E-01  0.00000000000E+00 0. -1.
     999901    1    3    3    0    0 -0.10190409605E+00  0.70080084216E-01  0.29548217949E-01  0.88913933676E+00  0.88000000000E+00 0. -1.
        -11    1    4    4    0    0  0.29866334351E-01 -0.49562765372E-01 -0.26894440279E-02  0.57930647062E-01  0.51100000000E-03 0.  1.
         11    1    4    4    0    0  0.74916608471E-01 -0.30077007041E-01 -0.16358523969E-01  0.82371032559E-01  0.51100000000E-03 0. -1.
</event>
<event>
 8    1  0.2091070E+004  0.1043930E+01  0.7957747E-01            NaN
         13   -1    0    0    0    0  0.00000000000E+00  0.00000000000E+00  0.74505805969E-08  0.10566000000E+00  0.10566000000E+00 0.  1.
     999900   -1    0    0    0    0 -0.00000000000E+00 -0.00000000000E+00 -0.74505805969E-08  0.93827000000E+00  0.93827000000E+00 0. -1.
     999902    2    1    2    0    0  0.21787531511E-02  0.61364919015E-02 -0.47980509907E-02  0.10358414407E+01  0.10358098597E+01 0.  0.
     999903    2    3    3    0    0  0.24613276952E-01 -0.23635583379E-01  0.13316945255E+00  0.14431201530E+00  0.43902169253E-01 0.  0.
         14    1    1    2    0    0 -0.21787531511E-02 -0.61364919015E-02  0.47980509907E-02  0.80885592945E-02  0.00000000000E+00 0.  1.
     999901    1    3    3    0    0 -0.22434523801E-01  0.29772075281E-01 -0.13796750354E+00  0.89152942540E+00  0.88000000000E+00 0. -1.
        -11    1    4    4    0    0  0.59017434259E-02  0.13040936418E-01  0.38352177811E-01  0.40939556202E-01  0.51100000000E-03 0. -1.
         11    1    4    4    0    0  0.18711533526E-01 -0.36676519797E-01  0.94817274737E-01  0.10337245910E+00  0.51100000000E-03 0.  1.
</event>
<event>
 8    1  0.2091070E+004  0.1043930E+01  0.7957747E-01            NaN
         13   -1    0    0    0    0  0.00000000000E+00  0.00000000000E+00  0.74505805969E-08  0.10566000000E+00  0.10566000000E+00 0. -1.
     999900   -1    0    0    0    0 -0.00000000000E+00 -0.00000000000E+00 -0.74505805969E-08  0.93827000000E+00  0.93827000000E+00 0.  1.
     999902    2    1    2    0    0  0.72122166945E-02  0.10309757470E-01  0.58299803260E-02  0.10300629225E+01  0.10299695764E+01 0.  0.
     999903    2    3    3    0    0  0.43326764638E-01 -0.83236876285E-01 -0.87587373420E-01  0.13945524495E+00  0.54503497642E-01 0.  0.
         14    1    1    2    0    0 -0.72122166945E-02 -0.10309757470E-01 -0.58299803260E-02  0.13867077535E-01  0.00000000000E+00 0.  1.
     999901    1    3    3    0    0 -0.36114547944E-01  0.93546633755E-01  0.93417353746E-01  0.89060767751E+00  0.88000000000E+00 0.  1.
        -11    1    4    4    0    0  0.17291414498E-01 -0.86485596809E-02  0.26494960069E-02  0.19521054018E-01  0.51100000000E-03 0.  1.
         11    1    4    4    0    0  0.26035350140E-01 -0.74588316604E-01 -0.90236869426E-01  0.11993419094E+00  0.51100000000E-03 0. -1.
</event>
<event>
 8    1  0.2095070E+004  0.1043930E+01  0.7957747E-01            NaN
         13   -1    0    0    0    0  0.00000000000E+00  0.00000000000E+00  0.74505805969E-08  0.10566000000E+00  0.10566000000E+00 0.  1.
     999900   -1    0    0    0    0 -0.00000000000E+00 -0.00000000000E+00 -0.74505805969E-08  0.93827000000E+00  0.93827000000E+00 0. -1.
     999902    2    1    2    0    0  0.12876531874E-01 -0.65467446041E-03  0.16952412522E-02  0.10309258655E+01  0.10308438449E+01 0.  0.
     999903    2    3    3    0    0  0.13452014268E+00  0.11110522178E-01 -0.25305572798E-02  0.14247021364E+00  0.45521924022E-01 0.  0.
         14    1    1    2    0    0 -0.12876531874E-01  0.65467446041E-03 -0.16952412522E-02  0.13004134522E-01  0.00000000000E+00 0.  1.
     999901    1    3    3    0    0 -0.12164361080E+00 -0.11765196639E-01  0.42257985321E-02  0.88845565183E+00  0.88000000000E+00 0.  1.
        -11    1    4    4    0    0  0.69555675389E-01  0.18289053648E-01  0.17665059852E-01  0.74059414815E-01  0.51100000000E-03 0. -1.
         11    1    4    4    0    0  0.64964467289E-01 -0.71785314698E-02 -0.20195617131E-01  0.68410798829E-01  0.51100000000E-03 0.  1.
</event>
<event>
 8    1  0.2091070E+004  0.1043930E+01  0.7957747E-01            NaN
         13   -1    0    0    0    0  0.00000000000E+00  0.00000000000E+00  0.74505805969E-08  0.10566000000E+00  0.10566000000E+00 0. -1.
     999900   -1    0    0    0    0 -0.00000000000E+00 -0.00000000000E+00 -0.74505805969E-08  0.93827000000E+00  0.93827000000E+00 0.  1.
     999902    2    1    2    0    0  0.10710419511E-01 -0.24206523676E-02 -0.52302209437E-02  0.10317674404E+01  0.10316957513E+01 0.  0.
     999903    2    3    3    0    0  0.25051470891E-01  0.39732650608E-01 -0.12663467082E+00  0.14231726918E+00  0.44850925676E-01 0.  0.
         14    1    1    2    0    0 -0.10710419511E-01  0.24206523676E-02  0.52302209437E-02  0.12162559563E-01  0.00000000000E+00 0. -1.
     999901    1    3    3    0    0 -0.14341051379E-01 -0.42153302976E-01  0.12140444988E+00  0.88945017126E+00  0.88000000000E+00 0. -1.
        -11    1    4    4    0    0 -0.73472976892E-02  0.28633379499E-01 -0.72002380195E-01  0.77836091112E-01  0.51100000000E-03 0. -1.
         11    1    4    4    0    0  0.32398768580E-01  0.11099271109E-01 -0.54632290625E-01  0.64481178065E-01  0.51100000000E-03 0.  1.
</event>
<event>
 8    1  0.2091070E+004  0.1043930E+01  0.7957747E-01            NaN
         13   -1    0    0    0    0  0.00000000000E+00  0.00000000000E+00  0.74505805969E-08  0.10566000000E+00  0.10566000000E+00 0.  1.
     999900   -1    0    0    0    0 -0.00000000000E+00 -0.00000000000E+00 -0.74505805969E-08  0.93827000000E+00  0.93827000000E+00 0. -1.
     999902    2    1    2    0    0  0.23697526236E-02  0.91768344746E-02 -0.10600516107E-01  0.10297102616E+01  0.10296120735E+01 0.  0.
     999903    2    3    3    0    0  0.83012718785E-01 -0.28008989616E-04  0.10180885813E+00  0.13885455805E+00  0.44993693254E-01 0.  0.
         14    1    1    2    0    0 -0.23697526236E-02 -0.91768344746E-02  0.10600516107E-01  0.14219738402E-01  0.00000000000E+00 0.  1.
     999901    1    3    3    0    0 -0.80642966161E-01  0.92048434642E-02 -0.11240937423E+00  0.89085570355E+00  0.88000000000E+00 0. -1.
        -11    1    4    4    0    0  0.55502638975E-01 -0.21174901772E-01  0.58728568500E-01  0.83535772441E-01  0.51100000000E-03 0.  1.
         11    1    4    4    0    0  0.27510079809E-01  0.21146892783E-01  0.43080289628E-01  0.55318785606E-01  0.51100000000E-03 0. -1.
</event>
<event>
 8    1  0.2091070E+004  0.1043930E+01  0.7957747E-01            NaN
         13   -1    0    0    0    0  0.00000000000E+00  0.00000000000E+00  0.74505805969E-08  0.10566000000E+00  0.10566000000E+00 0. -1.
     999900   -1    0    0    0    0 -0.00000000000E+00 -0.00000000000E+00 -0.74505805969E-08  0.93827000000E+00  0.93827000000E+00 0. -1.
     999902    2    1    2    0    0 -0.11174946479E-01  0.67137272426E-03 -0.58479056457E-02  0.10312995538E+01  0.10312222076E+01 0.  0.
     999903    2    3    3    0    0 -0.57104739119E-01 -0.32589656727E-01 -0.11800418048E+00  0.14237049483E+00  0.44959250810E-01 0.  0.
         14    1    1    2    0    0  0.11174946479E-01 -0.67137272426E-03  0.58479056457E-02  0.12630446175E-01  0.00000000000E+00 0. -1.
     999901    1    3    3    0    0  0.45929792641E-01  0.33261029452E-01  0.11215627483E+00  0.88892905899E+00  0.88000000000E+00 0.  1.
        -11    1    4    4    0    0 -0.57030831386E-01 -0.15119573004E-01 -0.71569273266E-01  0.92755265152E-01  0.51100000000E-03 0. -1.
         11    1    4    4    0    0 -0.73907733218E-04 -0.17470083723E-01 -0.46434907213E-01  0.49615229683E-01  0.51100000000E-03 0.  1.
</event>
<event>
 8    1  0.2091070E+004  0.1043930E+01  0.7957747E-01            NaN
         13   -1    0    0    0    0  0.00000000000E+00  0.00000000000E+00  0.74505805969E-08  0.10566000000E+00  0.10566000000E+00 0.  1.
     999900   -1    0    0    0    0 -0.00000000000E+00 -0.00000000000E+00 -0.74505805969E-08  0.93827000000E+00  0.93827000000E+00 0.  1.
     999902    2    1    2    0    0 -0.88147005709E-02 -0.43049488893E-02  0.94934345157E-02  0.10302787425E+01  0.10301882986E+01 0.  0.
     999903    2    3    3    0    0  0.89785920508E-01  0.93900563631E-01 -0.15495390492E-01  0.13899267930E+00  0.46904481671E-01 0.  0.
         14    1    1    2    0    0  0.88147005709E-02  0.43049488893E-02 -0.94934345157E-02  0.13651257451E-01  0.00000000000E+00 0. -1.
     999901    1    3    3    0    0 -0.98600621079E-01 -0.98205512520E-01  0.24988825008E-01  0.89128606325E+00  0.88000000000E+00 0.  1.
        -11    1    4    4    0    0  0.66127993374E-01  0.87284957323E-01 -0.25543147388E-01  0.11244682646E+00  0.51100000000E-03 0. -1.
         11    1    4    4    0    0  0.23657927134E-01  0.66156063081E-02  0.10047756896E-01  0.26545852835E-01  0.51100000000E-03 0.  1.
</event>
<event>
 8    1  0.2091070E+004  0.1043930E+01  0.7957747E-01            NaN
         13   -1    0    0    0    0  0.00000000000E+00  0.00000000000E+00  0.74505805969E-08  0.10566000000E+00  0.10566000000E+00 0. -1.
     999900   -1    0    0    0    0 -0.00000000000E+00 -0.00000000000E+00 -0.74505805969E-08  0.93827000000E+00  0.93827000000E+00 0.  1.
     999902    2    1    2    0    0 -0.12886191611E-01 -0.33488152733E-02  0.12037680407E-02  0.10305614715E+01  0.10304747590E+01 0.  0.
     999903    2    3    3    0    0 -0.53350954306E-01  0.69144880459E-01  0.10089824425E+00  0.14104940210E+00  0.45685219943E-01 0.  0.
         14    1    1    2    0    0  0.12886191611E-01  0.33488152733E-02 -0.12037680407E-02  0.13368528545E-01  0.00000000000E+00 0.  1.
     999901    1    3    3    0    0  0.40464762695E-01 -0.72493695732E-01 -0.99694476208E-01  0.88951206935E+00  0.88000000000E+00 0.  1.
        -11    1    4    4    0    0 -0.58970612266E-01  0.54457350559E-01  0.70562252793E-01  0.10687576330E+00  0.51100000000E-03 0. -1.
         11    1    4    4    0    0  0.56196579604E-02  0.14687529900E-01  0.30335991456E-01  0.34173638799E-01  0.51100000000E-03 0.  1.
</event>
<event>
 8    1  0.2091070E+004  0.1043930E+01  0.7957747E-01            NaN
         13   -1    0    0    0    0  0.00000000000E+00  0.00000000000E+00  0.74505805969E-08  0.10566000000E+00  0.10566000000E+00 0.  1.
     999900   -1    0    0    0    0 -0.00000000000E+00 -0.00000000000E+00 -0.74505805969E-08  0.93827000000E+00  0.93827000000E+00 0.  1.
     999902    2    1    2    0    0 -0.11000659739E-01  0.24720069615E-02 -0.78454048621E-02  0.10301940723E+01  0.10301024953E+01 0.  0.
     999903    2    3    3    0    0  0.78326104089E-01  0.76744211928E-01 -0.76630345047E-01  0.13989805455E+00  0.40921916376E-01 0.  0.
         14    1    1    2    0    0  0.11000659739E-01 -0.24720069615E-02  0.78454048621E-02  0.13735927728E-01  0.00000000000E+00 0.  1.
     999901    1    3    3    0    0 -0.89326763828E-01 -0.74272204967E-01  0.68784940185E-01  0.89029601772E+00  0.88000000000E+00 0. -1.
        -11    1    4    4    0    0  0.76587063236E-01  0.75209470406E-01 -0.59749099725E-01  0.12285055447E+00  0.51100000000E-03 0.  1.
         11    1    4    4    0    0  0.17390408538E-02  0.15347415224E-02 -0.16881245322E-01  0.17047500088E-01  0.51100000000E-03 0. -1.
</event>
<event>
 8    1  0.2091070E+004  0.1043930E+01  0.7957747E-01            NaN
         13   -1    0    0    0    0  0.00000000000E+00  0.00000000000E+00  0.74505805969E-08  0.10566000000E+00  0.10566000000E+00 0. -1.
     999900   -1    0    0    0    0 -0.00000000000E+00 -0.00000000000E+00 -0.74505805969E-08  0.93827000000E+00  0.93827000000E+00 0.  1.
     999902    2    1    2    0    0 -0.91373831066E-02 -0.59746817719E-02  0.83365990019E-02  0.10301936440E+01  0.10301020613E+01 0.  0.
     999903    2    3    3    0    0 -0.83876684923E-01 -0.63214449661E-01  0.84172812511E-01  0.14192933340E+00  0.45027862420E-01 0.  0.
         14    1    1    2    0    0  0.91373831066E-02  0.59746817719E-02 -0.83365990019E-02  0.13736355966E-01  0.00000000000E+00 0.  1.
     999901    1    3    3    0    0  0.74739301816E-01  0.57239767890E-01 -0.75836213509E-01  0.88826431063E+00  0.88000000000E+00 0.  1.
        -11    1    4    4    0    0 -0.51907938795E-02 -0.26347663591E-01  0.14319184235E-01  0.30437540570E-01  0.51100000000E-03 0.  1.
         11    1    4    4    0    0 -0.78685891044E-01 -0.36866786071E-01  0.69853628275E-01  0.11149179283E+00  0.51100000000E-03 0. -1.
</event>
<event>
 8    1  0.2091070E+004  0.1043930E+01  0.7957747E-01            NaN
         13   -1    0    0    0    0  0.00000000000E+00  0.00000000000E+00  0.74505805969E-08  0.10566000000E+00  0.10566000000E+00 0.  1.
     999900   -1    0    0    0    0 -0.00000000000E+00 -0.00000000000E+00 -0.74505805969E-08  0.93827000000E+00  0.93827000000E+00 0. -1.
     999902    2    1    2    0    0  0.63754549060E-02 -0.68879877542E-02  0.89503450749E-02  0.10309608259E+01  0.10308792485E+01 0.  0.
     999903    2    3    3    0    0 -0.36222860181E-01  0.76817523714E-01 -0.10086435611E+00  0.13917581944E+00  0.44533839199E-01 0.  0.
         14    1    1    2    0    0 -0.63754549060E-02  0.68879877542E-02 -0.89503450749E-02  0.12969174126E-01  0.00000000000E+00 0. -1.
     999901    1    3    3    0    0  0.42598315087E-01 -0.83705511468E-01  0.10981470119E+00  0.89178500643E+00  0.88000000000E+00 0.  1.
        -11    1    4    4    0    0 -0.19002218831E-01  0.57695657692E-01 -0.39045100477E-01  0.72212562821E-01  0.51100000000E-03 0.  1.
         11    1    4    4    0    0 -0.17220641350E-01  0.19121866022E-01 -0.61819255638E-01  0.66963256621E-01  0.51100000000E-03 0. -1.
</event>
<event>
 8    1  0.2091070E+004  0.1043930E+01  0.7957747E-01            NaN
         13   -1    0    0    0    0  0.00000000000E+00  0.00000000000E+00  0.74505805969E-08  0.10566000000E+00  0.10566000000E+00 0. -1.
     999900   -1    0    0    0    0 -0.00000000000E+00 -0.00000000000E+00 -0.74505805969E-08  0.93827000000E+00  0.93827000000E+00 0.  1.
     999902    2    1    2    0    0 -0.10235343018E-01 -0.20296059140E-01  0.90283995353E-03  0.10211812114E+01  0.10209277933E+01 0.  0.
     999903    2    3    3    0    0 -0.24255571019E-01  0.35198332216E-01  0.11609968137E+00  0.13182947752E+00  0.45526034439E-01 0.  0.
         14    1    1    2    0    0  0.10235343018E-01  0.20296059140E-01 -0.90283995353E-03  0.22748788611E-01  0.00000000000E+00 0. -1.
     999901    1    3    3    0    0  0.14020228002E-01 -0.55494391355E-01 -0.11519684142E+00  0.88935173387E+00  0.88000000000E+00 0.  1.
        -11    1    4    4    0    0 -0.88029249590E-02 -0.55252737238E-02  0.59527247009E-01  0.60429913082E-01  0.51100000000E-03 0.  1.
         11    1    4    4    0    0 -0.15452646060E-01  0.40723605940E-01  0.56572434363E-01  0.71399564437E-01  0.51100000000E-03 0. -1.
</event>
<event>
 8    1  0.2091070E+004  0.1043930E+01  0.7957747E-01            NaN
         13   -1    0    0    0    0  0.00000000000E+00  0.00000000000E+00  0.74505805969E-08  0.10566000000E+00  0.10566000000E+00 0.  1.
     999900   -1    0    0    0    0 -0.00000000000E+00 -0.00000000000E+00 -0.74505805969E-08  0.93827000000E+00  0.93827000000E+00 0.  1.
     999902    2    1    2    0    0  0.38949691907E-02  0.11551259627E-01 -0.58678386977E-02  0.10304009973E+01  0.10303121766E+01 0.  0.
     999903    2    3    3    0    0  0.94180750245E-01  0.61247063854E-01  0.72254324065E-01  0.14094933049E+00  0.44997887415E-01 0.  0.
         14    1    1    2    0    0 -0.38949691907E-02 -0.11551259627E-01  0.58678386977E-02  0.13529002733E-01  0.00000000000E+00 0. -1.
     999901    1    3    3    0    0 -0.90285781054E-01 -0.49695804226E-01 -0.78122162763E-01  0.88945166678E+00  0.88000000000E+00 0. -1.
        -11    1    4    4    0    0  0.82582327080E-01  0.30722237617E-01  0.56666786457E-01  0.10476202766E+00  0.51100000000E-03 0. -1.
         11    1    4    4    0    0  0.11598423165E-01  0.30524826237E-01  0.15587537609E-01  0.36187302834E-01  0.51100000000E-03 0.  1.
</event>
<event>
 8    1  0.2091070E+004  0.1043930E+01  0.7957747E-01            NaN
         13   -1    0    0    0    0  0.00000000000E+00  0.00000000000E+00  0.74505805969E-08  0.10566000000E+00  0.10566000000E+00 0.  1.
     999900   -1    0    0    0    0 -0.00000000000E+00 -0.00000000000E+00 -0.74505805969E-08  0.93827000000E+00  0.93827000000E+00 0.  1.
     999902    2    1    2    0    0 -0.47935259628E-03 -0.14506688730E-02  0.10341857996E-01  0.10334758981E+01  0.10334230227E+01 0.  0.
     999903    2    3    3    0    0  0.11631520605E+00 -0.42521567666E-01 -0.54369149083E-01  0.14245664913E+00  0.44727861935E-01 0.  0.
         14    1    1    2    0    0  0.47935259628E-03  0.14506688730E-02 -0.10341857996E-01  0.10454101869E-01  0.00000000000E+00 0. -1.
     999901    1    3    3    0    0 -0.11679455865E+00  0.41070898793E-01  0.64711007079E-01  0.89101924900E+00  0.88000000000E+00 0.  1.
        -11    1    4    4    0    0  0.23899763482E-01 -0.30043554555E-01 -0.14615938088E-01  0.41081633755E-01  0.51100000000E-03 0.  1.
         11    1    4    4    0    0  0.92415442568E-01 -0.12478013111E-01 -0.39753210995E-01  0.10137501537E+00  0.51100000000E-03 0. -1.
</event>
<event>
 8    1  0.2091070E+004  0.1043930E+01  0.7957747E-01            NaN
         13   -1    0    0    0    0  0.00000000000E+00  0.00000000000E+00  0.74505805969E-08  0.10566000000E+00  0.10566000000E+00 0. -1.
     999900   -1    0    0    0    0 -0.00000000000E+00 -0.00000000000E+00 -0.74505805969E-08  0.93827000000E+00  0.93827000000E+00 0. -1.
     999902    2    1    2    0    0  0.43416702681E-02 -0.11158966723E-01  0.74279828683E-02  0.10298393092E+01  0.10297429073E+01 0.  0.
     999903    2    3    3    0    0  0.75177179389E-01  0.66923910051E-01 -0.88407014394E-01  0.13838041964E+00  0.34683170375E-01 0.  0.
         14    1    1    2    0    0 -0.43416702681E-02  0.11158966723E-01 -0.74279828683E-02  0.14090690847E-01  0.00000000000E+00 0. -1.
     999901    1    3    3    0    0 -0.70835509121E-01 -0.78082876774E-01  0.95834997263E-01  0.89145888952E+00  0.88000000000E+00 0. -1.
        -11    1    4    4    0    0  0.31068499436E-01  0.17058469844E-01 -0.50714853521E-01  0.61874878095E-01  0.51100000000E-03 0. -1.
         11    1    4    4    0    0  0.44108679953E-01  0.49865440207E-01 -0.37692160873E-01  0.76505541542E-01  0.51100000000E-03 0.  1.
</event>
<event>
 8    1  0.2091070E+004  0.1043930E+01  0.7957747E-01            NaN
         13   -1    0    0    0    0  0.00000000000E+00  0.00000000000E+00  0.74505805969E-08  0.10566000000E+00  0.10566000000E+00 0.  1.
     999900   -1    0    0    0    0 -0.00000000000E+00 -0.00000000000E+00 -0.74505805969E-08  0.93827000000E+00  0.93827000000E+00 0.  1.
     999902    2    1    2    0    0  0.14063111688E-01 -0.18538560842E-02 -0.33093104346E-02  0.10293643065E+01  0.10292612477E+01 0.  0.
     999903    2    3    3    0    0  0.43894367583E-01  0.11266070738E+00 -0.54687412558E-01  0.13995821336E+00  0.44479634681E-01 0.  0.
         14    1    1    2    0    0 -0.14063111688E-01  0.18538560842E-02  0.33093104346E-02  0.14565693539E-01  0.00000000000E+00 0.  1.
     999901    1    3    3    0    0 -0.29831255895E-01 -0.11451456346E+00  0.51378102123E-01  0.88940609310E+00  0.88000000000E+00 0. -1.
        -11    1    4    4    0    0  0.35357664730E-01  0.42090326276E-01 -0.38322404913E-01  0.67012147111E-01  0.51100000000E-03 0.  1.
         11    1    4    4    0    0  0.85367028529E-02  0.70570381102E-01 -0.16365007645E-01  0.72946066245E-01  0.51100000000E-03 0. -1.
</event>
<event>
 8    1  0.2091070E+004  0.1043930E+01  0.7957747E-01            NaN
         13   -1    0    0    0    0  0.00000000000E+00  0.00000000000E+00  0.74505805969E-08  0.10566000000E+00  0.10566000000E+00 0. -1.
     999900   -1    0    0    0    0 -0.00000000000E+00 -0.00000000000E+00 -0.74505805969E-08  0.93827000000E+00  0.93827000000E+00 0. -1.
     999902    2    1    2    0    0  0.18163045837E-01  0.33425322295E-02  0.98534170267E-03  0.10254356859E+01  0.10252688946E+01 0.  0.
     999903    2    3    3    0    0 -0.89197556749E-01 -0.83808939377E-03  0.89114637766E-01  0.13453134232E+00  0.46907961778E-01 0.  0.
         14    1    1    2    0    0 -0.18163045837E-01 -0.33425322295E-02 -0.98534170267E-03  0.18494314101E-01  0.00000000000E+00 0.  1.
     999901    1    3    3    0    0  0.10736060259E+00  0.41806216232E-02 -0.88129296063E-01  0.89090434358E+00  0.88000000000E+00 0. -1.
        -11    1    4    4    0    0 -0.31155749452E-01 -0.22748174314E-01  0.30498813761E-01  0.49179252947E-01  0.51100000000E-03 0. -1.
         11    1    4    4    0    0 -0.58041807297E-01  0.21910084920E-01  0.58615824005E-01  0.85352089373E-01  0.51100000000E-03 0.  1.
</event>
<event>
 8    1  0.2091070E+004  0.1043930E+01  0.7957747E-01            NaN
         13   -1    0    0    0    0  0.00000000000E+00  0.00000000000E+00  0.74505805969E-08  0.10566000000E+00  0.10566000000E+00 0.  1.
     999900   -1    0    0    0    0 -0.00000000000E+00 -0.00000000000E+00 -0.74505805969E-08  0.93827000000E+00  0.93827000000E+00 0. -1.
     999902    2    1    2    0    0  0.57320618225E-03 -0.12484542205E-01 -0.60073706488E-02  0.10300634625E+01  0.10299701238E+01 0.  0.
     999903    2    3    3    0    0  0.75310307892E-01 -0.11071247604E+00 -0.45444678984E-02  0.14144852824E+00  0.45366718259E-01 0.  0.
         14    1    1    2    0    0 -0.57320618225E-03  0.12484542205E-01  0.60073706488E-02  0.13866537474E-01  0.00000000000E+00 0.  1.
     999901    1    3    3    0    0 -0.74737101710E-01  0.98227933837E-01 -0.14629027504E-02  0.88861493429E+00  0.88000000000E+00 0. -1.
        -11    1    4    4    0    0  0.52763758125E-01 -0.10181342723E+00 -0.13790342561E-01  0.11550074807E+00  0.51100000000E-03 0.  1.
         11    1    4    4    0    0  0.22546549768E-01 -0.88990488076E-02  0.92458746625E-02  0.25947780163E-01  0.51100000000E-03 0. -1.
</event>
<event>
 8    1  0.2091070E+004  0.1043930E+01  0.7957747E-01            NaN
         13   -1    0    0    0    0  0.00000000000E+00  0.00000000000E+00  0.74505805969E-08  0.10566000000E+00  0.10566000000E+00 0. -1.
     999900   -1    0    0    0    0 -0.00000000000E+00 -0.00000000000E+00 -0.74505805969E-08  0.93827000000E+00  0.93827000000E+00 0. -1.
     999902    2    1    2    0    0  0.80381048436E-02  0.57050646911E-02 -0.96695042245E-02  0.10301220963E+01  0.10300295506E+01 0.  0.
     999903    2    3    3    0    0 -0.67845181136E-01 -0.95048820635E-01 -0.62061313173E-01  0.13958601048E+00  0.44669909585E-01 0.  0.
         14    1    1    2    0    0 -0.80381048436E-02 -0.57050646911E-02  0.96695042245E-02  0.13807903699E-01  0.00000000000E+00 0. -1.
     999901    1    3    3    0    0  0.75883285980E-01  0.10075388533E+00  0.52391808949E-01  0.89053608582E+00  0.88000000000E+00 0.  1.
        -11    1    4    4    0    0 -0.61050568097E-01 -0.75245833237E-01 -0.30270042499E-01  0.10151671724E+00  0.51100000000E-03 0.  1.
         11    1    4    4    0    0 -0.67946130388E-02 -0.19802987398E-01 -0.31791270675E-01  0.38069293247E-01  0.51100000000E-03 0. -1.
</event>
<event>
 8    1  0.2091070E+004  0.1043930E+01  0.7957747E-01            NaN
         13   -1    0    0    0    0  0.00000000000E+00  0.00000000000E+00  0.74505805969E-08  0.10566000000E+00  0.10566000000E+00 0. -1.
     999900   -1    0    0    0    0 -0.00000000000E+00 -0.00000000000E+00 -0.74505805969E-08  0.93827000000E+00  0.93827000000E+00 0.  1.
     999902    2    1    2    0    0  0.75370379248E-02  0.76166425093E-02 -0.80948748113E-02  0.10305006597E+01  0.10304131513E+01 0.  0.
     999903    2    3    3    0    0  0.46067726829E-01  0.52127293624E-02  0.12381860134E+00  0.13983149663E+00  0.45523547845E-01 0.  0.
         14    1    1    2    0    0 -0.75370379248E-02 -0.76166425093E-02  0.80948748113E-02  0.13429340341E-01  0.00000000000E+00 0. -1.
     999901    1    3    3    0    0 -0.38530688904E-01  0.24039131469E-02 -0.13191347615E+00  0.89066916303E+00  0.88000000000E+00 0.  1.
        -11    1    4    4    0    0  0.22733224668E-02  0.15729089691E-01  0.14194852108E-01  0.21314952614E-01  0.51100000000E-03 0. -1.
         11    1    4    4    0    0  0.43794404362E-01 -0.10516360329E-01  0.10962374923E+00  0.11851654401E+00  0.51100000000E-03 0.  1.
</event>
<event>
 8    1  0.2091070E+004  0.1043930E+01  0.7957747E-01            NaN
         13   -1    0    0    0    0  0.00000000000E+00  0.00000000000E+00  0.74505805969E-08  0.10566000000E+00  0.10566000000E+00 0. -1.
     999900   -1    0    0    0    0 -0.00000000000E+00 -0.00000000000E+00 -0.74505805969E-08  0.93827000000E+00  0.93827000000E+00 0.  1.
     999902    2    1    2    0    0  0.11591357855E-01 -0.53866926093E-03  0.72310231289E-02  0.10302574934E+01  0.10301667657E+01 0.  0.
     999903    2    3    3    0    0  0.10991315658E+00  0.55534198380E-01  0.54407322813E-01  0.14175485083E+00  0.44377153775E-01 0.  0.
         14    1    1    2    0    0 -0.11591357855E-01  0.53866926093E-03 -0.72310231289E-02  0.13672506610E-01  0.00000000000E+00 0.  1.
     999901    1    3    3    0    0 -0.98321798728E-01 -0.56072867641E-01 -0.47176299684E-01  0.88850264256E+00  0.88000000000E+00 0.  1.
        -11    1    4    4    0    0  0.43568610923E-01  0.46155771415E-01  0.20809001231E-01  0.66797116299E-01  0.51100000000E-03 0.  1.
         11    1    4    4    0    0  0.66344545661E-01  0.93784269654E-02  0.33598321582E-01  0.74957734527E-01  0.51100000000E-03 0. -1.
</event>
<event>
 8    1  0.2091070E+004  0.1043930E+01  0.7957747E-01            NaN
         13   -1    0    0    0    0  0.00000000000E+00  0.00000000000E+00  0.74505805969E-08  0.10566000000E+00  0.10566000000E+00 0.  1.
     999900   -1    0    0    0    0 -0.00000000000E+00 -0.00000000000E+00 -0.74505805969E-08  0.93827000000E+00  0.93827000000E+00 0.  1.
     999902    2    1    2    0    0 -0.11458905207E-01  0.47921800086E-03  0.79504061694E-02  0.10299748892E+01  0.10298803461E+01 0.  0.
     999903    2    3    3    0    0  0.10589180085E+00  0.17606788199E-01  0.76056800438E-01  0.13941157154E+00  0.46128916167E-01 0.  0.
         14    1    1    2    0    0  0.11458905207E-01 -0.47921800086E-03 -0.79504061694E-02  0.13955110773E-01  0.00000000000E+00 0. -1.
     999901    1    3    3    0    0 -0.11735070606E+00 -0.17127570198E-01 -0.68106394269E-01  0.89056331769E+00  0.88000000000E+00 0.  1.
        -11    1    4    4    0    0  0.16984532049E-01 -0.14459846319E-01  0.15268629982E-01  0.27036154812E-01  0.51100000000E-03 0. -1.
         11    1    4    4    0    0  0.88907268805E-01  0.32066634518E-01  0.60788170456E-01  0.11237541672E+00  0.51100000000E-03 0.  1.
</event>
<event>
 8    1  0.2091070E+004  0.1043930E+01  0.7957747E-01            NaN
         13   -1    0    0    0    0  0.00000000000E+00  0.00000000000E+00  0.74505805969E-08  0.10566000000E+00  0.10566000000E+00 0.  1.
     999900   -1    0    0    0    0 -0.00000000000E+00 -0.00000000000E+00 -0.74505805969E-08  0.93827000000E+00  0.93827000000E+00 0. -1.
     999902    2    1    2    0    0  0.33331374414E-02 -0.19795412483E-02 -0.13832381531E-01  0.10295646539E+01  0.10294644304E+01 0.  0.
     999903    2    3    3    0    0 -0.58273584599E-02 -0.95014558132E-01 -0.93451426003E-01  0.14103855905E+00  0.45792813329E-01 0.  0.
         14    1    1    2    0    0 -0.33331374414E-02  0.19795412483E-02  0.13832381531E-01  0.14365346066E-01  0.00000000000E+00 0.  1.
     999901    1    3    3    0    0  0.91604959013E-02  0.93035016884E-01  0.79619044472E-01  0.88852609489E+00  0.88000000000E+00 0.  1.
        -11    1    4    4    0    0 -0.15286223545E-01 -0.44594237453E-01 -0.70560565489E-01  0.84860881255E-01  0.51100000000E-03 0. -1.
         11    1    4    4    0    0  0.94588650848E-02 -0.50420320679E-01 -0.22890860514E-01  0.56177677793E-01  0.51100000000E-03 0.  1.
</event>
<event>
 8    1  0.2091070E+004  0.1043930E+01  0.7957747E-01            NaN
         13   -1    0    0    0    0  0.00000000000E+00  0.00000000000E+00  0.74505805969E-08  0.10566000000E+00  0.10566000000E+00 0.  1.
     999900   -1    0    0    0    0 -0.00000000000E+00 -0.00000000000E+00 -0.74505805969E-08  0.93827000000E+00  0.93827000000E+00 0. -1.
     999902    2    1    2    0    0 -0.12458046788E-02  0.29216482155E-02 -0.11743793752E-01  0.10317642797E+01  0.10316925531E+01 0.  0.
     999903    2    3    3    0    0 -0.79177267059E-01  0.10676897189E+00  0.18940869771E-01  0.14170859158E+00  0.45320143448E-01 0.  0.
         14    1    1    2    0    0  0.12458046788E-02 -0.29216482155E-02  0.11743793752E-01  0.12165720253E-01  0.00000000000E+00 0. -1.
     999901    1    3    3    0    0  0.77931462380E-01 -0.10384732368E+00 -0.30684663522E-01  0.89005568817E+00  0.88000000000E+00 0. -1.
        -11    1    4    4    0    0 -0.28597090820E-01  0.72947964778E-01  0.19941157756E-01  0.80852396763E-01  0.51100000000E-03 0.  1.
         11    1    4    4    0    0 -0.50580176239E-01  0.33821007114E-01 -0.10002879859E-02  0.60856194817E-01  0.51100000000E-03 0. -1.
</event>
<event>
 7    1  0.2091070E+004  0.1043930E+01  0.7957747E-01            NaN
         13   -1    0    0    0    0  0.00000000000E+00  0.00000000000E+00  0.74505805969E-08  0.10566000000E+00  0.10566000000E+00 0.  1.
     999900   -1    0    0    0    0 -0.00000000000E+00 -0.00000000000E+00 -0.74505805969E-08  0.93827000000E+00  0.93827000000E+00 0.  1.
     999902    2    1    2    0    0  0.66710261011E-02 -0.30076488504E-02  0.12036299516E-01  0.10298437994E+01  0.10297474594E+01 0.  0.
         14    1    1    2    0    0 -0.66710261011E-02  0.30076488504E-02 -0.12036299516E-01  0.14086200584E-01  0.00000000000E+00 0. -1.
     999901    1    3    3    0    0 -0.11178156502E+00  0.19063647697E-01  0.21990341959E-01  0.88754837394E+00  0.88000000000E+00 0.  1.
        -11    1    3    3    0    0  0.29208660190E-01 -0.29837279307E-01 -0.28833649058E-01  0.50744945615E-01  0.51100000000E-03 0. -1.
         11    1    3    3    0    0  0.89243930930E-01  0.77659827596E-02  0.18879606615E-01  0.91550479862E-01  0.51100000000E-03 0.  1.
</event>
<event>
 8    1  0.2091070E+004  0.1043930E+01  0.7957747E-01            NaN
         13   -1    0    0    0    0  0.00000000000E+00  0.00000000000E+00  0.74505805969E-08  0.10566000000E+00  0.10566000000E+00 0. -1.
     999900   -1    0    0    0    0 -0.00000000000E+00 -0.00000000000E+00 -0.74505805969E-08  0.93827000000E+00  0.93827000000E+00 0.  1.
     999902    2    1    2    0    0 -0.37872158121E-02  0.41188280684E-02  0.11886703319E-01  0.10307922124E+01  0.10307084862E+01 0.  0.
     999903    2    3    3    0    0 -0.97220020663E-01 -0.68195164129E-01  0.62643539356E-01  0.14144680202E+00  0.44504740762E-01 0.  0.
         14    1    1    2    0    0  0.37872158121E-02 -0.41188280684E-02 -0.11886703319E-01  0.13137787639E-01  0.00000000000E+00 0.  1.
     999901    1    3    3    0    0  0.93432804851E-01  0.72313992197E-01 -0.50756836037E-01  0.88934541034E+00  0.88000000000E+00 0.  1.
        -11    1    4    4    0    0 -0.47096512399E-01 -0.20180810459E-01  0.54922190583E-02  0.51534184597E-01  0.51100000000E-03 0.  1.
         11    1    4    4    0    0 -0.50123508265E-01 -0.48014353670E-01  0.57151320298E-01  0.89912617423E-01  0.51100000000E-03 0. -1.
</event>
<event>
 8    1  0.2091070E+004  0.1043930E+01  0.7957747E-01            NaN
         13   -1    0    0    0    0  0.00000000000E+00  0.00000000000E+00  0.74505805969E-08  0.10566000000E+00  0.10566000000E+00 0. -1.
     999900   -1    0    0    0    0 -0.00000000000E+00 -0.00000000000E+00 -0.74505805969E-08  0.93827000000E+00  0.93827000000E+00 0.  1.
     999902    2    1    2    0    0  0.18382546419E-02 -0.49704062359E-02 -0.12122793993E-01  0.10306994954E+01  0.10306145756E+01 0.  0.
     999903    2    3    3    0    0 -0.41811860134E-01  0.12076597910E+00  0.37142461270E-01  0.13932862055E+00  0.41234072322E-01 0.  0.
         14    1    1    2    0    0 -0.18382546419E-02  0.49704062359E-02  0.12122793993E-01  0.13230504619E-01  0.00000000000E+00 0. -1.
     999901    1    3    3    0    0  0.43650114775E-01 -0.12573638533E+00 -0.49265255263E-01  0.89137087483E+00  0.88000000000E+00 0.  1.
        -11    1    4    4    0    0 -0.31949838864E-01  0.52629259674E-01  0.34168587627E-01  0.70415798502E-01  0.51100000000E-03 0. -1.
         11    1    4    4    0    0 -0.98620212696E-02  0.68136719425E-01  0.29738736437E-02  0.68912822051E-01  0.51100000000E-03 0.  1.
</event>
<event>
 8    1  0.2091070E+004  0.1043930E+01  0.7957747E-01            NaN
         13   -1    0    0    0    0  0.00000000000E+00  0.00000000000E+00  0.74505805969E-08  0.10566000000E+00  0.10566000000E+00 0.  1.
     999900   -1    0    0    0    0 -0.00000000000E+00 -0.00000000000E+00 -0.74505805969E-08  0.93827000000E+00  0.93827000000E+00 0. -1.
     999902    2    1    2    0    0 -0.11125157385E-01 -0.54326194445E-02 -0.55929577796E-02  0.10303445792E+01  0.10302550113E+01 0.  0.
     999903    2    3    3    0    0 -0.30598215308E-01 -0.11170381237E+00 -0.68289128359E-01  0.14152312571E+00  0.44174625967E-01 0.  0.
         14    1    1    2    0    0  0.11125157385E-01  0.54326194445E-02  0.55929577796E-02  0.13585420773E-01  0.00000000000E+00 0.  1.
     999901    1    3    3    0    0  0.19473057923E-01  0.10627119293E+00  0.62696170579E-01  0.88882145352E+00  0.88000000000E+00 0.  1.
        -11    1    4    4    0    0 -0.28516454077E-01 -0.84510664289E-01 -0.71150451997E-01  0.11409596168E+00  0.51100000000E-03 0. -1.
         11    1    4    4    0    0 -0.20817612314E-02 -0.27193148083E-01  0.28613236384E-02  0.27427164025E-01  0.51100000000E-03 0.  1.
</event>
<event>
 8    1  0.2091070E+004  0.1043930E+01  0.7957747E-01            NaN
         13   -1    0    0    0    0  0.00000000000E+00  0.00000000000E+00  0.74505805969E-08  0.10566000000E+00  0.10566000000E+00 0. -1.
     999900   -1    0    0    0    0 -0.00000000000E+00 -0.00000000000E+00 -0.74505805969E-08  0.93827000000E+00  0.93827000000E+00 0. -1.
     999902    2    1    2    0    0 -0.26065307741E-02 -0.13115111971E-01 -0.23166133236E-02  0.10303591908E+01  0.10302698167E+01 0.  0.
     999903    2    3    3    0    0 -0.90898872631E-01 -0.52879901026E-01  0.82250667567E-01  0.14101763602E+00  0.45408285327E-01 0.  0.
         14    1    1    2    0    0  0.26065307741E-02  0.13115111971E-01  0.23166133236E-02  0.13570809187E-01  0.00000000000E+00 0. -1.
     999901    1    3    3    0    0  0.88292341857E-01  0.39764789055E-01 -0.84567280890E-01  0.88934155479E+00  0.88000000000E+00 0.  1.
        -11    1    4    4    0    0 -0.10935631945E-01 -0.19350333515E-01  0.37113126869E-01  0.43262787245E-01  0.51100000000E-03 0.  1.
         11    1    4    4    0    0 -0.79963240686E-01 -0.33529567511E-01  0.45137540698E-01  0.97754848779E-01  0.51100000000E-03 0. -1.
</event>
<event>
 8    1  0.2091070E+004  0.1043930E+01  0.7957747E-01            NaN
         13   -1    0    0    0    0  0.00000000000E+00  0.00000000000E+00  0.74505805969E-08  0.10566000000E+00  0.10566000000E+00 0. -1.
     999900   -1    0    0    0    0 -0.00000000000E+00 -0.00000000000E+00 -0.74505805969E-08  0.93827000000E+00  0.93827000000E+00 0. -1.
     999902    2    1    2    0    0  0.25589356116E-02  0.14413705225E-01  0.21064726347E-02  0.10291401293E+01  0.10290338504E+01 0.  0.
     999903    2    3    3    0    0  0.12078785125E+00 -0.50761874770E-01 -0.30455916153E-02  0.13882980331E+00  0.45803555739E-01 0.  0.
         14    1    1    2    0    0 -0.25589356116E-02 -0.14413705225E-01 -0.21064726347E-02  0.14789870747E-01  0.00000000000E+00 0.  1.
     999901    1    3    3    0    0 -0.11822891564E+00  0.65175579995E-01  0.51520642500E-02  0.89031032595E+00  0.88000000000E+00 0.  1.
        -11    1    4    4    0    0  0.60682322603E-01 -0.29902970868E-01  0.20964742349E-01  0.70825937946E-01  0.51100000000E-03 0.  1.
         11    1    4    4    0    0  0.60105528646E-01 -0.20858903902E-01 -0.24010333965E-01  0.68003865360E-01  0.51100000000E-03 0. -1.
</event>
<event>
 8    1  0.2091070E+004  0.1043930E+01  0.7957747E-01            NaN
         13   -1    0    0    0    0  0.00000000000E+00  0.00000000000E+00  0.74505805969E-08  0.10566000000E+00  0.10566000000E+00 0.  1.
     999900   -1    0    0    0    0 -0.00000000000E+00 -0.00000000000E+00 -0.74505805969E-08  0.93827000000E+00  0.93827000000E+00 0. -1.
     999902    2    1    2    0    0  0.38867698230E-02 -0.87436828832E-02  0.10608195087E-01  0.10296438958E+01  0.10295447826E+01 0.  0.
     999903    2    3    3    0    0 -0.34918517145E-01 -0.12322191978E+00  0.36904748248E-01  0.14099175592E+00  0.45975759269E-01 0.  0.
         14    1    1    2    0    0 -0.38867698230E-02  0.87436828832E-02 -0.10608195087E-01  0.14286104193E-01  0.00000000000E+00 0. -1.
     999901    1    3    3    0    0  0.38805286968E-01  0.11447823689E+00 -0.26296553161E-01  0.88865213989E+00  0.88000000000E+00 0. -1.
        -11    1    4    4    0    0 -0.13790015150E-01 -0.11054628420E+00  0.29123382364E-01  0.11514806984E+00  0.51100000000E-03 0.  1.
         11    1    4    4    0    0 -0.21128501995E-01 -0.12675635583E-01  0.77813658844E-02  0.25843686076E-01  0.51100000000E-03 0. -1.
</event>
<event>
 8    1  0.2091070E+004  0.1043930E+01  0.7957747E-01            NaN
         13   -1    0    0    0    0  0.00000000000E+00  0.00000000000E+00  0.74505805969E-08  0.10566000000E+00  0.10566000000E+00 0. -1.
     999900   -1    0    0    0    0 -0.00000000000E+00 -0.00000000000E+00 -0.74505805969E-08  0.93827000000E+00  0.93827000000E+00 0. -1.
     999902    2    1    2    0    0 -0.37561523567E-02  0.15050857064E-01 -0.29548565780E-03  0.10284147078E+01  0.10282976646E+01 0.  0.
     999903    2    3    3    0    0  0.82120931222E-01  0.82750744517E-01  0.62450804914E-01  0.13942919321E+00  0.44145937781E-01 0.  0.
         14    1    1    2    0    0  0.37561523567E-02 -0.15050857064E-01  0.29548565780E-03  0.15515292155E-01  0.00000000000E+00 0.  1.
     999901    1    3    3    0    0 -0.85877083579E-01 -0.67699887453E-01 -0.62746290572E-01  0.88898551463E+00  0.88000000000E+00 0. -1.
        -11    1    4    4    0    0  0.70900255803E-01  0.68777267067E-01  0.31535234935E-01  0.10369132510E+00  0.51100000000E-03 0. -1.
         11    1    4    4    0    0  0.11220675420E-01  0.13973477450E-01  0.30915569979E-01  0.35737868110E-01  0.51100000000E-03 0.  1.
</event>
<event>
 8    1  0.2091070E+004  0.1043930E+01  0.7957747E-01            NaN
         13   -1    0    0    0    0  0.00000000000E+00  0.00000000000E+00  0.74505805969E-08  0.10566000000E+00  0.10566000000E+00 0. -1.
     999900   -1    0    0    0    0 -0.00000000000E+00 -0.00000000000E+00 -0.74505805969E-08  0.93827000000E+00  0.93827000000E+00 0.  1.
     999902    2    1    2    0    0  0.16467869770E-01 -0.32487379572E-03 -0.64746605861E-02  0.10262320479E+01  0.10260794310E+01 0.  0.
     999903    2    3    3    0    0 -0.31834547342E-01  0.85197417887E-01  0.90151737382E-01  0.13551107778E+00  0.44315663486E-01 0.  0.
         14    1    1    2    0    0 -0.16467869770E-01  0.32487379572E-03  0.64746605861E-02  0.17697952069E-01  0.00000000000E+00 0.  1.
     999901    1    3    3    0    0  0.48302417112E-01 -0.85522291683E-01 -0.96626397968E-01  0.89072097015E+00  0.88000000000E+00 0.  1.
        -11    1    4    4    0    0  0.61976194575E-02  0.37718785185E-01  0.21797740783E-01  0.44005907183E-01  0.51100000000E-03 0.  1.
         11    1    4    4    0    0 -0.38032166799E-01  0.47478632703E-01  0.68353996599E-01  0.91505170602E-01  0.51100000000E-03 0. -1.
</event>
<event>
 8    1  0.2091070E+004  0.1043930E+01  0.7957747E-01            NaN
         13   -1    0    0    0    0  0.00000000000E+00  0.00000000000E+00  0.74505805969E-08  0.10566000000E+00  0.10566000000E+00 0.  1.
     999900   -1    0    0    0    0 -0.00000000000E+00 -0.00000000000E+00 -0.74505805969E-08  0.93827000000E+00  0.93827000000E+00 0.  1.
     999902    2    1    2    0    0  0.22195693614E-02 -0.11170483949E-01 -0.63243133816E-02  0.10309029842E+01  0.10308206729E+01 0.  0.
     999903    2    3    3    0    0 -0.21205327154E-01 -0.13001063166E+00 -0.29243066598E-01  0.14231029030E+00  0.45217602064E-01 0.  0.
         14    1    1    2    0    0 -0.22195693614E-02  0.11170483949E-01  0.63243133816E-02  0.13027015758E-01  0.00000000000E+00 0.  1.
     999901    1    3    3    0    0  0.23424896515E-01  0.11884014771E+00  0.22918753216E-01  0.88859269395E+00  0.88000000000E+00 0. -1.
        -11    1    4    4    0    0 -0.28876610152E-01 -0.12801042695E+00 -0.26293819229E-01  0.13383629580E+00  0.51100000000E-03 0. -1.
         11    1    4    4    0    0  0.76712829986E-02 -0.20002047056E-02 -0.29492473693E-02  0.84739944982E-02  0.51100000000E-03 0.  1.
</event>
<event>
 8    1  0.2091070E+004  0.1043930E+01  0.7957747E-01            NaN
         13   -1    0    0    0    0  0.00000000000E+00  0.00000000000E+00  0.74505805969E-08  0.10566000000E+00  0.10566000000E+00 0. -1.
     999900   -1    0    0    0    0 -0.00000000000E+00 -0.00000000000E+00 -0.74505805969E-08  0.93827000000E+00  0.93827000000E+00 0. -1.
     999902    2    1    2    0    0  0.21769625178E-02 -0.12323512885E-01  0.65792194844E-02  0.10297916032E+01  0.10296945429E+01 0.  0.
     999903    2    3    3    0    0 -0.71427798735E-01 -0.10880632578E+00 -0.28709478599E-01  0.14076298369E+00  0.45268492953E-01 0.  0.
         14    1    1    2    0    0 -0.21769625178E-02  0.12323512885E-01 -0.65792194844E-02  0.14138396821E-01  0.00000000000E+00 0.  1.
     999901    1    3    3    0    0  0.73604761253E-01  0.96482812891E-01  0.35288698083E-01  0.88902861949E+00  0.88000000000E+00 0.  1.
        -11    1    4    4    0    0 -0.12033300563E-01 -0.58708428968E-01 -0.15970894893E-01  0.62022661657E-01  0.51100000000E-03 0. -1.
         11    1    4    4    0    0 -0.59394498172E-01 -0.50097896809E-01 -0.12738583706E-01  0.78740322031E-01  0.51100000000E-03 0.  1.
</event>
<event>
 8    1  0.2091070E+004  0.1043930E+01  0.7957747E-01            NaN
         13   -1    0    0    0    0  0.00000000000E+00  0.00000000000E+00  0.74505805969E-08  0.10566000000E+00  0.10566000000E+00 0.  1.
     999900   -1    0    0    0    0 -0.00000000000E+00 -0.00000000000E+00 -0.74505805969E-08  0.93827000000E+00  0.93827000000E+00 0.  1.
     999902    2    1    2    0    0 -0.75699556135E-02  0.79400897421E-02 -0.82729533494E-02  0.10301898759E+01  0.10300982426E+01 0.  0.
     999903    2    3    3    0    0 -0.26947724935E-01  0.95835080474E-01  0.88178528630E-01  0.14035623093E+00  0.44876231151E-01 0.  0.
         14    1    1    2    0    0  0.75699556135E-02 -0.79400897421E-02  0.82729533494E-02  0.13740124098E-01  0.00000000000E+00 0.  1.
     999901    1    3    3    0    0  0.19377769321E-01 -0.87894990732E-01 -0.96451481979E-01  0.88983364497E+00  0.88000000000E+00 0. -1.
        -11    1    4    4    0    0  0.12495842642E-01  0.29011192660E-01  0.24711995710E-01  0.40109091686E-01  0.51100000000E-03 0.  1.
         11    1    4    4    0    0 -0.39443567577E-01  0.66823887814E-01  0.63466532920E-01  0.10024713925E+00  0.51100000000E-03 0. -1.
</event>
<event>
 8    1  0.2091070E+004  0.1043930E+01  0.7957747E-01            NaN
         13   -1    0    0    0    0  0.00000000000E+00  0.00000000000E+00  0.74505805969E-08  0.10566000000E+00  0.10566000000E+00 0. -1.
     999900   -1    0    0    0    0 -0.00000000000E+00 -0.00000000000E+00 -0.74505805969E-08  0.93827000000E+00  0.93827000000E+00 0.  1.
     999902    2    1    2    0    0 -0.34317643246E-02 -0.10231565655E-01  0.91180995630E-02  0.10298019541E+01  0.10297050369E+01 0.  0.
     999903    2    3    3    0    0 -0.98311165580E-01  0.81096066833E-01 -0.32179730089E-01  0.13904477730E+00  0.45345978122E-01 0.  0.
         14    1    1    2    0    0  0.34317643246E-02  0.10231565655E-01 -0.91180995630E-02  0.14128045929E-01  0.00000000000E+00 0.  1.
     999901    1    3    3    0    0  0.94879401255E-01 -0.91327632488E-01  0.41297829652E-01  0.89075717677E+00  0.88000000000E+00 0.  1.
        -11    1    4    4    0    0 -0.87857063242E-01  0.50287323417E-01 -0.15277146745E-01  0.10237837072E+00  0.51100000000E-03 0.  1.
         11    1    4    4    0    0 -0.10454102338E-01  0.30808743416E-01 -0.16902583343E-01  0.36666406577E-01  0.51100000000E-03 0. -1.
</event>
<event>
 8    1  0.2091070E+004  0.1043930E+01  0.7957747E-01            NaN
         13   -1    0    0    0    0  0.00000000000E+00  0.00000000000E+00  0.74505805969E-08  0.10566000000E+00  0.10566000000E+00 0.  1.
     999900   -1    0    0    0    0 -0.00000000000E+00 -0.00000000000E+00 -0.74505805969E-08  0.93827000000E+00  0.93827000000E+00 0. -1.
     999902    2    1    2    0    0 -0.29714253448E-02  0.13477368618E-01  0.92475265150E-03  0.10300980081E+01  0.10300051370E+01 0.  0.
     999903    2    3    3    0    0 -0.13222251468E+00  0.95873303439E-02  0.12104370004E-01  0.14057793503E+00  0.45176650511E-01 0.  0.
         14    1    1    2    0    0  0.29714253448E-02 -0.13477368618E-01 -0.92475265150E-03  0.13831991936E-01  0.00000000000E+00 0. -1.
     999901    1    3    3    0    0  0.12925108934E+00  0.38900382745E-02 -0.11179617352E-01  0.88952007304E+00  0.88000000000E+00 0. -1.
        -11    1    4    4    0    0 -0.41223501257E-01 -0.17643278551E-01  0.76092618048E-02  0.45484330490E-01  0.51100000000E-03 0. -1.
         11    1    4    4    0    0 -0.90999013424E-01  0.27230608895E-01  0.44951081988E-02  0.95093604536E-01  0.51100000000E-03 0.  1.
</event>
<event>
 8    1  0.2091070E+004  0.1043930E+01  0.7957747E-01            NaN
         13   -1    0    0    0    0  0.00000000000E+00  0.00000000000E+00  0.74505805969E-08  0.10566000000E+00  0.10566000000E+00 0.  1.
     999900   -1    0    0    0    0 -0.00000000000E+00 -0.00000000000E+00 -0.74505805969E-08  0.93827000000E+00  0.93827000000E+00 0.  1.
     999902    2    1    2    0    0 -0.38343246729E-03 -0.13813434949E-01  0.24011594146E-02  0.10299041819E+01  0.10298086718E+01 0.  0.
     999903    2    3    3    0    0 -0.10739480782E+00  0.53585942390E-01 -0.55824447341E-01  0.13895843062E+00  0.42284495394E-01 0.  0.
         14    1    1    2    0    0  0.38343246729E-03  0.13813434949E-01 -0.24011594146E-02  0.14025818054E-01  0.00000000000E+00 0.  1.
     999901    1    3    3    0    0  0.10701137536E+00 -0.67399377339E-01  0.58225606755E-01  0.89094575132E+00  0.88000000000E+00 0.  1.
        -11    1    4    4    0    0 -0.64239558770E-01  0.29838041579E-01 -0.55020417067E-01  0.89691343236E-01  0.51100000000E-03 0.  1.
         11    1    4    4    0    0 -0.43155249053E-01  0.23747900811E-01 -0.80403027353E-03  0.49267087386E-01  0.51100000000E-03 0. -1.
</event>
<event>
 8    1  0.2091070E+004  0.1043930E+01  0.7957747E-01            NaN
         13   -1    0    0    0    0  0.00000000000E+00  0.00000000000E+00  0.74505805969E-08  0.10566000000E+00  0.10566000000E+00 0.  1.
     999900   -1    0    0    0    0 -0.00000000000E+00 -0.00000000000E+00 -0.74505805969E-08  0.93827000000E+00  0.93827000000E+00 0. -1.
     999902    2    1    2    0    0 -0.30304108510E-02 -0.12631713441E-01  0.31990917082E-02  0.10305517429E+01  0.10304649034E+01 0.  0.
     999903    2    3    3    0    0  0.12740088926E+00  0.32522912669E-01  0.11288579310E-01  0.13975619730E+00  0.45996045794E-01 0.  0.
         14    1    1    2    0    0  0.30304108510E-02  0.12631713441E-01 -0.31990917082E-02  0.13378257066E-01  0.00000000000E+00 0.  1.
     999901    1    3    3    0    0 -0.13043130011E+00 -0.45154626110E-01 -0.80894876023E-02  0.89079554563E+00  0.88000000000E+00 0. -1.
        -11    1    4    4    0    0 -0.55067728209E-03 -0.46207972948E-02 -0.32961941941E-02  0.57254720568E-02  0.51100000000E-03 0. -1.
         11    1    4    4    0    0  0.12795156654E+00  0.37143709964E-01  0.14584773505E-01  0.13403072524E+00  0.51100000000E-03 0.  1.
</event>
<event>
 8    1  0.2091070E+004  0.1043930E+01  0.7957747E-01            NaN
         13   -1    0    0    0    0  0.00000000000E+00  0.00000000000E+00  0.74505805969E-08  0.10566000000E+00  0.10566000000E+00 0.  1.
     999900   -1    0    0    0    0 -0.00000000000E+00 -0.00000000000E+00 -0.74505805969E-08  0.93827000000E+00  0.93827000000E+00 0. -1.
     999902    2    1    2    0    0  0.52351312994E-02  0.17831490556E-03 -0.12001750358E-01  0.10308349472E+01  0.10307517684E+01 0.  0.
     999903    2    3    3    0    0 -0.79471913168E-01  0.57309320777E-01  0.88190376356E-01  0.13927580869E+00  0.44945135167E-01 0.  0.
         14    1    1    2    0    0 -0.52351312994E-02 -0.17831490556E-03  0.12001750358E-01  0.13095052790E-01  0.00000000000E+00 0.  1.
     999901    1    3    3    0    0  0.84707044468E-01 -0.57131005871E-01 -0.10019212671E+00  0.89155913852E+00  0.88000000000E+00 0. -1.
        -11    1    4    4    0    0 -0.20707445297E-01  0.16105828866E-01  0.88148295455E-03  0.26253269271E-01  0.51100000000E-03 0.  1.
         11    1    4    4    0    0 -0.58764467871E-01  0.41203491911E-01  0.87308893402E-01  0.11302253942E+00  0.51100000000E-03 0. -1.
</event>
<event>
 8    1  0.2091070E+004  0.1043930E+01  0.7957747E-01            NaN
         13   -1    0    0    0    0  0.00000000000E+00  0.00000000000E+00  0.74505805969E-08  0.10566000000E+00  0.10566000000E+00 0. -1.
     999900   -1    0    0    0    0 -0.00000000000E+00 -0.00000000000E+00 -0.74505805969E-08  0.93827000000E+00  0.93827000000E+00 0. -1.
     999902    2    1    2    0    0  0.13532719750E-01  0.60743487648E-02 -0.54942306959E-02  0.10281116945E+01  0.10279899988E+01 0.  0.
     999903    2    3    3    0    0 -0.12625868794E+00  0.12663867312E-01  0.20204419455E-01  0.13668279662E+00  0.46608352388E-01 0.  0.
         14    1    1    2    0    0 -0.13532719750E-01 -0.60743487648E-02  0.54942306959E-02  0.15818305462E-01  0.00000000000E+00 0. -1.
     999901    1    3    3    0    0  0.13979140769E+00 -0.65895185474E-02 -0.25698650151E-01  0.89142889791E+00  0.88000000000E+00 0. -1.
        -11    1    4    4    0    0 -0.87190422057E-01  0.28725560506E-01  0.21997418395E-01  0.94400609436E-01  0.51100000000E-03 0.  1.
         11    1    4    4    0    0 -0.39068265880E-01 -0.16061693194E-01 -0.17929989404E-02  0.42282187187E-01  0.51100000000E-03 0. -1.
</event>
<event>
 7    1  0.3428451E+004  0.1043930E+01  0.7957747E-01            NaN
         13   -1    0    0    0    0  0.00000000000E+00  0.00000000000E+00  0.74505805969E-08  0.10566000000E+00  0.10566000000E+00 0.  1.
     999900   -1    0    0    0    0 -0.00000000000E+00 -0.00000000000E+00 -0.74505805969E-08  0.93827000000E+00  0.93827000000E+00 0.  1.
     999903    2    1    2    0    0  0.81018682103E-01 -0.29948274201E-02 -0.77438938484E-01  0.12081603710E+00  0.45019215746E-01 0.  0.
         14    1    1    2    0    0 -0.35523332237E-01  0.15747455869E-02  0.18208438326E-01  0.39949144962E-01  0.00000000000E+00 0.  1.
     999901    1    1    2    0    0 -0.45495349866E-01  0.14200818333E-02  0.59230500158E-01  0.88316481794E+00  0.88000000000E+00 0. -1.
        -11    1    3    3    0    0  0.38557160844E-01 -0.23605356987E-01 -0.42908949110E-01  0.62332227343E-01  0.51100000000E-03 0.  1.
         11    1    3    3    0    0  0.42461521260E-01  0.20610529567E-01 -0.34529989374E-01  0.58483809759E-01  0.51100000000E-03 0. -1.
</event>
<event>
 8    1  0.2091070E+004  0.1043930E+01  0.7957747E-01            NaN
         13   -1    0    0    0    0  0.00000000000E+00  0.00000000000E+00  0.74505805969E-08  0.10566000000E+00  0.10566000000E+00 0.  1.
     999900   -1    0    0    0    0 -0.00000000000E+00 -0.00000000000E+00 -0.74505805969E-08  0.93827000000E+00  0.93827000000E+00 0.  1.
     999902    2    1    2    0    0  0.93246433358E-02 -0.61659893540E-03  0.10767305730E-01  0.10296729302E+01  0.10295742222E+01 0.  0.
     999903    2    3    3    0    0 -0.46993451286E-02  0.52212411405E-01 -0.11986310475E+00  0.13835262818E+00  0.45011843957E-01 0.  0.
         14    1    1    2    0    0 -0.93246433358E-02  0.61659893540E-03 -0.10767305730E-01  0.14257069835E-01  0.00000000000E+00 0. -1.
     999901    1    3    3    0    0  0.14023988464E-01 -0.52829010340E-01  0.13063041048E+00  0.89132030198E+00  0.88000000000E+00 0. -1.
        -11    1    4    4    0    0 -0.21982875389E-01  0.12798109982E-01 -0.53699844739E-01  0.59421989831E-01  0.51100000000E-03 0. -1.
         11    1    4    4    0    0  0.17283530260E-01  0.39414301423E-01 -0.66163260007E-01  0.78930638351E-01  0.51100000000E-03 0.  1.
</event>
<event>
 8    1  0.2091070E+004  0.1043930E+01  0.7957747E-01            NaN
         13   -1    0    0    0    0  0.00000000000E+00  0.00000000000E+00  0.74505805969E-08  0.10566000000E+00  0.10566000000E+00 0.  1.
     999900   -1    0    0    0    0 -0.00000000000E+00 -0.00000000000E+00 -0.74505805969E-08  0.93827000000E+00  0.93827000000E+00 0.  1.
     999902    2    1    2    0    0  0.21653743743E-02  0.10178779362E-01  0.57494548159E-02  0.10320408189E+01  0.10319723346E+01 0.  0.
     999903    2    3    3    0    0  0.10838351973E+00  0.32475743479E-03  0.77594598887E-01  0.14269211294E+00  0.50921748809E-01 0.  0.
         14    1    1    2    0    0 -0.21653743743E-02 -0.10178779362E-01 -0.57494548159E-02  0.11889181055E-01  0.00000000000E+00 0. -1.
     999901    1    3    3    0    0 -0.10621814536E+00  0.98540219271E-02 -0.71845144071E-01  0.88934870601E+00  0.88000000000E+00 0.  1.
        -11    1    4    4    0    0  0.81529247579E-01  0.21002892318E-01  0.65612222421E-01  0.10673970465E+00  0.51100000000E-03 0. -1.
         11    1    4    4    0    0  0.26854272151E-01 -0.20678134883E-01  0.11982376466E-01  0.35952408289E-01  0.51100000000E-03 0.  1.
</event>
<event>
 8    1  0.2091070E+004  0.1043930E+01  0.7957747E-01            NaN
         13   -1    0    0    0    0  0.00000000000E+00  0.00000000000E+00  0.74505805969E-08  0.10566000000E+00  0.10566000000E+00 0. -1.
     999900   -1    0    0    0    0 -0.00000000000E+00 -0.00000000000E+00 -0.74505805969E-08  0.93827000000E+00  0.93827000000E+00 0.  1.
     999902    2    1    2    0    0 -0.89547957780E-02  0.10398055995E-03  0.11006499409E-01  0.10297404895E+01  0.10296427213E+01 0.  0.
     999903    2    3    3    0    0  0.75921559494E-01  0.10585033476E+00 -0.26958004419E-01  0.13854601539E+00  0.38728385098E-01 0.  0.
         14    1    1    2    0    0  0.89547957780E-02 -0.10398055995E-03 -0.11006499409E-01  0.14189510514E-01  0.00000000000E+00 0.  1.
     999901    1    3    3    0    0 -0.84876355272E-01 -0.10574635420E+00  0.37964503829E-01  0.89119447410E+00  0.88000000000E+00 0. -1.
        -11    1    4    4    0    0 -0.25523658562E-02  0.10742251061E-01 -0.83343173982E-02  0.13843138980E-01  0.51100000000E-03 0.  1.
         11    1    4    4    0    0  0.78473925350E-01  0.95108083701E-01 -0.18623687021E-01  0.12470287641E+00  0.51100000000E-03 0. -1.
</event>
<event>
 8    1  0.2091070E+004  0.1043930E+01  0.7957747E-01            NaN
         13   -1    0    0    0    0  0.00000000000E+00  0.00000000000E+00  0.74505805969E-08  0.10566000000E+00  0.10566000000E+00 0.  1.
     999900   -1    0    0    0    0 -0.00000000000E+00 -0.00000000000E+00 -0.74505805969E-08  0.93827000000E+00  0.93827000000E+00 0. -1.
     999902    2    1    2    0    0 -0.67451250253E-02  0.58078419770E-02 -0.99113574401E-02  0.10306084856E+01  0.10305223859E+01 0.  0.
     999903    2    3    3    0    0 -0.42741428003E-01  0.31926653448E-01 -0.12365999245E+00  0.14217352561E+00  0.45556303440E-01 0.  0.
         14    1    1    2    0    0  0.67451250253E-02 -0.58078419770E-02  0.99113574401E-02  0.13321514416E-01  0.00000000000E+00 0.  1.
     999901    1    3    3    0    0  0.35996302978E-01 -0.26118811471E-01  0.11374863501E+00  0.88843495998E+00  0.88000000000E+00 0.  1.
        -11    1    4    4    0    0  0.37297895253E-02 -0.73273863271E-02 -0.24420390287E-01  0.25772436887E-01  0.51100000000E-03 0. -1.
         11    1    4    4    0    0 -0.46471217528E-01  0.39254039775E-01 -0.99239602162E-01  0.11640108872E+00  0.51100000000E-03 0.  1.
</event>
<event>
 8    1  0.2091070E+004  0.1043930E+01  0.7957747E-01            NaN
         13   -1    0    0    0    0  0.00000000000E+00  0.00000000000E+00  0.74505805969E-08  0.10566000000E+00  0.10566000000E+00 0. -1.
     999900   -1    0    0    0    0 -0.00000000000E+00 -0.00000000000E+00 -0.74505805969E-08  0.93827000000E+00  0.93827000000E+00 0.  1.
     999902    2    1    2    0    0  0.67605721287E-02 -0.16863544739E-01  0.58197741999E-02  0.10248524150E+01  0.10246748354E+01 0.  0.
     999903    2    3    3    0    0  0.10986052486E+00  0.50933529763E-01  0.41472912421E-01  0.13552840780E+00  0.44546464271E-01 0.  0.
         14    1    1    2    0    0 -0.67605721287E-02  0.16863544739E-01 -0.58197741999E-02  0.19077584974E-01  0.00000000000E+00 0.  1.
     999901    1    3    3    0    0 -0.10309995273E+00 -0.67797074502E-01 -0.35653138221E-01  0.88932400723E+00  0.88000000000E+00 0. -1.
        -11    1    4    4    0    0  0.49625452843E-01 -0.74031685755E-03  0.14563883478E-01  0.51726216389E-01  0.51100000000E-03 0. -1.
         11    1    4    4    0    0  0.60235072019E-01  0.51673846620E-01  0.26909028943E-01  0.83802191411E-01  0.51100000000E-03 0.  1.
</event>
<event>
 8    1  0.2091070E+004  0.1043930E+01  0.7957747E-01            NaN
         13   -1    0    0    0    0  0.00000000000E+00  0.00000000000E+00  0.74505805969E-08  0.10566000000E+00  0.10566000000E+00 0. -1.
     999900   -1    0    0    0    0 -0.00000000000E+00 -0.00000000000E+00 -0.74505805969E-08  0.93827000000E+00  0.93827000000E+00 0. -1.
     999902    2    1    2    0    0  0.20783055888E-02 -0.11859046666E-01  0.78710990509E-02  0.10295456146E+01  0.10294451234E+01 0.  0.
     999903    2    3    3    0    0  0.74809222985E-01  0.89592458806E-01 -0.58800272359E-01  0.13823912074E+00  0.45048351288E-01 0.  0.
         14    1    1    2    0    0 -0.20783055888E-02  0.11859046666E-01 -0.78710990509E-02  0.14384385361E-01  0.00000000000E+00 0.  1.
     999901    1    3    3    0    0 -0.72730917397E-01 -0.10145150547E+00  0.66671371410E-01  0.89130649390E+00  0.88000000000E+00 0.  1.
        -11    1    4    4    0    0  0.16947249324E-01  0.39945126368E-01 -0.41526979919E-01  0.60063079861E-01  0.51100000000E-03 0.  1.
         11    1    4    4    0    0  0.57861973661E-01  0.49647332438E-01 -0.17273292440E-01  0.78176040875E-01  0.51100000000E-03 0. -1.
</event>
<event>
 8    1  0.2091070E+004  0.1043930E+01  0.7957747E-01            NaN
         13   -1    0    0    0    0  0.00000000000E+00  0.00000000000E+00  0.74505805969E-08  0.10566000000E+00  0.10566000000E+00 0. -1.
     999900   -1    0    0    0    0 -0.00000000000E+00 -0.00000000000E+00 -0.74505805969E-08  0.93827000000E+00  0.93827000000E+00 0. -1.
     999902    2    1    2    0    0 -0.12158149110E-01  0.47788527916E-02  0.39587877838E-02  0.10302797244E+01  0.10301892935E+01 0.  0.
     999903    2    3    3    0    0 -0.41437595168E-01 -0.87501695628E-01 -0.91262461296E-01  0.13986405075E+00  0.43121860093E-01 0.  0.
         14    1    1    2    0    0  0.12158149110E-01 -0.47788527916E-02 -0.39587877838E-02  0.13650275620E-01  0.00000000000E+00 0.  1.
     999901    1    3    3    0    0  0.29279446057E-01  0.92280548420E-01  0.95221249080E-01  0.89041567363E+00  0.88000000000E+00 0.  1.
        -11    1    4    4    0    0 -0.28693957404E-01 -0.42366700130E-01 -0.20840658267E-01  0.55252824628E-01  0.51100000000E-03 0. -1.
         11    1    4    4    0    0 -0.12743637764E-01 -0.45134995498E-01 -0.70421803029E-01  0.84611226117E-01  0.51100000000E-03 0.  1.
</event>
<event>
 8    1  0.3267175E+004  0.1043930E+01  0.7957747E-01            NaN
         13   -1    0    0    0    0  0.00000000000E+00  0.00000000000E+00  0.74505805969E-08  0.10566000000E+00  0.10566000000E+00 0. -1.
     999900   -1    0    0    0    0 -0.00000000000E+00 -0.00000000000E+00 -0.74505805969E-08  0.93827000000E+00  0.93827000000E+00 0.  1.
     999902    2    1    2    0    0 -0.11572013575E-01 -0.70552798525E-02  0.47423436548E-02  0.10295710900E+01  0.10294709569E+01 0.  0.
     999903    2    3    3    0    0 -0.75317456256E-01 -0.58642774444E-01 -0.93069715589E-01  0.14036248122E+00  0.43908540892E-01 0.  0.
         14    1    1    2    0    0  0.11572013575E-01  0.70552798525E-02 -0.47423436548E-02  0.14358909962E-01  0.00000000000E+00 0.  1.
     999901    1    3    3    0    0  0.63745442682E-01  0.51587494591E-01  0.97812059243E-01  0.88920860882E+00  0.88000000000E+00 0. -1.
        -11    1    4    4    0    0 -0.36532033781E-01 -0.54672002238E-01 -0.63662045279E-01  0.91524501917E-01  0.51100000000E-03 0. -1.
         11    1    4    4    0    0 -0.38785422475E-01 -0.39707722055E-02 -0.29407670309E-01  0.48837979304E-01  0.51100000000E-03 0.  1.
</event>
<event>
 8    1  0.2091070E+004  0.1043930E+01  0.7957747E-01            NaN
         13   -1    0    0    0    0  0.00000000000E+00  0.00000000000E+00  0.74505805969E-08  0.10566000000E+00  0.10566000000E+00 0. -1.
     999900   -1    0    0    0    0 -0.00000000000E+00 -0.00000000000E+00 -0.74505805969E-08  0.93827000000E+00  0.93827000000E+00 0.  1.
     999902    2    1    2    0    0  0.37447867452E-02 -0.50983059127E-02  0.12906776473E-01  0.10295563773E+01  0.10294560374E+01 0.  0.
     999903    2    3    3    0    0 -0.42900184849E-01 -0.12322495425E+00 -0.19802788179E-01  0.13983755988E+00  0.46233943436E-01 0.  0.
         14    1    1    2    0    0 -0.37447867452E-02  0.50983059127E-02 -0.12906776473E-01  0.14373622712E-01  0.00000000000E+00 0.  1.
     999901    1    3    3    0    0  0.46644971594E-01  0.11812664833E+00  0.32709564653E-01  0.88971881740E+00  0.88000000000E+00 0. -1.
        -11    1    4    4    0    0 -0.35232837326E-01 -0.97757027826E-01  0.42125482068E-02  0.10399901922E+00  0.51100000000E-03 0. -1.
         11    1    4    4    0    0 -0.76673475229E-02 -0.25467926420E-01 -0.24015336386E-01  0.35838540664E-01  0.51100000000E-03 0.  1.
</event>
<event>
 8    1  0.2091070E+004  0.1043930E+01  0.7957747E-01            NaN
         13   -1    0    0    0    0  0.00000000000E+00  0.00000000000E+00  0.74505805969E-08  0.10566000000E+00  0.10566000000E+00 0. -1.
     999900   -1    0    0    0    0 -0.00000000000E+00 -0.00000000000E+00 -0.74505805969E-08  0.93827000000E+00  0.93827000000E+00 0. -1.
     999902    2    1    2    0    0 -0.54737942245E-02 -0.19481919252E-02 -0.13452302424E-01  0.10292765937E+01  0.10291722810E+01 0.  0.
     999903    2    3    3    0    0 -0.50932449060E-01 -0.52789769674E-01  0.10824947990E+00  0.13828687484E+00  0.44993729639E-01 0.  0.
         14    1    1    2    0    0  0.54737942245E-02  0.19481919252E-02  0.13452302424E-01  0.14653406276E-01  0.00000000000E+00 0. -1.
     999901    1    3    3    0    0  0.45458654835E-01  0.50841577748E-01 -0.12170178232E+00  0.89098971888E+00  0.88000000000E+00 0. -1.
        -11    1    4    4    0    0 -0.29005161838E-01 -0.79049274964E-03  0.29288507183E-01  0.41231081311E-01  0.51100000000E-03 0.  1.
         11    1    4    4    0    0 -0.21927287222E-01 -0.51999276924E-01  0.78960972714E-01  0.97055793534E-01  0.51100000000E-03 0. -1.
</event>
<event>
 8    1  0.2091070E+004  0.1043930E+01  0.7957747E-01            NaN
         13   -1    0    0    0    0  0.00000000000E+00  0.00000000000E+00  0.74505805969E-08  0.10566000000E+00  0.10566000000E+00 0.  1.
     999900   -1    0    0    0    0 -0.00000000000E+00 -0.00000000000E+00 -0.74505805969E-08  0.93827000000E+00  0.93827000000E+00 0.  1.
     999902    2    1    2    0    0  0.10301883113E-01 -0.62918258137E-02  0.32730121598E-02  0.10314228630E+01  0.10313470288E+01 0.  0.
     999903    2    3    3    0    0  0.60737748732E-01 -0.69796468988E-01  0.98621079154E-01  0.14256524214E+00  0.45145429559E-01 0.  0.
         14    1    1    2    0    0 -0.10301883113E-01  0.62918258137E-02 -0.32730121598E-02  0.12507137016E-01  0.00000000000E+00 0. -1.
     999901    1    3    3    0    0 -0.50435865619E-01  0.63504643174E-01 -0.95348066994E-01  0.88885762084E+00  0.88000000000E+00 0. -1.
        -11    1    4    4    0    0  0.51934682850E-01 -0.75658862770E-01  0.92662635648E-01  0.13041510635E+00  0.51100000000E-03 0. -1.
         11    1    4    4    0    0  0.88030658813E-02  0.58623937826E-02  0.59584435056E-02  0.12150135793E-01  0.51100000000E-03 0.  1.
</event>
<event>
 8    1  0.2091070E+004  0.1043930E+01  0.7957747E-01            NaN
         13   -1    0    0    0    0  0.00000000000E+00  0.00000000000E+00  0.74505805969E-08  0.10566000000E+00  0.10566000000E+00 0.  1.
     999900   -1    0    0    0    0 -0.00000000000E+00 -0.00000000000E+00 -0.74505805969E-08  0.93827000000E+00  0.93827000000E+00 0. -1.
     999902    2    1    2    0    0  0.34911456241E-03  0.12395095163E-01 -0.56846511206E-02  0.10302890498E+01  0.10301987432E+01 0.  0.
     999903    2    3    3    0    0 -0.10254344730E+00  0.45826466648E-01  0.71500459555E-01  0.14031035496E+00  0.44265747056E-01 0.  0.
         14    1    1    2    0    0 -0.34911456241E-03 -0.12395095163E-01  0.56846511206E-02  0.13640950239E-01  0.00000000000E+00 0.  1.
     999901    1    3    3    0    0  0.10289256187E+00 -0.33431371486E-01 -0.77185110676E-01  0.88997869480E+00  0.88000000000E+00 0. -1.
        -11    1    4    4    0    0 -0.91904208869E-01  0.54000298242E-01  0.67988750996E-01  0.12643238193E+00  0.51100000000E-03 0. -1.
         11    1    4    4    0    0 -0.10639238434E-01 -0.81738315940E-02  0.35117085592E-02  0.13877973029E-01  0.51100000000E-03 0.  1.
</event>
<event>
 8    1  0.2091070E+004  0.1043930E+01  0.7957747E-01            NaN
         13   -1    0    0    0    0  0.00000000000E+00  0.00000000000E+00  0.74505805969E-08  0.10566000000E+00  0.10566000000E+00 0.  1.
     999900   -1    0    0    0    0 -0.00000000000E+00 -0.00000000000E+00 -0.74505805969E-08  0.93827000000E+00  0.93827000000E+00 0.  1.
     999902    2    1    2    0    0 -0.15059253037E-02 -0.10609536218E-01 -0.89947897285E-02  0.10299394206E+01  0.10298443930E+01 0.  0.
     999903    2    3    3    0    0  0.11434092732E+00 -0.58880538931E-01  0.31649306386E-01  0.14010655679E+00  0.45688107156E-01 0.  0.
         14    1    1    2    0    0  0.15059253037E-02  0.10609536218E-01  0.89947897285E-02  0.13990579404E-01  0.00000000000E+00 0.  1.
     999901    1    3    3    0    0 -0.11584685262E+00  0.48271002713E-01 -0.40644096114E-01  0.88983286381E+00  0.88000000000E+00 0.  1.
        -11    1    4    4    0    0  0.44261788984E-01 -0.21892784580E-01  0.35423109923E-01  0.60773825109E-01  0.51100000000E-03 0.  1.
         11    1    4    4    0    0  0.70079138333E-01 -0.36987754352E-01 -0.37738035372E-02  0.79332731679E-01  0.51100000000E-03 0. -1.
</event>
<event>
 8    1  0.2091070E+004  0.1043930E+01  0.7957747E-01            NaN
         13   -1    0    0    0    0  0.00000000000E+00  0.00000000000E+00  0.74505805969E-08  0.10566000000E+00  0.10566000000E+00 0.  1.
     999900   -1    0    0    0    0 -0.00000000000E+00 -0.00000000000E+00 -0.74505805969E-08  0.93827000000E+00  0.93827000000E+00 0.  1.
     999902    2    1    2    0    0  0.10107806104E-01 -0.18566419518E-01 -0.13863732410E-01  0.10186499139E+01  0.10183361745E+01 0.  0.
     999903    2    3    3    0    0  0.30707042182E-01  0.28480043048E-01  0.11225041999E+00  0.12817673764E+00  0.45553089829E-01 0.  0.
         14    1    1    2    0    0 -0.10107806104E-01  0.18566419518E-01  0.13863732410E-01  0.25280086121E-01  0.00000000000E+00 0. -1.
     999901    1    3    3    0    0 -0.20599236078E-01 -0.47046462566E-01 -0.12611415240E+00  0.89047317624E+00  0.88000000000E+00 0.  1.
        -11    1    4    4    0    0  0.29409069068E-02  0.89440306079E-02  0.82487631109E-01  0.83024785600E-01  0.51100000000E-03 0. -1.
         11    1    4    4    0    0  0.27766135275E-01  0.19536012440E-01  0.29762788879E-01  0.45151952040E-01  0.51100000000E-03 0.  1.
</event>
<event>
 8    1  0.2091070E+004  0.1043930E+01  0.7957747E-01            NaN
         13   -1    0    0    0    0  0.00000000000E+00  0.00000000000E+00  0.74505805969E-08  0.10566000000E+00  0.10566000000E+00 0. -1.
     999900   -1    0    0    0    0 -0.00000000000E+00 -0.00000000000E+00 -0.74505805969E-08  0.93827000000E+00  0.93827000000E+00 0.  1.
     999902    2    1    2    0    0 -0.10636480913E-01  0.80231130933E-02 -0.32026601308E-02  0.10302273688E+01  0.10301362382E+01 0.  0.
     999903    2    3    3    0    0  0.69113052386E-02 -0.10744156784E+00  0.76128641833E-01  0.13897349205E+00  0.43893105919E-01 0.  0.
         14    1    1    2    0    0  0.10636480913E-01 -0.80231130933E-02  0.32026601308E-02  0.13702631201E-01  0.00000000000E+00 0. -1.
     999901    1    3    3    0    0 -0.17547786152E-01  0.11546468093E+00 -0.79331301964E-01  0.89125387674E+00  0.88000000000E+00 0.  1.
        -11    1    4    4    0    0 -0.83322738444E-02 -0.88457816863E-01  0.45437564249E-01  0.99795017498E-01  0.51100000000E-03 0. -1.
         11    1    4    4    0    0  0.15243579083E-01 -0.18983750973E-01  0.30691077583E-01  0.39178474556E-01  0.51100000000E-03 0.  1.
</event>
<event>
 8    1  0.2091070E+004  0.1043930E+01  0.7957747E-01            NaN
         13   -1    0    0    0    0  0.00000000000E+00  0.00000000000E+00  0.74505805969E-08  0.10566000000E+00  0.10566000000E+00 0.  1.
     999900   -1    0    0    0    0 -0.00000000000E+00 -0.00000000000E+00 -0.74505805969E-08  0.93827000000E+00  0.93827000000E+00 0. -1.
     999902    2    1    2    0    0 -0.23762972426E-02  0.38738191781E-02  0.14165891939E-01  0.10290529789E+01  0.10289454347E+01 0.  0.
     999903    2    3    3    0    0  0.77555650855E-01 -0.10512757657E+00  0.11159422246E-01  0.13872749935E+00  0.45322180396E-01 0.  0.
         14    1    1    2    0    0  0.23762972426E-02 -0.38738191781E-02 -0.14165891939E-01  0.14877021141E-01  0.00000000000E+00 0. -1.
     999901    1    3    3    0    0 -0.79931948097E-01  0.10900139575E+00  0.30064696931E-02  0.89032547951E+00  0.88000000000E+00 0.  1.
        -11    1    4    4    0    0  0.23366029981E-01 -0.66596547075E-01  0.14878813353E-01  0.72129824949E-01  0.51100000000E-03 0. -1.
         11    1    4    4    0    0  0.54189620874E-01 -0.38531029497E-01 -0.37193911069E-02  0.66597674402E-01  0.51100000000E-03 0.  1.
</event>
<event>
 8    1  0.2091070E+004  0.1043930E+01  0.7957747E-01            NaN
         13   -1    0    0    0    0  0.00000000000E+00  0.00000000000E+00  0.74505805969E-08  0.10566000000E+00  0.10566000000E+00 0. -1.
     999900   -1    0    0    0    0 -0.00000000000E+00 -0.00000000000E+00 -0.74505805969E-08  0.93827000000E+00  0.93827000000E+00 0. -1.
     999902    2    1    2    0    0 -0.46062184419E-02  0.11408802891E-01  0.98957055382E-02  0.10281406675E+01  0.10280194206E+01 0.  0.
     999903    2    3    3    0    0  0.10895521502E-01  0.90952023987E-01 -0.93636322888E-01  0.13837310863E+00  0.44591178178E-01 0.  0.
         14    1    1    2    0    0  0.46062184419E-02 -0.11408802891E-01 -0.98957055382E-02  0.15789332470E-01  0.00000000000E+00 0.  1.
     999901    1    3    3    0    0 -0.15501739944E-01 -0.79543221096E-01  0.10353202843E+00  0.88976755890E+00  0.88000000000E+00 0.  1.
        -11    1    4    4    0    0  0.66288479035E-02  0.49391600739E-01 -0.80311020449E-01  0.94517686042E-01  0.51100000000E-03 0.  1.
         11    1    4    4    0    0  0.42666735984E-02  0.41560423249E-01 -0.13325302439E-01  0.43855422587E-01  0.51100000000E-03 0. -1.
</event>
<event>
 8    1  0.2091070E+004  0.1043930E+01  0.7957747E-01            NaN
         13   -1    0    0    0    0  0.00000000000E+00  0.00000000000E+00  0.74505805969E-08  0.10566000000E+00  0.10566000000E+00 0. -1.
     999900   -1    0    0    0    0 -0.00000000000E+00 -0.00000000000E+00 -0.74505805969E-08  0.93827000000E+00  0.93827000000E+00 0.  1.
     999902    2    1    2    0    0 -0.12864988279E-01 -0.39440895177E-02  0.31663198527E-02  0.10301064930E+01  0.10300137366E+01 0.  0.
     999903    2    3    3    0    0 -0.44740618431E-01 -0.15047053026E-01  0.12512524771E+00  0.14105457564E+00  0.44854531014E-01 0.  0.
         14    1    1    2    0    0  0.12864988279E-01  0.39440895177E-02 -0.31663198527E-02  0.13823507042E-01  0.00000000000E+00 0. -1.
     999901    1    3    3    0    0  0.31875630152E-01  0.11102963508E-01 -0.12195892786E+00  0.88905191731E+00  0.88000000000E+00 0.  1.
        -11    1    4    4    0    0 -0.12757966213E-01 -0.15008642160E-01  0.11075695041E-01  0.22604362035E-01  0.51100000000E-03 0. -1.
         11    1    4    4    0    0 -0.31982652218E-01 -0.38410866249E-04  0.11404955267E+00  0.11845021361E+00  0.51100000000E-03 0.  1.
</event>
<event>
 8    1  0.2091070E+004  0.1043930E+01  0.7957747E-01            NaN
         13   -1    0    0    0    0  0.00000000000E+00  0.00000000000E+00  0.74505805969E-08  0.10566000000E+00  0.10566000000E+00 0. -1.
     999900   -1    0    0    0    0 -0.00000000000E+00 -0.00000000000E+00 -0.74505805969E-08  0.93827000000E+00  0.93827000000E+00 0. -1.
     999902    2    1    2    0    0  0.86981623554E-02 -0.11801554421E-01 -0.44238513490E-02  0.10286164382E+01  0.10285024413E+01 0.  0.
     999903    2    3    3    0    0  0.31483080827E-01  0.86716818722E-02 -0.12781037855E+00  0.13948059871E+00  0.45309624891E-01 0.  0.
         14    1    1    2    0    0 -0.86981623554E-02  0.11801554421E-01  0.44238513490E-02  0.15313561829E-01  0.00000000000E+00 0. -1.
     999901    1    3    3    0    0 -0.22784918472E-01 -0.20473236294E-01  0.12338652720E+00  0.88913583946E+00  0.88000000000E+00 0.  1.
        -11    1    4    4    0    0  0.41520891391E-01  0.34241908116E-02 -0.78373797444E-01  0.88760479671E-01  0.51100000000E-03 0. -1.
         11    1    4    4    0    0 -0.10037810564E-01  0.52474910606E-02 -0.49436581105E-01  0.50720119042E-01  0.51100000000E-03 0.  1.
</event>
<event>
 8    1  0.2091070E+004  0.1043930E+01  0.7957747E-01            NaN
         13   -1    0    0    0    0  0.00000000000E+00  0.00000000000E+00  0.74505805969E-08  0.10566000000E+00  0.10566000000E+00 0. -1.
     999900   -1    0    0    0    0 -0.00000000000E+00 -0.00000000000E+00 -0.74505805969E-08  0.93827000000E+00  0.93827000000E+00 0.  1.
     999902    2    1    2    0    0  0.21628437299E-03 -0.33441556693E-02  0.13003569511E-01  0.10305015609E+01  0.10304140644E+01 0.  0.
     999903    2    3    3    0    0  0.75740151435E-01 -0.83766045750E-01 -0.66894002051E-01  0.14002126533E+00  0.48762960056E-01 0.  0.
         14    1    1    2    0    0 -0.21628437299E-03  0.33441556693E-02 -0.13003569511E-01  0.13428439079E-01  0.00000000000E+00 0.  1.
     999901    1    3    3    0    0 -0.75523867062E-01  0.80421890081E-01  0.79897571561E-01  0.89048029559E+00  0.88000000000E+00 0. -1.
        -11    1    4    4    0    0  0.13733998205E-01 -0.81510280639E-02 -0.32754889945E-01  0.36444559286E-01  0.51100000000E-03 0.  1.
         11    1    4    4    0    0  0.62006153229E-01 -0.75615017686E-01 -0.34139112105E-01  0.10357670604E+00  0.51100000000E-03 0. -1.
</event>
<event>
 8    1  0.2091070E+004  0.1043930E+01  0.7957747E-01            NaN
         13   -1    0    0    0    0  0.00000000000E+00  0.00000000000E+00  0.74505805969E-08  0.10566000000E+00  0.10566000000E+00 0. -1.
     999900   -1    0    0    0    0 -0.00000000000E+00 -0.00000000000E+00 -0.74505805969E-08  0.93827000000E+00  0.93827000000E+00 0. -1.
     999902    2    1    2    0    0  0.25633024792E-02 -0.18789016369E-01  0.91858238470E-02  0.10228592379E+01  0.10226421874E+01 0.  0.
     999903    2    3    3    0    0  0.22851971271E-01 -0.12046311097E+00 -0.36519275964E-01  0.13559478592E+00  0.44930109703E-01 0.  0.
         14    1    1    2    0    0 -0.25633024792E-02  0.18789016369E-01 -0.91858238470E-02  0.21070762100E-01  0.00000000000E+00 0.  1.
     999901    1    3    3    0    0 -0.20288668792E-01  0.10167409460E+00  0.45705099811E-01  0.88726445198E+00  0.88000000000E+00 0.  1.
        -11    1    4    4    0    0  0.34143718408E-01 -0.59675571835E-01 -0.19170335247E-01  0.71377379155E-01  0.51100000000E-03 0. -1.
         11    1    4    4    0    0 -0.11291747136E-01 -0.60787539131E-01 -0.17348940717E-01  0.64217406768E-01  0.51100000000E-03 0.  1.
</event>
<event>
 8    1  0.2091070E+004  0.1043930E+01  0.7957747E-01            NaN
         13   -1    0    0    0    0  0.00000000000E+00  0.00000000000E+00  0.74505805969E-08  0.10566000000E+00  0.10566000000E+00 0. -1.
     999900   -1    0    0    0    0 -0.00000000000E+00 -0.00000000000E+00 -0.74505805969E-08  0.93827000000E+00  0.93827000000E+00 0.  1.
     999902    2    1    2    0    0  0.55264142353E-02 -0.95136537328E-02 -0.75058772564E-02  0.10306112517E+01  0.10305251880E+01 0.  0.
     999903    2    3    3    0    0 -0.12984217504E+00 -0.88713840486E-02 -0.25501770021E-01  0.14007831040E+00  0.45098790404E-01 0.  0.
         14    1    1    2    0    0 -0.55264142353E-02  0.95136537328E-02  0.75058772564E-02  0.13318748253E-01  0.00000000000E+00 0. -1.
     999901    1    3    3    0    0  0.13536858927E+00 -0.64226968421E-03  0.17995892764E-01  0.89053294135E+00  0.88000000000E+00 0.  1.
        -11    1    4    4    0    0 -0.43271408240E-01  0.15872945319E-01  0.13726042588E-02  0.46114101180E-01  0.51100000000E-03 0. -1.
         11    1    4    4    0    0 -0.86570766798E-01 -0.24744329368E-01 -0.26874374280E-01  0.93964209217E-01  0.51100000000E-03 0.  1.
</event>
<event>
 8    1  0.2091070E+004  0.1043930E+01  0.7957747E-01            NaN
         13   -1    0    0    0    0  0.00000000000E+00  0.00000000000E+00  0.74505805969E-08  0.10566000000E+00  0.10566000000E+00 0. -1.
     999900   -1    0    0    0    0 -0.00000000000E+00 -0.00000000000E+00 -0.74505805969E-08  0.93827000000E+00  0.93827000000E+00 0. -1.
     999902    2    1    2    0    0  0.46765622045E-02  0.40018137396E-02  0.14087072522E-01  0.10285569600E+01  0.10284420691E+01 0.  0.
     999903    2    3    3    0    0  0.11105442188E+00 -0.37070382749E-01  0.61678096396E-01  0.13992425750E+00  0.45467706852E-01 0.  0.
         14    1    1    2    0    0 -0.46765622045E-02 -0.40018137396E-02 -0.14087072522E-01  0.15373040021E-01  0.00000000000E+00 0.  1.
     999901    1    3    3    0    0 -0.10637785968E+00  0.41072196489E-01 -0.47591023874E-01  0.88863270247E+00  0.88000000000E+00 0. -1.
        -11    1    4    4    0    0  0.94018761209E-01 -0.47751232397E-01  0.50625351606E-01  0.11697390735E+00  0.51100000000E-03 0. -1.
         11    1    4    4    0    0  0.17035660672E-01  0.10680849648E-01  0.11052744790E-01  0.22950350153E-01  0.51100000000E-03 0.  1.
</event>
<event>
 8    1  0.2091070E+004  0.1043930E+01  0.7957747E-01            NaN
         13   -1    0    0    0    0  0.00000000000E+00  0.00000000000E+00  0.74505805969E-08  0.10566000000E+00  0.10566000000E+00 0. -1.
     999900   -1    0    0    0    0 -0.00000000000E+00 -0.00000000000E+00 -0.74505805969E-08  0.93827000000E+00  0.93827000000E+00 0.  1.
     999902    2    1    2    0    0 -0.73250595788E-02 -0.41932930550E-02  0.11317206387E-01  0.10298119490E+01  0.10297151698E+01 0.  0.
     999903    2    3    3    0    0  0.35912473786E-01  0.66158665506E-01 -0.10691132366E+00  0.13807383288E+00  0.44358509965E-01 0.  0.
         14    1    1    2    0    0  0.73250595788E-02  0.41932930550E-02 -0.11317206387E-01  0.14118051030E-01  0.00000000000E+00 0.  1.
     999901    1    3    3    0    0 -0.43237533365E-01 -0.70351958561E-01  0.11822853004E+00  0.89173811609E+00  0.88000000000E+00 0. -1.
        -11    1    4    4    0    0  0.20332019035E-01  0.26509015189E-01 -0.82412690084E-01  0.88928237879E-01  0.51100000000E-03 0. -1.
         11    1    4    4    0    0  0.15580454751E-01  0.39649650317E-01 -0.24498633572E-01  0.49145595005E-01  0.51100000000E-03 0.  1.
</event>
<event>
 8    1  0.2091070E+004  0.1043930E+01  0.7957747E-01            NaN
         13   -1    0    0    0    0  0.00000000000E+00  0.00000000000E+00  0.74505805969E-08  0.10566000000E+00  0.10566000000E+00 0. -1.
     999900   -1    0    0    0    0 -0.00000000000E+00 -0.00000000000E+00 -0.74505805969E-08  0.93827000000E+00  0.93827000000E+00 0.  1.
     999902    2    1    2    0    0  0.63958534106E-02 -0.10673656146E-01  0.59819973278E-02  0.10301235461E+01  0.10300310200E+01 0.  0.
     999903    2    3    3    0    0  0.11964220405E+00 -0.11946299171E-01 -0.57466473487E-01  0.14060004223E+00  0.44821928162E-01 0.  0.
         14    1    1    2    0    0 -0.63958534106E-02  0.10673656146E-01 -0.59819973278E-02  0.13806453868E-01  0.00000000000E+00 0.  1.
     999901    1    3    3    0    0 -0.11324635064E+00  0.12726430256E-02  0.63448470815E-01  0.88952350391E+00  0.88000000000E+00 0. -1.
        -11    1    4    4    0    0  0.34202391489E-01 -0.38573772364E-02 -0.40435002503E-01  0.53103045968E-01  0.51100000000E-03 0.  1.
         11    1    4    4    0    0  0.85439812564E-01 -0.80889219351E-02 -0.17031470984E-01  0.87496996257E-01  0.51100000000E-03 0. -1.
</event>
<event>
 8    1  0.2091070E+004  0.1043930E+01  0.7957747E-01            NaN
         13   -1    0    0    0    0  0.00000000000E+00  0.00000000000E+00  0.74505805969E-08  0.10566000000E+00  0.10566000000E+00 0. -1.
     999900   -1    0    0    0    0 -0.00000000000E+00 -0.00000000000E+00 -0.74505805969E-08  0.93827000000E+00  0.93827000000E+00 0. -1.
     999902    2    1    2    0    0 -0.74950638175E-02  0.12945999992E-02 -0.11363353499E-01  0.10302560184E+01  0.10301652710E+01 0.  0.
     999903    2    3    3    0    0  0.72448472665E-02 -0.11840022163E+00  0.57692849397E-01  0.13935036991E+00  0.44932843557E-01 0.  0.
         14    1    1    2    0    0  0.74950638175E-02 -0.12945999992E-02  0.11363353499E-01  0.13673981627E-01  0.00000000000E+00 0. -1.
     999901    1    3    3    0    0 -0.14739911084E-01  0.11969482162E+00 -0.69056202895E-01  0.89090564846E+00  0.88000000000E+00 0. -1.
        -11    1    4    4    0    0  0.48409041342E-02 -0.30878813265E-01 -0.50083187735E-02  0.31658803506E-01  0.51100000000E-03 0.  1.
         11    1    4    4    0    0  0.24039431324E-02 -0.87521408361E-01  0.62701168170E-01  0.10769156641E+00  0.51100000000E-03 0. -1.
</event>
<event>
 8    1  0.2091070E+004  0.1043930E+01  0.7957747E-01            NaN
         13   -1    0    0    0    0  0.00000000000E+00  0.00000000000E+00  0.74505805969E-08  0.10566000000E+00  0.10566000000E+00 0. -1.
     999900   -1    0    0    0    0 -0.00000000000E+00 -0.00000000000E+00 -0.74505805969E-08  0.93827000000E+00  0.93827000000E+00 0. -1.
     999902    2    1    2    0    0  0.75379728037E-02 -0.10025193018E-01  0.64817504486E-02  0.10298112671E+01  0.10297144785E+01 0.  0.
     999903    2    3    3    0    0  0.30823823671E-01  0.11498893642E+00 -0.54766327654E-01  0.13856377598E+00  0.45033384983E-01 0.  0.
         14    1    1    2    0    0 -0.75379728037E-02  0.10025193018E-01 -0.64817504486E-02  0.14118732872E-01  0.00000000000E+00 0.  1.
     999901    1    3    3    0    0 -0.23285850868E-01 -0.12501412944E+00  0.61248078103E-01  0.89124749115E+00  0.88000000000E+00 0.  1.
        -11    1    4    4    0    0 -0.57715672521E-03  0.64817463455E-01 -0.44150346006E-01  0.78429272929E-01  0.51100000000E-03 0. -1.
         11    1    4    4    0    0  0.31400980396E-01  0.50171472968E-01 -0.10615981648E-01  0.60134503049E-01  0.51100000000E-03 0.  1.
</event>
<event>
 8    1  0.2091070E+004  0.1043930E+01  0.7957747E-01            NaN
         13   -1    0    0    0    0  0.00000000000E+00  0.00000000000E+00  0.74505805969E-08  0.10566000000E+00  0.10566000000E+00 0. -1.
     999900   -1    0    0    0    0 -0.00000000000E+00 -0.00000000000E+00 -0.74505805969E-08  0.93827000000E+00  0.93827000000E+00 0.  1.
     999902    2    1    2    0    0 -0.12979558720E-01 -0.35235809286E-02  0.31285843867E-02  0.10301215748E+01  0.10300290220E+01 0.  0.
     999903    2    3    3    0    0  0.97587089460E-01 -0.50815520103E-01 -0.71907652258E-01  0.13877879670E+00  0.44535231538E-01 0.  0.
         14    1    1    2    0    0  0.12979558720E-01  0.35235809286E-02 -0.31285843867E-02  0.13808425233E-01  0.00000000000E+00 0. -1.
     999901    1    3    3    0    0 -0.11056664818E+00  0.47291939174E-01  0.75036236644E-01  0.89134277807E+00  0.88000000000E+00 0. -1.
        -11    1    4    4    0    0  0.17297492127E-01 -0.22067258459E-01 -0.13222274267E-02  0.28074481939E-01  0.51100000000E-03 0. -1.
         11    1    4    4    0    0  0.80289597333E-01 -0.28748261644E-01 -0.70585424831E-01  0.11070431476E+00  0.51100000000E-03 0.  1.
</event>
<event>
 8    1  0.2091070E+004  0.1043930E+01  0.7957747E-01            NaN
         13   -1    0    0    0    0  0.00000000000E+00  0.00000000000E+00  0.74505805969E-08  0.10566000000E+00  0.10566000000E+00 0.  1.
     999900   -1    0    0    0    0 -0.00000000000E+00 -0.00000000000E+00 -0.74505805969E-08  0.93827000000E+00  0.93827000000E+00 0.  1.
     999902    2    1    2    0    0 -0.30449577537E-02  0.12623403574E-01  0.40333980930E-02  0.10303325596E+01  0.10302428320E+01 0.  0.
     999903    2    3    3    0    0  0.11095874067E+00 -0.70113319458E-01  0.68184055272E-02  0.13912553266E+00  0.45625688885E-01 0.  0.
         14    1    1    2    0    0  0.30449577537E-02 -0.12623403574E-01 -0.40333980930E-02  0.13597440409E-01  0.00000000000E+00 0.  1.
     999901    1    3    3    0    0 -0.11400369842E+00  0.82736723031E-01 -0.27850074341E-02  0.89120702694E+00  0.88000000000E+00 0.  1.
        -11    1    4    4    0    0  0.34068890343E-01 -0.39598063561E-01  0.18836519787E-01  0.55531716395E-01  0.51100000000E-03 0. -1.
         11    1    4    4    0    0  0.76889850327E-01 -0.30515255897E-01 -0.12018114260E-01  0.83593816261E-01  0.51100000000E-03 0.  1.
</event>
<event>
 8    1  0.2091070E+004  0.1043930E+01  0.7957747E-01            NaN
         13   -1    0    0    0    0  0.00000000000E+00  0.00000000000E+00  0.74505805969E-08  0.10566000000E+00  0.10566000000E+00 0. -1.
     999900   -1    0    0    0    0 -0.00000000000E+00 -0.00000000000E+00 -0.74505805969E-08  0.93827000000E+00  0.93827000000E+00 0. -1.
     999902    2    1    2    0    0  0.73470764859E-02 -0.91340637022E-02 -0.20317699510E-02  0.10320329944E+01  0.10319644194E+01 0.  0.
     999903    2    3    3    0    0  0.92744517508E-01 -0.18122644541E-02 -0.98478601730E-01  0.14262402042E+00  0.45152479125E-01 0.  0.
         14    1    1    2    0    0 -0.73470764859E-02  0.91340637022E-02  0.20317699510E-02  0.11897005579E-01  0.00000000000E+00 0.  1.
     999901    1    3    3    0    0 -0.85397441022E-01 -0.73217992481E-02  0.96446831779E-01  0.88940897400E+00  0.88000000000E+00 0.  1.
        -11    1    4    4    0    0  0.31064002011E-01 -0.25792333247E-02 -0.65809056268E-01  0.72819761558E-01  0.51100000000E-03 0. -1.
         11    1    4    4    0    0  0.61680515498E-01  0.76696887060E-03 -0.32669545462E-01  0.69804258860E-01  0.51100000000E-03 0.  1.
</event>
<event>
 8    1  0.2091070E+004  0.1043930E+01  0.7957747E-01            NaN
         13   -1    0    0    0    0  0.00000000000E+00  0.00000000000E+00  0.74505805969E-08  0.10566000000E+00  0.10566000000E+00 0. -1.
     999900   -1    0    0    0    0 -0.00000000000E+00 -0.00000000000E+00 -0.74505805969E-08  0.93827000000E+00  0.93827000000E+00 0. -1.
     999902    2    1    2    0    0 -0.43221093655E-02 -0.16800705155E-01 -0.13233474917E-01  0.10221109904E+01  0.10218780786E+01 0.  0.
     999903    2    3    3    0    0 -0.21430394765E-01 -0.12470411620E+00 -0.25695499216E-02  0.13529107694E+00  0.47819394572E-01 0.  0.
         14    1    1    2    0    0  0.43221093655E-02  0.16800705155E-01  0.13233474917E-01  0.21819009635E-01  0.00000000000E+00 0. -1.
     999901    1    3    3    0    0  0.17108285400E-01  0.10790341104E+00 -0.10663924995E-01  0.88681991342E+00  0.88000000000E+00 0.  1.
        -11    1    4    4    0    0 -0.21910572462E-01 -0.52678678295E-01 -0.21241068275E-01  0.60881527863E-01  0.51100000000E-03 0. -1.
         11    1    4    4    0    0  0.48017769632E-03 -0.72025437903E-01  0.18671518353E-01  0.74409549080E-01  0.51100000000E-03 0.  1.
</event>
<event>
 8    1  0.2091070E+004  0.1043930E+01  0.7957747E-01            NaN
         13   -1    0    0    0    0  0.00000000000E+00  0.00000000000E+00  0.74505805969E-08  0.10566000000E+00  0.10566000000E+00 0.  1.
     999900   -1    0    0    0    0 -0.00000000000E+00 -0.00000000000E+00 -0.74505805969E-08  0.93827000000E+00  0.93827000000E+00 0.  1.
     999902    2    1    2    0    0 -0.13007924600E-01 -0.58978661304E-02 -0.11007998757E-03  0.10296470366E+01  0.10295479672E+01 0.  0.
     999903    2    3    3    0    0  0.12303275270E+00 -0.29806507272E-01 -0.32655109688E-01  0.13827850000E+00  0.45045546488E-01 0.  0.
         14    1    1    2    0    0  0.13007924600E-01  0.58978661304E-02  0.11007998757E-03  0.14282963449E-01  0.00000000000E+00 0. -1.
     999901    1    3    3    0    0 -0.13604067730E+00  0.23908641142E-01  0.32545029700E-01  0.89136853656E+00  0.88000000000E+00 0. -1.
        -11    1    4    4    0    0  0.95094952494E-01 -0.25251316974E-02 -0.19831552378E-01  0.97174985828E-01  0.51100000000E-03 0. -1.
         11    1    4    4    0    0  0.27937800211E-01 -0.27281375575E-01 -0.12823557310E-01  0.41103514168E-01  0.51100000000E-03 0.  1.
</event>
<event>
 8    1  0.2091070E+004  0.1043930E+01  0.7957747E-01            NaN
         13   -1    0    0    0    0  0.00000000000E+00  0.00000000000E+00  0.74505805969E-08  0.10566000000E+00  0.10566000000E+00 0.  1.
     999900   -1    0    0    0    0 -0.00000000000E+00 -0.00000000000E+00 -0.74505805969E-08  0.93827000000E+00  0.93827000000E+00 0. -1.
     999902    2    1    2    0    0  0.81144326158E-02 -0.66025382380E-03 -0.11044622873E-01  0.10302090800E+01  0.10301177044E+01 0.  0.
     999903    2    3    3    0    0  0.83582050187E-01  0.10498069481E-01  0.10149645141E+00  0.13976797419E+00  0.46231897917E-01 0.  0.
         14    1    1    2    0    0 -0.81144326158E-02  0.66025382380E-03  0.11044622873E-01  0.13720920020E-01  0.00000000000E+00 0.  1.
     999901    1    3    3    0    0 -0.75467617571E-01 -0.11158323304E-01 -0.11254107428E+00  0.89044110579E+00  0.88000000000E+00 0. -1.
        -11    1    4    4    0    0  0.11885396048E-01  0.17678527247E-01  0.38740894706E-01  0.44214375586E-01  0.51100000000E-03 0.  1.
         11    1    4    4    0    0  0.71696654139E-01 -0.71804577668E-02  0.62755556699E-01  0.95553598604E-01  0.51100000000E-03 0. -1.
</event>
<event>
 8    1  0.2091070E+004  0.1043930E+01  0.7957747E-01            NaN
         13   -1    0    0    0    0  0.00000000000E+00  0.00000000000E+00  0.74505805969E-08  0.10566000000E+00  0.10566000000E+00 0. -1.
     999900   -1    0    0    0    0 -0.00000000000E+00 -0.00000000000E+00 -0.74505805969E-08  0.93827000000E+00  0.93827000000E+00 0.  1.
     999902    2    1    2    0    0 -0.69221009883E-02  0.85162315871E-03 -0.13506680188E-01  0.10287289752E+01  0.10286166601E+01 0.  0.
     999903    2    3    3    0    0  0.38230499574E-01  0.10961931208E+00 -0.62922061023E-01  0.13950962808E+00  0.45008731217E-01 0.  0.
         14    1    1    2    0    0  0.69221009883E-02 -0.85162315871E-03  0.13506680188E-01  0.15201024761E-01  0.00000000000E+00 0. -1.
     999901    1    3    3    0    0 -0.45152600562E-01 -0.10876768892E+00  0.49415380835E-01  0.88921934715E+00  0.88000000000E+00 0. -1.
        -11    1    4    4    0    0  0.32313748886E-01  0.38642832664E-01 -0.41107012625E-01  0.65019185563E-01  0.51100000000E-03 0.  1.
         11    1    4    4    0    0  0.59167506877E-02  0.70976479418E-01 -0.21815048398E-01  0.74490442520E-01  0.51100000000E-03 0. -1.
</event>
<event>
 8    1  0.2091070E+004  0.1043930E+01  0.7957747E-01            NaN
         13   -1    0    0    0    0  0.00000000000E+00  0.00000000000E+00  0.74505805969E-08  0.10566000000E+00  0.10566000000E+00 0.  1.
     999900   -1    0    0    0    0 -0.00000000000E+00 -0.00000000000E+00 -0.74505805969E-08  0.93827000000E+00  0.93827000000E+00 0.  1.
     999902    2    1    2    0    0 -0.12074360102E-01  0.53803285254E-02  0.13104036219E-02  0.10306463535E+01  0.10305607458E+01 0.  0.
     999903    2    3    3    0    0  0.41920742935E-01 -0.11853869402E+00 -0.36594181099E-01  0.13951889188E+00  0.48141628880E-01 0.  0.
         14    1    1    2    0    0  0.12074360102E-01 -0.53803285254E-02 -0.13104036219E-02  0.13283646508E-01  0.00000000000E+00 0.  1.
     999901    1    3    3    0    0 -0.53995103037E-01  0.12391902255E+00  0.37904584720E-01  0.89112746161E+00  0.88000000000E+00 0.  1.
        -11    1    4    4    0    0  0.11474342452E-01 -0.65934734866E-01  0.29721515525E-02  0.66993616132E-01  0.51100000000E-03 0. -1.
         11    1    4    4    0    0  0.30446400484E-01 -0.52603959157E-01 -0.39566332651E-01  0.72525275745E-01  0.51100000000E-03 0.  1.
</event>
<event>
 8    1  0.2091070E+004  0.1043930E+01  0.7957747E-01            NaN
         13   -1    0    0    0    0  0.00000000000E+00  0.00000000000E+00  0.74505805969E-08  0.10566000000E+00  0.10566000000E+00 0. -1.
     999900   -1    0    0    0    0 -0.00000000000E+00 -0.00000000000E+00 -0.74505805969E-08  0.93827000000E+00  0.93827000000E+00 0.  1.
     999902    2    1    2    0    0  0.10177648714E-01 -0.10449239650E-01  0.16125553136E-02  0.10292544599E+01  0.10291498296E+01 0.  0.
     999903    2    3    3    0    0 -0.17952583997E-02 -0.35658911525E-01 -0.12698425566E+00  0.13947020636E+00  0.45300732336E-01 0.  0.
         14    1    1    2    0    0 -0.10177648714E-01  0.10449239650E-01 -0.16125553136E-02  0.14675540101E-01  0.00000000000E+00 0. -1.
     999901    1    3    3    0    0  0.11972907114E-01  0.25209671875E-01  0.12859681098E+00  0.88978425354E+00  0.88000000000E+00 0. -1.
        -11    1    4    4    0    0 -0.15972559035E-01 -0.60254627076E-02 -0.82035432278E-01  0.83794403829E-01  0.51100000000E-03 0. -1.
         11    1    4    4    0    0  0.14177300635E-01 -0.29633448817E-01 -0.44948823387E-01  0.55675802527E-01  0.51100000000E-03 0.  1.
</event>
<event>
 8    1  0.2091070E+004  0.1043930E+01  0.7957747E-01            NaN
         13   -1    0    0    0    0  0.00000000000E+00  0.00000000000E+00  0.74505805969E-08  0.10566000000E+00  0.10566000000E+00 0. -1.
     999900   -1    0    0    0    0 -0.00000000000E+00 -0.00000000000E+00 -0.74505805969E-08  0.93827000000E+00  0.93827000000E+00 0. -1.
     999902    2    1    2    0    0 -0.13518496150E-02 -0.10829339422E-01 -0.88611970105E-02  0.10298721587E+01  0.10297762089E+01 0.  0.
     999903    2    3    3    0    0  0.12869020651E+00 -0.10742814033E-01  0.28477705328E-01  0.13953225873E+00  0.44516224231E-01 0.  0.
         14    1    1    2    0    0  0.13518496150E-02  0.10829339422E-01  0.88611970105E-02  0.14057841305E-01  0.00000000000E+00 0. -1.
     999901    1    3    3    0    0 -0.13004205612E+00 -0.86525388247E-04 -0.37338902338E-01  0.89033989997E+00  0.88000000000E+00 0. -1.
        -11    1    4    4    0    0  0.74636165976E-01 -0.25649470311E-01  0.27086220466E-01  0.83440859649E-01  0.51100000000E-03 0.  1.
         11    1    4    4    0    0  0.54054040534E-01  0.14906656278E-01  0.13914848622E-02  0.56091399078E-01  0.51100000000E-03 0. -1.
</event>
<event>
 8    1  0.2091070E+004  0.1043930E+01  0.7957747E-01            NaN
         13   -1    0    0    0    0  0.00000000000E+00  0.00000000000E+00  0.74505805969E-08  0.10566000000E+00  0.10566000000E+00 0. -1.
     999900   -1    0    0    0    0 -0.00000000000E+00 -0.00000000000E+00 -0.74505805969E-08  0.93827000000E+00  0.93827000000E+00 0. -1.
     999902    2    1    2    0    0 -0.98988518130E-02  0.54932506748E-03  0.14162312465E-01  0.10266424288E+01  0.10264968662E+01 0.  0.
     999903    2    3    3    0    0  0.57126705947E-01 -0.11538188634E+00 -0.58749794836E-02  0.13628634030E+00  0.44305879307E-01 0.  0.
         14    1    1    2    0    0  0.98988518130E-02 -0.54932506748E-03 -0.14162312465E-01  0.17287571246E-01  0.00000000000E+00 0.  1.
     999901    1    3    3    0    0 -0.67025557760E-01  0.11593121141E+00  0.20037291948E-01  0.89035608845E+00  0.88000000000E+00 0.  1.
        -11    1    4    4    0    0  0.54496125318E-01 -0.99229429203E-01 -0.19633202063E-01  0.11490009155E+00  0.51100000000E-03 0.  1.
         11    1    4    4    0    0  0.26305806290E-02 -0.16152457140E-01  0.13758222579E-01  0.21386248751E-01  0.51100000000E-03 0. -1.
</event>
<event>
 8    1  0.2091070E+004  0.1043930E+01  0.7957747E-01            NaN
         13   -1    0    0    0    0  0.00000000000E+00  0.00000000000E+00  0.74505805969E-08  0.10566000000E+00  0.10566000000E+00 0.  1.
     999900   -1    0    0    0    0 -0.00000000000E+00 -0.00000000000E+00 -0.74505805969E-08  0.93827000000E+00  0.93827000000E+00 0.  1.
     999902    2    1    2    0    0 -0.11571987482E-01 -0.17223338706E-04 -0.97767528044E-02  0.10287808718E+01  0.10286693278E+01 0.  0.
     999903    2    3    3    0    0  0.60220787248E-01 -0.11213527022E+00 -0.25569557559E-01  0.13862691226E+00  0.48608193591E-01 0.  0.
         14    1    1    2    0    0  0.11571987482E-01  0.17223338706E-04  0.97767528044E-02  0.15149128236E-01  0.00000000000E+00 0.  1.
     999901    1    3    3    0    0 -0.71792774730E-01  0.11211804688E+00  0.15792804755E-01  0.89015395950E+00  0.88000000000E+00 0.  1.
        -11    1    4    4    0    0 -0.13981574471E-02 -0.23816218635E-01 -0.19409391863E-01  0.30759595703E-01  0.51100000000E-03 0. -1.
         11    1    4    4    0    0  0.61618944695E-01 -0.88319051587E-01 -0.61601656959E-02  0.10786731656E+00  0.51100000000E-03 0.  1.
</event>
<event>
 8    1  0.2091070E+004  0.1043930E+01  0.7957747E-01            NaN
         13   -1    0    0    0    0  0.00000000000E+00  0.00000000000E+00  0.74505805969E-08  0.10566000000E+00  0.10566000000E+00 0.  1.
     999900   -1    0    0    0    0 -0.00000000000E+00 -0.00000000000E+00 -0.74505805969E-08  0.93827000000E+00  0.93827000000E+00 0.  1.
     999902    2    1    2    0    0  0.38900177438E-02 -0.57073338945E-02 -0.12426659530E-01  0.10297128355E+01  0.10296146832E+01 0.  0.
     999903    2    3    3    0    0 -0.89256438504E-01  0.95488922788E-01 -0.14719202345E-01  0.13902647075E+00  0.45020644827E-01 0.  0.
         14    1    1    2    0    0 -0.38900177438E-02  0.57073338945E-02  0.12426659530E-01  0.14217164461E-01  0.00000000000E+00 0.  1.
     999901    1    3    3    0    0  0.93146456248E-01 -0.10119625668E+00  0.22925428150E-02  0.89068636479E+00  0.88000000000E+00 0.  1.
        -11    1    4    4    0    0 -0.31870317824E-01  0.27500286830E-01 -0.25789048447E-01  0.49369211810E-01  0.51100000000E-03 0. -1.
         11    1    4    4    0    0 -0.57386120680E-01  0.67988635958E-01  0.11069846102E-01  0.89657258935E-01  0.51100000000E-03 0.  1.
</event>
<event>
 8    1  0.2091070E+004  0.1043930E+01  0.7957747E-01            NaN
         13   -1    0    0    0    0  0.00000000000E+00  0.00000000000E+00  0.74505805969E-08  0.10566000000E+00  0.10566000000E+00 0.  1.
     999900   -1    0    0    0    0 -0.00000000000E+00 -0.00000000000E+00 -0.74505805969E-08  0.93827000000E+00  0.93827000000E+00 0.  1.
     999902    2    1    2    0    0 -0.13441670941E-02  0.43386674797E-03  0.14744280538E-01  0.10291182198E+01  0.10290116235E+01 0.  0.
     999903    2    3    3    0    0 -0.16007912462E-01  0.88844540567E-01  0.10095722975E+00  0.14037520555E+00  0.36921950725E-01 0.  0.
         14    1    1    2    0    0  0.13441670941E-02 -0.43386674797E-03 -0.14744280538E-01  0.14811780248E-01  0.00000000000E+00 0. -1.
     999901    1    3    3    0    0  0.14663745368E-01 -0.88410673819E-01 -0.86212949214E-01  0.88874301420E+00  0.88000000000E+00 0. -1.
        -11    1    4    4    0    0 -0.24665078932E-01  0.65876313281E-01  0.59220839629E-01  0.91953378065E-01  0.51100000000E-03 0.  1.
         11    1    4    4    0    0  0.86571664694E-02  0.22968227286E-01  0.41736390123E-01  0.48421827489E-01  0.51100000000E-03 0. -1.
</event>
<event>
 8    1  0.2091070E+004  0.1043930E+01  0.7957747E-01            NaN
         13   -1    0    0    0    0  0.00000000000E+00  0.00000000000E+00  0.74505805969E-08  0.10566000000E+00  0.10566000000E+00 0.  1.
     999900   -1    0    0    0    0 -0.00000000000E+00 -0.00000000000E+00 -0.74505805969E-08  0.93827000000E+00  0.93827000000E+00 0.  1.
     999902    2    1    2    0    0 -0.56772094797E-02 -0.72462903762E-02 -0.12505048390E-01  0.10284021004E+01  0.10282848654E+01 0.  0.
     999903    2    3    3    0    0 -0.28205639168E-01 -0.51350493999E-01  0.11536534286E+00  0.13778234544E+00  0.47353786189E-01 0.  0.
         14    1    1    2    0    0  0.56772094797E-02  0.72462903762E-02  0.12505048390E-01  0.15527899630E-01  0.00000000000E+00 0.  1.
     999901    1    3    3    0    0  0.22528429689E-01  0.44104203623E-01 -0.12787039125E+00  0.89061975493E+00  0.88000000000E+00 0.  1.
        -11    1    4    4    0    0 -0.34562508377E-01 -0.13796392078E-01  0.58668838354E-01  0.69478062254E-01  0.51100000000E-03 0. -1.
         11    1    4    4    0    0  0.63568692082E-02 -0.37554101921E-01  0.56696504502E-01  0.68304283182E-01  0.51100000000E-03 0.  1.
</event>
<event>
 8    1  0.2091070E+004  0.1043930E+01  0.7957747E-01            NaN
         13   -1    0    0    0    0  0.00000000000E+00  0.00000000000E+00  0.74505805969E-08  0.10566000000E+00  0.10566000000E+00 0. -1.
     999900   -1    0    0    0    0 -0.00000000000E+00 -0.00000000000E+00 -0.74505805969E-08  0.93827000000E+00  0.93827000000E+00 0. -1.
     999902    2    1    2    0    0 -0.86357375685E-02  0.97383668618E-02  0.16560812290E-02  0.10308092394E+01  0.10307257316E+01 0.  0.
     999903    2    3    3    0    0 -0.12327374131E+00 -0.40412851251E-01 -0.32676631285E-01  0.14129490469E+00  0.45462886149E-01 0.  0.
         14    1    1    2    0    0  0.86357375685E-02 -0.97383668618E-02 -0.16560812290E-02  0.13120760554E-01  0.00000000000E+00 0.  1.
     999901    1    3    3    0    0  0.11463800374E+00  0.50151218113E-01  0.34332712514E-01  0.88951433475E+00  0.88000000000E+00 0. -1.
        -11    1    4    4    0    0 -0.27886740404E-01  0.72772915372E-02  0.26593332925E-02  0.28947580850E-01  0.51100000000E-03 0.  1.
         11    1    4    4    0    0 -0.95387000908E-01 -0.47690142788E-01 -0.35335964577E-01  0.11234732384E+00  0.51100000000E-03 0. -1.
</event>
<event>
 8    1  0.2091070E+004  0.1043930E+01  0.7957747E-01            NaN
         13   -1    0    0    0    0  0.00000000000E+00  0.00000000000E+00  0.74505805969E-08  0.10566000000E+00  0.10566000000E+00 0. -1.
     999900   -1    0    0    0    0 -0.00000000000E+00 -0.00000000000E+00 -0.74505805969E-08  0.93827000000E+00  0.93827000000E+00 0. -1.
     999902    2    1    2    0    0  0.46610991736E-02 -0.32886995571E-02  0.12326807166E-01  0.10303472328E+01  0.10302577001E+01 0.  0.
     999903    2    3    3    0    0  0.86229984126E-01 -0.10101794715E+00  0.18296017999E-01  0.14116776816E+00  0.44196817581E-01 0.  0.
         14    1    1    2    0    0 -0.46610991736E-02  0.32886995571E-02 -0.12326807166E-01  0.13582767214E-01  0.00000000000E+00 0.  1.
     999901    1    3    3    0    0 -0.81568884952E-01  0.97729247596E-01 -0.59692108323E-02  0.88917946462E+00  0.88000000000E+00 0. -1.
        -11    1    4    4    0    0  0.50513952938E-01 -0.79179633099E-01 -0.34603821188E-02  0.93985685636E-01  0.51100000000E-03 0. -1.
         11    1    4    4    0    0  0.35716031187E-01 -0.21838314054E-01  0.21756400118E-01  0.47182082527E-01  0.51100000000E-03 0.  1.
</event>
<event>
 8    1  0.2091070E+004  0.1043930E+01  0.7957747E-01            NaN
         13   -1    0    0    0    0  0.00000000000E+00  0.00000000000E+00  0.74505805969E-08  0.10566000000E+00  0.10566000000E+00 0. -1.
     999900   -1    0    0    0    0 -0.00000000000E+00 -0.00000000000E+00 -0.74505805969E-08  0.93827000000E+00  0.93827000000E+00 0.  1.
     999902    2    1    2    0    0 -0.96603662298E-02 -0.37834612797E-02 -0.88014711552E-02  0.10303247382E+01  0.10302349067E+01 0.  0.
     999903    2    3    3    0    0 -0.51274771218E-01 -0.63189929516E-01  0.10540180649E+00  0.13998588369E+00  0.43179132310E-01 0.  0.
         14    1    1    2    0    0  0.96603662298E-02  0.37834612797E-02  0.88014711552E-02  0.13605261829E-01  0.00000000000E+00 0. -1.
     999901    1    3    3    0    0  0.41614404988E-01  0.59406468236E-01 -0.11420327764E+00  0.89033885448E+00  0.88000000000E+00 0.  1.
        -11    1    4    4    0    0 -0.37750245451E-01 -0.39806347918E-01  0.97433283091E-01  0.11181740536E+00  0.51100000000E-03 0. -1.
         11    1    4    4    0    0 -0.13524525766E-01 -0.23383581598E-01  0.79685233941E-02  0.28168478333E-01  0.51100000000E-03 0.  1.
</event>
<event>
 8    1  0.2091070E+004  0.1043930E+01  0.7957747E-01            NaN
         13   -1    0    0    0    0  0.00000000000E+00  0.00000000000E+00  0.74505805969E-08  0.10566000000E+00  0.10566000000E+00 0.  1.
     999900   -1    0    0    0    0 -0.00000000000E+00 -0.00000000000E+00 -0.74505805969E-08  0.93827000000E+00  0.93827000000E+00 0. -1.
     999902    2    1    2    0    0 -0.13234700994E-01 -0.97726312815E-03  0.50158190091E-02  0.10297430062E+01  0.10296452729E+01 0.  0.
     999903    2    3    3    0    0 -0.13461649347E-01 -0.11389148020E+00 -0.65399412560E-01  0.13973852485E+00  0.45796145029E-01 0.  0.
         14    1    1    2    0    0  0.13234700994E-01  0.97726312815E-03 -0.50158190091E-02  0.14186993831E-01  0.00000000000E+00 0. -1.
     999901    1    3    3    0    0  0.22694835322E-03  0.11291421707E+00  0.70415231569E-01  0.89000448131E+00  0.88000000000E+00 0. -1.
        -11    1    4    4    0    0 -0.21120889364E-01 -0.98076557871E-01 -0.69039788518E-01  0.12178611042E+00  0.51100000000E-03 0. -1.
         11    1    4    4    0    0  0.76592400164E-02 -0.15814922331E-01  0.36403759574E-02  0.17952414436E-01  0.51100000000E-03 0.  1.
</event>
<event>
 8    1  0.2091070E+004  0.1043930E+01  0.7957747E-01            NaN
         13   -1    0    0    0    0  0.00000000000E+00  0.00000000000E+00  0.74505805969E-08  0.10566000000E+00  0.10566000000E+00 0.  1.
     999900   -1    0    0    0    0 -0.00000000000E+00 -0.00000000000E+00 -0.74505805969E-08  0.93827000000E+00  0.93827000000E+00 0.  1.
     999902    2    1    2    0    0  0.53766665012E-02 -0.78046420153E-02  0.10207429012E-01  0.10300011599E+01  0.10299069748E+01 0.  0.
     999903    2    3    3    0    0  0.77740674764E-01 -0.64298040294E-01  0.88609518025E-01  0.14175854591E+00  0.45453142409E-01 0.  0.
         14    1    1    2    0    0 -0.53766665012E-02  0.78046420153E-02 -0.10207429012E-01  0.13928840106E-01  0.00000000000E+00 0. -1.
     999901    1    3    3    0    0 -0.72364008263E-01  0.56493398278E-01 -0.78402089013E-01  0.88824261399E+00  0.88000000000E+00 0.  1.
        -11    1    4    4    0    0  0.19261421336E-01 -0.14791951753E-01  0.50814324922E-01  0.56321940013E-01  0.51100000000E-03 0.  1.
         11    1    4    4    0    0  0.58479253428E-01 -0.49506088541E-01  0.37795193103E-01  0.85436605895E-01  0.51100000000E-03 0. -1.
</event>
<event>
 8    1  0.2091070E+004  0.1043930E+01  0.7957747E-01            NaN
         13   -1    0    0    0    0  0.00000000000E+00  0.00000000000E+00  0.74505805969E-08  0.10566000000E+00  0.10566000000E+00 0. -1.
     999900   -1    0    0    0    0 -0.00000000000E+00 -0.00000000000E+00 -0.74505805969E-08  0.93827000000E+00  0.93827000000E+00 0. -1.
     999902    2    1    2    0    0 -0.23501062990E-02  0.11840132452E-01  0.23585861316E-02  0.10316306234E+01  0.10315573026E+01 0.  0.
     999903    2    3    3    0    0  0.49039786231E-01 -0.12158862206E+00 -0.17538503237E-01  0.13986829646E+00  0.45462595745E-01 0.  0.
         14    1    1    2    0    0  0.23501062990E-02 -0.11840132452E-01 -0.23585861316E-02  0.12299376595E-01  0.00000000000E+00 0. -1.
     999901    1    3    3    0    0 -0.51389892530E-01  0.13342875451E+00  0.19897089368E-01  0.89176232694E+00  0.88000000000E+00 0.  1.
        -11    1    4    4    0    0  0.33228799513E-01 -0.74896759000E-01 -0.32802221808E-01  0.88260548958E-01  0.51100000000E-03 0. -1.
         11    1    4    4    0    0  0.15810986718E-01 -0.46691863061E-01  0.15263718571E-01  0.51607747507E-01  0.51100000000E-03 0.  1.
</event>
<event>
 8    1  0.2091070E+004  0.1043930E+01  0.7957747E-01            NaN
         13   -1    0    0    0    0  0.00000000000E+00  0.00000000000E+00  0.74505805969E-08  0.10566000000E+00  0.10566000000E+00 0.  1.
     999900   -1    0    0    0    0 -0.00000000000E+00 -0.00000000000E+00 -0.74505805969E-08  0.93827000000E+00  0.93827000000E+00 0.  1.
     999902    2    1    2    0    0  0.12918775657E-01  0.49509977701E-02 -0.22311151309E-02  0.10299162561E+01  0.10298209114E+01 0.  0.
     999903    2    3    3    0    0  0.32595634168E-01 -0.12690441739E+00 -0.18598202977E-01  0.13972475376E+00  0.44831987895E-01 0.  0.
         14    1    1    2    0    0 -0.12918775657E-01 -0.49509977701E-02  0.22311151309E-02  0.14013743901E-01  0.00000000000E+00 0.  1.
     999901    1    3    3    0    0 -0.19676858511E-01  0.13185541516E+00  0.16367087847E-01  0.89019150234E+00  0.88000000000E+00 0.  1.
        -11    1    4    4    0    0  0.38704781566E-01 -0.91672293840E-01 -0.20340532893E-03  0.99509658168E-01  0.51100000000E-03 0.  1.
         11    1    4    4    0    0 -0.61091473973E-02 -0.35232123555E-01 -0.18394797648E-01  0.40215095594E-01  0.51100000000E-03 0. -1.
</event>
<event>
 8    1  0.2091070E+004  0.1043930E+01  0.7957747E-01            NaN
         13   -1    0    0    0    0  0.00000000000E+00  0.00000000000E+00  0.74505805969E-08  0.10566000000E+00  0.10566000000E+00 0. -1.
     999900   -1    0    0    0    0 -0.00000000000E+00 -0.00000000000E+00 -0.74505805969E-08  0.93827000000E+00  0.93827000000E+00 0.  1.
     999902    2    1    2    0    0 -0.94726035369E-02 -0.88491553079E-03 -0.11679615159E-01  0.10288659135E+01  0.10287556275E+01 0.  0.
     999903    2    3    3    0    0 -0.64671508534E-02 -0.14501429090E-01 -0.13240673786E+00  0.14051379839E+00  0.44277170406E-01 0.  0.
         14    1    1    2    0    0  0.94726035369E-02  0.88491553079E-03  0.11679615159E-01  0.15064086548E-01  0.00000000000E+00 0. -1.
     999901    1    3    3    0    0 -0.30054526834E-02  0.13616513560E-01  0.12072712270E+00  0.88835211507E+00  0.88000000000E+00 0. -1.
        -11    1    4    4    0    0 -0.22076951939E-01 -0.20174351706E-01 -0.94615446212E-01  0.99230741489E-01  0.51100000000E-03 0.  1.
         11    1    4    4    0    0  0.15609801086E-01  0.56729226161E-02 -0.37791291652E-01  0.41283056896E-01  0.51100000000E-03 0. -1.
</event>
<event>
 8    1  0.2091070E+004  0.1043930E+01  0.7957747E-01            NaN
         13   -1    0    0    0    0  0.00000000000E+00  0.00000000000E+00  0.74505805969E-08  0.10566000000E+00  0.10566000000E+00 0.  1.
     999900   -1    0    0    0    0 -0.00000000000E+00 -0.00000000000E+00 -0.74505805969E-08  0.93827000000E+00  0.93827000000E+00 0.  1.
     999902    2    1    2    0    0 -0.49192699530E-02 -0.13482676941E-01  0.52685435421E-02  0.10286414636E+01  0.10285278418E+01 0.  0.
     999903    2    3    3    0    0  0.12451298191E-01  0.79222337851E-01 -0.10216978234E+00  0.13710405536E+00  0.43904941999E-01 0.  0.
         14    1    1    2    0    0  0.49192699530E-02  0.13482676941E-01 -0.52685435421E-02  0.15288536405E-01  0.00000000000E+00 0.  1.
     999901    1    3    3    0    0 -0.17370568144E-01 -0.92705014792E-01  0.10743832589E+00  0.89153740823E+00  0.88000000000E+00 0. -1.
        -11    1    4    4    0    0  0.60814112942E-02  0.52556760910E-01 -0.32162846715E-01  0.61918547387E-01  0.51100000000E-03 0. -1.
         11    1    4    4    0    0  0.63698868967E-02  0.26665576941E-01 -0.70006935629E-01  0.75185507977E-01  0.51100000000E-03 0.  1.
</event>
<event>
 8    1  0.2091070E+004  0.1043930E+01  0.7957747E-01            NaN
         13   -1    0    0    0    0  0.00000000000E+00  0.00000000000E+00  0.74505805969E-08  0.10566000000E+00  0.10566000000E+00 0. -1.
     999900   -1    0    0    0    0 -0.00000000000E+00 -0.00000000000E+00 -0.74505805969E-08  0.93827000000E+00  0.93827000000E+00 0.  1.
     999902    2    1    2    0    0  0.52390318681E-02  0.65163370042E-02  0.10800621580E-01  0.10302711739E+01  0.10301806290E+01 0.  0.
     999903    2    3    3    0    0 -0.90262146199E-01  0.17472569377E-01  0.97461271024E-01  0.14080471465E+00  0.43298066939E-01 0.  0.
         14    1    1    2    0    0 -0.52390318681E-02 -0.65163370042E-02 -0.10800621580E-01  0.13658826062E-01  0.00000000000E+00 0.  1.
     999901    1    3    3    0    0  0.95501178067E-01 -0.10956232373E-01 -0.86660649444E-01  0.88946645929E+00  0.88000000000E+00 0.  1.
        -11    1    4    4    0    0 -0.49144083459E-01 -0.78241446234E-02  0.67934142747E-01  0.84212036253E-01  0.51100000000E-03 0.  1.
         11    1    4    4    0    0 -0.41118062740E-01  0.25296714000E-01  0.29527128276E-01  0.56592678395E-01  0.51100000000E-03 0. -1.
</event>
<event>
 8    1  0.2091070E+004  0.1043930E+01  0.7957747E-01            NaN
         13   -1    0    0    0    0  0.00000000000E+00  0.00000000000E+00  0.74505805969E-08  0.10566000000E+00  0.10566000000E+00 0.  1.
     999900   -1    0    0    0    0 -0.00000000000E+00 -0.00000000000E+00 -0.74505805969E-08  0.93827000000E+00  0.93827000000E+00 0. -1.
     999902    2    1    2    0    0 -0.43321252031E-03 -0.11968660903E-01  0.74301725456E-02  0.10298358884E+01  0.10297394394E+01 0.  0.
     999903    2    3    3    0    0  0.11432535134E+00 -0.81749762393E-03  0.67774410366E-01  0.14026559696E+00  0.44834280731E-01 0.  0.
         14    1    1    2    0    0  0.43321252031E-03  0.11968660903E-01 -0.74301725456E-02  0.14094111570E-01  0.00000000000E+00 0. -1.
     999901    1    3    3    0    0 -0.11475856386E+00 -0.11151163279E-01 -0.60344237820E-01  0.88957029147E+00  0.88000000000E+00 0.  1.
        -11    1    4    4    0    0  0.70289069727E-01 -0.14622919265E-01  0.21585728448E-01  0.74970580127E-01  0.51100000000E-03 0. -1.
         11    1    4    4    0    0  0.44036281617E-01  0.13805421641E-01  0.46188681918E-01  0.65295016836E-01  0.51100000000E-03 0.  1.
</event>
<event>
 8    1  0.2091070E+004  0.1043930E+01  0.7957747E-01            NaN
         13   -1    0    0    0    0  0.00000000000E+00  0.00000000000E+00  0.74505805969E-08  0.10566000000E+00  0.10566000000E+00 0.  1.
     999900   -1    0    0    0    0 -0.00000000000E+00 -0.00000000000E+00 -0.74505805969E-08  0.93827000000E+00  0.93827000000E+00 0.  1.
     999902    2    1    2    0    0 -0.89068650717E-02  0.10065613055E-01 -0.18807656507E-02  0.10303584824E+01  0.10302690989E+01 0.  0.
     999903    2    3    3    0    0 -0.96829539470E-01  0.86898515264E-01 -0.27699067132E-01  0.14227049335E+00  0.50461304869E-01 0.  0.
         14    1    1    2    0    0  0.89068650717E-02 -0.10065613055E-01  0.18807656507E-02  0.13571517638E-01  0.00000000000E+00 0.  1.
     999901    1    3    3    0    0  0.87922674398E-01 -0.76832902210E-01  0.25818301481E-01  0.88808798901E+00  0.88000000000E+00 0. -1.
        -11    1    4    4    0    0 -0.74431491056E-01  0.38021080899E-01 -0.44741083028E-02  0.83701423044E-01  0.51100000000E-03 0.  1.
         11    1    4    4    0    0 -0.22398048414E-01  0.48877434365E-01 -0.23224958829E-01  0.58569070306E-01  0.51100000000E-03 0. -1.
</event>
<event>
 8    1  0.2091070E+004  0.1043930E+01  0.7957747E-01            NaN
         13   -1    0    0    0    0  0.00000000000E+00  0.00000000000E+00  0.74505805969E-08  0.10566000000E+00  0.10566000000E+00 0. -1.
     999900   -1    0    0    0    0 -0.00000000000E+00 -0.00000000000E+00 -0.74505805969E-08  0.93827000000E+00  0.93827000000E+00 0.  1.
     999902    2    1    2    0    0  0.12763161200E-01 -0.42322186858E-02 -0.40964606067E-02  0.10298732953E+01  0.10297773610E+01 0.  0.
     999903    2    3    3    0    0  0.18491309970E-01 -0.13150001246E+00  0.97218473136E-02  0.14059220996E+00  0.45138380172E-01 0.  0.
         14    1    1    2    0    0 -0.12763161200E-01  0.42322186858E-02  0.40964606067E-02  0.14056704746E-01  0.00000000000E+00 0. -1.
     999901    1    3    3    0    0 -0.57281487698E-02  0.12726779378E+00 -0.13818307920E-01  0.88928108529E+00  0.88000000000E+00 0. -1.
        -11    1    4    4    0    0  0.50417816315E-02 -0.10063815603E+00  0.24689222726E-01  0.10374621367E+00  0.51100000000E-03 0.  1.
         11    1    4    4    0    0  0.13449528338E-01 -0.30861856439E-01 -0.14967375413E-01  0.36845996297E-01  0.51100000000E-03 0. -1.
</event>
<event>
 8    1  0.2091070E+004  0.1043930E+01  0.7957747E-01            NaN
         13   -1    0    0    0    0  0.00000000000E+00  0.00000000000E+00  0.74505805969E-08  0.10566000000E+00  0.10566000000E+00 0. -1.
     999900   -1    0    0    0    0 -0.00000000000E+00 -0.00000000000E+00 -0.74505805969E-08  0.93827000000E+00  0.93827000000E+00 0. -1.
     999902    2    1    2    0    0 -0.48328557071E-02 -0.13780219127E-01 -0.73504970080E-02  0.10275812771E+01  0.10274512156E+01 0.  0.
     999903    2    3    3    0    0  0.11606841517E+00  0.23517713947E-02  0.56401773452E-01  0.13688396018E+00  0.45592221665E-01 0.  0.
         14    1    1    2    0    0  0.48328557071E-02  0.13780219127E-01  0.73504970080E-02  0.16348722878E-01  0.00000000000E+00 0. -1.
     999901    1    3    3    0    0 -0.12090127088E+00 -0.16131990522E-01 -0.63752270460E-01  0.89069731694E+00  0.88000000000E+00 0. -1.
        -11    1    4    4    0    0  0.57882432132E-01 -0.17636177946E-01  0.13847838457E-01  0.62076037833E-01  0.51100000000E-03 0.  1.
         11    1    4    4    0    0  0.58185983042E-01  0.19987949340E-01  0.42553934995E-01  0.74807922347E-01  0.51100000000E-03 0. -1.
</event>
<event>
 8    1  0.2091070E+004  0.1043930E+01  0.7957747E-01            NaN
         13   -1    0    0    0    0  0.00000000000E+00  0.00000000000E+00  0.74505805969E-08  0.10566000000E+00  0.10566000000E+00 0. -1.
     999900   -1    0    0    0    0 -0.00000000000E+00 -0.00000000000E+00 -0.74505805969E-08  0.93827000000E+00  0.93827000000E+00 0.  1.
     999902    2    1    2    0    0 -0.44523425982E-02  0.10186889894E-01 -0.79830406771E-02  0.10302433270E+01  0.10301524100E+01 0.  0.
     999903    2    3    3    0    0  0.10976144057E-01  0.97601111734E-01 -0.92024796610E-01  0.14179394680E+00  0.44615102906E-01 0.  0.
         14    1    1    2    0    0  0.44523425982E-02 -0.10186889894E-01  0.79830406771E-02  0.13686673035E-01  0.00000000000E+00 0. -1.
     999901    1    3    3    0    0 -0.15428486655E-01 -0.87414221840E-01  0.84041755932E-01  0.88844938017E+00  0.88000000000E+00 0. -1.
        -11    1    4    4    0    0  0.22704397103E-01  0.46732071728E-01 -0.64345098873E-01  0.82703863549E-01  0.51100000000E-03 0. -1.
         11    1    4    4    0    0 -0.11728253046E-01  0.50869040005E-01 -0.27679697736E-01  0.59090083248E-01  0.51100000000E-03 0.  1.
</event>
<event>
 8    1  0.2091070E+004  0.1043930E+01  0.7957747E-01            NaN
         13   -1    0    0    0    0  0.00000000000E+00  0.00000000000E+00  0.74505805969E-08  0.10566000000E+00  0.10566000000E+00 0. -1.
     999900   -1    0    0    0    0 -0.00000000000E+00 -0.00000000000E+00 -0.74505805969E-08  0.93827000000E+00  0.93827000000E+00 0.  1.
     999902    2    1    2    0    0 -0.75535391956E-02  0.67132141018E-02  0.96009631527E-02  0.10299907858E+01  0.10298964595E+01 0.  0.
     999903    2    3    3    0    0  0.74262917744E-01 -0.10309678741E+00 -0.30615287628E-01  0.13849231928E+00  0.45813733046E-01 0.  0.
         14    1    1    2    0    0  0.75535391956E-02 -0.67132141018E-02 -0.96009631527E-02  0.13939214161E-01  0.00000000000E+00 0. -1.
     999901    1    3    3    0    0 -0.81816456939E-01  0.10981000151E+00  0.40216250780E-01  0.89149846656E+00  0.88000000000E+00 0. -1.
        -11    1    4    4    0    0  0.70821330905E-01 -0.70546962696E-01 -0.11599436831E-01  0.10063470034E+00  0.51100000000E-03 0.  1.
         11    1    4    4    0    0  0.34415868383E-02 -0.32549824715E-01 -0.19015850796E-01  0.37857618935E-01  0.51100000000E-03 0. -1.
</event>
<event>
 8    1  0.2091070E+004  0.1043930E+01  0.7957747E-01            NaN
         13   -1    0    0    0    0  0.00000000000E+00  0.00000000000E+00  0.74505805969E-08  0.10566000000E+00  0.10566000000E+00 0.  1.
     999900   -1    0    0    0    0 -0.00000000000E+00 -0.00000000000E+00 -0.74505805969E-08  0.93827000000E+00  0.93827000000E+00 0.  1.
     999902    2    1    2    0    0  0.13601594526E-01  0.11945332277E-02 -0.11585157980E-02  0.10302269915E+01  0.10301358559E+01 0.  0.
     999903    2    3    3    0    0  0.52327663128E-01 -0.17422970940E-01 -0.12210404813E+00  0.14091594262E+00  0.43659593100E-01 0.  0.
         14    1    1    2    0    0 -0.13601594526E-01 -0.11945332277E-02  0.11585157980E-02  0.13703008507E-01  0.00000000000E+00 0.  1.
     999901    1    3    3    0    0 -0.38726068601E-01  0.18617504168E-01  0.12094553234E+00  0.88931104887E+00  0.88000000000E+00 0. -1.
        -11    1    4    4    0    0  0.30997675015E-01  0.27665967367E-02 -0.26425666801E-01  0.40829975518E-01  0.51100000000E-03 0.  1.
         11    1    4    4    0    0  0.21329988112E-01 -0.20189567677E-01 -0.95678381333E-01  0.10008596710E+00  0.51100000000E-03 0. -1.
</event>
<event>
 8    1  0.2091070E+004  0.1043930E+01  0.7957747E-01            NaN
         13   -1    0    0    0    0  0.00000000000E+00  0.00000000000E+00  0.74505805969E-08  0.10566000000E+00  0.10566000000E+00 0. -1.
     999900   -1    0    0    0    0 -0.00000000000E+00 -0.00000000000E+00 -0.74505805969E-08  0.93827000000E+00  0.93827000000E+00 0. -1.
     999902    2    1    2    0    0 -0.91080018550E-02  0.48251923119E-02 -0.91514920252E-02  0.10301463871E+01  0.10300541689E+01 0.  0.
     999903    2    3    3    0    0 -0.22974088189E-01 -0.42675895386E-01 -0.12486590190E+00  0.14119281893E+00  0.44664055843E-01 0.  0.
         14    1    1    2    0    0  0.91080018550E-02 -0.48251923119E-02  0.91514920252E-02  0.13783612913E-01  0.00000000000E+00 0. -1.
     999901    1    3    3    0    0  0.13866086334E-01  0.47501087698E-01  0.11571440988E+00  0.88895356816E+00  0.88000000000E+00 0.  1.
        -11    1    4    4    0    0 -0.51800761835E-02 -0.30338164051E-01 -0.26956459715E-01  0.40916368712E-01  0.51100000000E-03 0. -1.
         11    1    4    4    0    0 -0.17794012006E-01 -0.12337731335E-01 -0.97909442189E-01  0.10027645022E+00  0.51100000000E-03 0.  1.
</event>
<event>
 8    1  0.2091070E+004  0.1043930E+01  0.7957747E-01            NaN
         13   -1    0    0    0    0  0.00000000000E+00  0.00000000000E+00  0.74505805969E-08  0.10566000000E+00  0.10566000000E+00 0. -1.
     999900   -1    0    0    0    0 -0.00000000000E+00 -0.00000000000E+00 -0.74505805969E-08  0.93827000000E+00  0.93827000000E+00 0. -1.
     999902    2    1    2    0    0 -0.14003847950E-01  0.92686832026E-03  0.11879525078E-02  0.10298453249E+01  0.10297490059E+01 0.  0.
     999903    2    3    3    0    0 -0.11033987650E+00 -0.67925980471E-01 -0.34088330694E-01  0.14121392697E+00  0.44615375284E-01 0.  0.
         14    1    1    2    0    0  0.14003847950E-01 -0.92686832026E-03 -0.11879525078E-02  0.14084675127E-01  0.00000000000E+00 0.  1.
     999901    1    3    3    0    0  0.96336028550E-01  0.68852848791E-01  0.35276283201E-01  0.88863139790E+00  0.88000000000E+00 0.  1.
        -11    1    4    4    0    0 -0.39221118515E-01 -0.50098655071E-01 -0.13292555829E-01  0.65000957985E-01  0.51100000000E-03 0. -1.
         11    1    4    4    0    0 -0.71118757984E-01 -0.17827325400E-01 -0.20795774865E-01  0.76212968984E-01  0.51100000000E-03 0.  1.
</event>
<event>
 8    1  0.2091070E+004  0.1043930E+01  0.7957747E-01            NaN
         13   -1    0    0    0    0  0.00000000000E+00  0.00000000000E+00  0.74505805969E-08  0.10566000000E+00  0.10566000000E+00 0. -1.
     999900   -1    0    0    0    0 -0.00000000000E+00 -0.00000000000E+00 -0.74505805969E-08  0.93827000000E+00  0.93827000000E+00 0. -1.
     999902    2    1    2    0    0  0.77413247489E-02  0.14078800181E-02 -0.11190970527E-01  0.10302497933E+01  0.10301589627E+01 0.  0.
     999903    2    3    3    0    0 -0.11559948091E+00 -0.36039569563E-01 -0.53303289121E-01  0.13986295980E+00  0.45368671271E-01 0.  0.
         14    1    1    2    0    0 -0.77413247489E-02 -0.14078800181E-02  0.11190970527E-01  0.13680206736E-01  0.00000000000E+00 0. -1.
     999901    1    3    3    0    0  0.12334080566E+00  0.37447449581E-01  0.42112318594E-01  0.89038683346E+00  0.88000000000E+00 0.  1.
        -11    1    4    4    0    0 -0.38351125774E-01 -0.30458677694E-01 -0.66004206923E-02  0.49420305233E-01  0.51100000000E-03 0.  1.
         11    1    4    4    0    0 -0.77248355137E-01 -0.55808918687E-02 -0.46702868429E-01  0.90442654571E-01  0.51100000000E-03 0. -1.
</event>
<event>
 8    1  0.2091070E+004  0.1043930E+01  0.7957747E-01            NaN
         13   -1    0    0    0    0  0.00000000000E+00  0.00000000000E+00  0.74505805969E-08  0.10566000000E+00  0.10566000000E+00 0. -1.
     999900   -1    0    0    0    0 -0.00000000000E+00 -0.00000000000E+00 -0.74505805969E-08  0.93827000000E+00  0.93827000000E+00 0.  1.
     999902    2    1    2    0    0  0.29101681708E-02  0.42624647106E-02  0.13466420227E-01  0.10295084135E+01  0.10294073981E+01 0.  0.
     999903    2    3    3    0    0  0.12780021511E+00  0.35145878226E-01 -0.13335859479E-02  0.14003084252E+00  0.45152305224E-01 0.  0.
         14    1    1    2    0    0 -0.29101681708E-02 -0.42624647106E-02 -0.13466420227E-01  0.14421586526E-01  0.00000000000E+00 0.  1.
     999901    1    3    3    0    0 -0.12489004694E+00 -0.30883413516E-01  0.14800006175E-01  0.88947757096E+00  0.88000000000E+00 0.  1.
        -11    1    4    4    0    0  0.30651871934E-01 -0.85027877091E-02  0.89017145818E-02  0.33035379449E-01  0.51100000000E-03 0. -1.
         11    1    4    4    0    0  0.97148343172E-01  0.43648665935E-01 -0.10235300530E-01  0.10699546307E+00  0.51100000000E-03 0.  1.
</event>
<event>
 7    1  0.2091070E+004  0.1043930E+01  0.7957747E-01            NaN
         13   -1    0    0    0    0  0.00000000000E+00  0.00000000000E+00  0.74505805969E-08  0.10566000000E+00  0.10566000000E+00 0. -1.
     999900   -1    0    0    0    0 -0.00000000000E+00 -0.00000000000E+00 -0.74505805969E-08  0.93827000000E+00  0.93827000000E+00 0.  1.
     999903    2    1    2    0    0 -0.24797665467E-01 -0.67504278015E-01  0.18381851698E-01  0.86544040309E-01  0.44499737956E-01 0.  0.
         14    1    1    2    0    0  0.54270572075E-01  0.21714400081E-02  0.47312813319E-01  0.72031329637E-01  0.00000000000E+00 0. -1.
     999901    1    1    2    0    0 -0.29472906608E-01  0.65332838007E-01 -0.65694665017E-01  0.88535463005E+00  0.88000000000E+00 0.  1.
        -11    1    3    3    0    0 -0.22798282922E-02 -0.52655512544E-01 -0.19800939126E-02  0.52744502189E-01  0.51100000000E-03 0. -1.
         11    1    3    3    0    0 -0.22517837175E-01 -0.14848765472E-01  0.20361945611E-01  0.33799538120E-01  0.51100000000E-03 0.  1.
</event>
<event>
 7    1  0.2091070E+004  0.1043930E+01  0.7957747E-01            NaN
         13   -1    0    0    0    0  0.00000000000E+00  0.00000000000E+00  0.74505805969E-08  0.10566000000E+00  0.10566000000E+00 0. -1.
     999900   -1    0    0    0    0 -0.00000000000E+00 -0.00000000000E+00 -0.74505805969E-08  0.93827000000E+00  0.93827000000E+00 0.  1.
     999903    2    1    2    0    0 -0.24975585508E-02 -0.12655360122E-01 -0.46492436668E-01  0.66100414421E-01  0.45180993578E-01 0.  0.
         14    1    1    2    0    0  0.70893066248E-01 -0.42171652674E-01 -0.35251144338E-01  0.89704616985E-01  0.00000000000E+00 0.  1.
     999901    1    1    2    0    0 -0.68395507697E-01  0.54827012796E-01  0.81743581006E-01  0.88812496859E+00  0.88000000000E+00 0. -1.
        -11    1    3    3    0    0  0.20645241184E-01 -0.87321812321E-02 -0.29798430107E-01  0.37291882903E-01  0.51100000000E-03 0. -1.
         11    1    3    3    0    0 -0.23142799735E-01 -0.39231788901E-02 -0.16694006562E-01  0.28808531518E-01  0.51100000000E-03 0.  1.
</event>
<event>
 8    1  0.2091070E+004  0.1043930E+01  0.7957747E-01            NaN
         13   -1    0    0    0    0  0.00000000000E+00  0.00000000000E+00  0.74505805969E-08  0.10566000000E+00  0.10566000000E+00 0.  1.
     999900   -1    0    0    0    0 -0.00000000000E+00 -0.00000000000E+00 -0.74505805969E-08  0.93827000000E+00  0.93827000000E+00 0.  1.
     999902    2    1    2    0    0 -0.67220994426E-02 -0.63260153200E-02  0.15557503648E-03  0.10346980287E+01  0.10346568423E+01 0.  0.
     999903    2    3    3    0    0  0.31099475806E-01 -0.12632478610E-01  0.13246233517E+00  0.14398184392E+00  0.45362365753E-01 0.  0.
         14    1    1    2    0    0  0.67220994426E-02  0.63260153200E-02 -0.15557503648E-03  0.92319713137E-02  0.00000000000E+00 0. -1.
     999901    1    3    3    0    0 -0.37821575248E-01  0.63064632898E-02 -0.13230676014E+00  0.89071618477E+00  0.88000000000E+00 0.  1.
        -11    1    4    4    0    0  0.81414701146E-02  0.15790591307E-01  0.63456360353E-01  0.65898384652E-01  0.51100000000E-03 0. -1.
         11    1    4    4    0    0  0.22958005691E-01 -0.28423069916E-01  0.69005974820E-01  0.78083459264E-01  0.51100000000E-03 0.  1.
</event>
<event>
 8    1  0.2091070E+004  0.1043930E+01  0.7957747E-01            NaN
         13   -1    0    0    0    0  0.00000000000E+00  0.00000000000E+00  0.74505805969E-08  0.10566000000E+00  0.10566000000E+00 0. -1.
     999900   -1    0    0    0    0 -0.00000000000E+00 -0.00000000000E+00 -0.74505805969E-08  0.93827000000E+00  0.93827000000E+00 0. -1.
     999902    2    1    2    0    0 -0.14491492052E-01  0.36957797399E-03 -0.48827483012E-02  0.10286335573E+01  0.10285198170E+01 0.  0.
     999903    2    3    3    0    0 -0.79143254311E-01 -0.40574914276E-01  0.98413857445E-01  0.13929307658E+00  0.42512297911E-01 0.  0.
         14    1    1    2    0    0  0.14491492052E-01 -0.36957797399E-03  0.48827483012E-02  0.15296442748E-01  0.00000000000E+00 0. -1.
     999901    1    3    3    0    0  0.64651762259E-01  0.40944492250E-01 -0.10329660575E+00  0.88934048068E+00  0.88000000000E+00 0. -1.
        -11    1    4    4    0    0 -0.25287964071E-01  0.20809786095E-02  0.47239951920E-01  0.53625420999E-01  0.51100000000E-03 0. -1.
         11    1    4    4    0    0 -0.53855290239E-01 -0.42655892885E-01  0.51173905524E-01  0.85667655578E-01  0.51100000000E-03 0.  1.
</event>
<event>
 8    1  0.2091070E+004  0.1043930E+01  0.7957747E-01            NaN
         13   -1    0    0    0    0  0.00000000000E+00  0.00000000000E+00  0.74505805969E-08  0.10566000000E+00  0.10566000000E+00 0. -1.
     999900   -1    0    0    0    0 -0.00000000000E+00 -0.00000000000E+00 -0.74505805969E-08  0.93827000000E+00  0.93827000000E+00 0. -1.
     999902    2    1    2    0    0 -0.33464202432E-02 -0.13755652211E-01 -0.30755434571E-02  0.10294429208E+01  0.10293409793E+01 0.  0.
     999903    2    3    3    0    0 -0.84515841392E-01  0.43037854652E-01 -0.91401075887E-01  0.13949046306E+00  0.45915664355E-01 0.  0.
         14    1    1    2    0    0  0.33464202432E-02  0.13755652211E-01  0.30755434571E-02  0.14487079200E-01  0.00000000000E+00 0. -1.
     999901    1    3    3    0    0  0.81169421149E-01 -0.56793506864E-01  0.88325532430E-01  0.88995245774E+00  0.88000000000E+00 0.  1.
        -11    1    4    4    0    0 -0.79910957915E-01  0.21224774354E-01 -0.76704747534E-01  0.11278356111E+00  0.51100000000E-03 0.  1.
         11    1    4    4    0    0 -0.46048834769E-02  0.21813080298E-01 -0.14696328353E-01  0.26706901954E-01  0.51100000000E-03 0. -1.
</event>
<event>
 8    1  0.2091070E+004  0.1043930E+01  0.7957747E-01            NaN
         13   -1    0    0    0    0  0.00000000000E+00  0.00000000000E+00  0.74505805969E-08  0.10566000000E+00  0.10566000000E+00 0.  1.
     999900   -1    0    0    0    0 -0.00000000000E+00 -0.00000000000E+00 -0.74505805969E-08  0.93827000000E+00  0.93827000000E+00 0. -1.
     999902    2    1    2    0    0  0.28188340660E-02 -0.67792691829E-02  0.83426898316E-02  0.10328167291E+01  0.10327569371E+01 0.  0.
     999903    2    3    3    0    0 -0.94510711450E-01  0.84273816868E-02 -0.94367365951E-01  0.14138325531E+00  0.45615017094E-01 0.  0.
         14    1    1    2    0    0 -0.28188340660E-02  0.67792691829E-02 -0.83426898316E-02  0.11113270885E-01  0.00000000000E+00 0. -1.
     999901    1    3    3    0    0  0.97329545516E-01 -0.15206650870E-01  0.10271005578E+00  0.89143347380E+00  0.88000000000E+00 0.  1.
        -11    1    4    4    0    0 -0.19433329884E-02  0.12261230875E-01 -0.14175452411E-01  0.18849904449E-01  0.51100000000E-03 0.  1.
         11    1    4    4    0    0 -0.92567378462E-01 -0.38338491885E-02 -0.80191913540E-01  0.12253335086E+00  0.51100000000E-03 0. -1.
</event>
<event>
 8    1  0.2091070E+004  0.1043930E+01  0.7957747E-01            NaN
         13   -1    0    0    0    0  0.00000000000E+00  0.00000000000E+00  0.74505805969E-08  0.10566000000E+00  0.10566000000E+00 0.  1.
     999900   -1    0    0    0    0 -0.00000000000E+00 -0.00000000000E+00 -0.74505805969E-08  0.93827000000E+00  0.93827000000E+00 0.  1.
     999902    2    1    2    0    0 -0.24280383220E-02  0.12614149410E-01 -0.23174244695E-02  0.10308769317E+01  0.10307942888E+01 0.  0.
     999903    2    3    3    0    0  0.11612643282E+00 -0.49699976540E-01  0.39164469927E-01  0.13977707172E+00  0.45258568322E-01 0.  0.
         14    1    1    2    0    0  0.24280383220E-02 -0.12614149410E-01  0.23174244695E-02  0.13053068284E-01  0.00000000000E+00 0. -1.
     999901    1    3    3    0    0 -0.11855447114E+00  0.62314125950E-01 -0.41481894397E-01  0.89109986000E+00  0.88000000000E+00 0. -1.
        -11    1    4    4    0    0  0.95952573582E-01 -0.32663969835E-01  0.47697666665E-01  0.11202303258E+00  0.51100000000E-03 0.  1.
         11    1    4    4    0    0  0.20173859239E-01 -0.17036006705E-01 -0.85331967375E-02  0.27754039141E-01  0.51100000000E-03 0. -1.
</event>
<event>
 8    1  0.2091070E+004  0.1043930E+01  0.7957747E-01            NaN
         13   -1    0    0    0    0  0.00000000000E+00  0.00000000000E+00  0.74505805969E-08  0.10566000000E+00  0.10566000000E+00 0. -1.
     999900   -1    0    0    0    0 -0.00000000000E+00 -0.00000000000E+00 -0.74505805969E-08  0.93827000000E+00  0.93827000000E+00 0.  1.
     999902    2    1    2    0    0 -0.13654393988E-02 -0.12210961747E-01 -0.52377750049E-02  0.10305731179E+01  0.10304865575E+01 0.  0.
     999903    2    3    3    0    0 -0.10598890812E+00  0.79108658840E-01  0.14800761709E-01  0.13945758880E+00  0.41683665614E-01 0.  0.
         14    1    1    2    0    0  0.13654393988E-02  0.12210961747E-01  0.52377750049E-02  0.13356882067E-01  0.00000000000E+00 0.  1.
     999901    1    3    3    0    0  0.10462346872E+00 -0.91319620587E-01 -0.20038536713E-01  0.89111552913E+00  0.88000000000E+00 0.  1.
        -11    1    4    4    0    0 -0.93101818404E-01  0.52176449050E-01  0.14213533444E-02  0.10673617846E+00  0.51100000000E-03 0. -1.
         11    1    4    4    0    0 -0.12887089713E-01  0.26932209790E-01  0.13379408364E-01  0.32721410340E-01  0.51100000000E-03 0.  1.
</event>
<event>
 8    1  0.2091070E+004  0.1043930E+01  0.7957747E-01            NaN
         13   -1    0    0    0    0  0.00000000000E+00  0.00000000000E+00  0.74505805969E-08  0.10566000000E+00  0.10566000000E+00 0.  1.
     999900   -1    0    0    0    0 -0.00000000000E+00 -0.00000000000E+00 -0.74505805969E-08  0.93827000000E+00  0.93827000000E+00 0. -1.
     999902    2    1    2    0    0  0.26862004103E-02 -0.12010234572E-01  0.71285848023E-03  0.10316024060E+01  0.10315287463E+01 0.  0.
     999903    2    3    3    0    0 -0.12209938941E-01 -0.69887297727E-01 -0.11458093859E+00  0.14207201917E+00  0.44970547603E-01 0.  0.
         14    1    1    2    0    0 -0.26862004103E-02  0.12010234572E-01 -0.71285848023E-03  0.12327594020E-01  0.00000000000E+00 0.  1.
     999901    1    3    3    0    0  0.14896139351E-01  0.57877063155E-01  0.11529379707E+00  0.88953038681E+00  0.88000000000E+00 0.  1.
        -11    1    4    4    0    0  0.52128387517E-02 -0.60945105670E-02  0.17809176163E-02  0.82310105977E-02  0.51100000000E-03 0.  1.
         11    1    4    4    0    0 -0.17422777692E-01 -0.63792787160E-01 -0.11636185621E+00  0.13384100858E+00  0.51100000000E-03 0. -1.
</event>
<event>
 8    1  0.2091070E+004  0.1043930E+01  0.7957747E-01            NaN
         13   -1    0    0    0    0  0.00000000000E+00  0.00000000000E+00  0.74505805969E-08  0.10566000000E+00  0.10566000000E+00 0.  1.
     999900   -1    0    0    0    0 -0.00000000000E+00 -0.00000000000E+00 -0.74505805969E-08  0.93827000000E+00  0.93827000000E+00 0.  1.
     999902    2    1    2    0    0  0.11575000678E-01 -0.57607449647E-02 -0.25551982543E-02  0.10307506274E+01  0.10306663670E+01 0.  0.
     999903    2    3    3    0    0  0.46752387767E-01  0.46555590012E-01  0.11512694003E+00  0.14068122949E+00  0.46731009909E-01 0.  0.
         14    1    1    2    0    0 -0.11575000678E-01  0.57607449647E-02  0.25551982543E-02  0.13179372571E-01  0.00000000000E+00 0.  1.
     999901    1    3    3    0    0 -0.35177387089E-01 -0.52316334976E-01 -0.11768213829E+00  0.89006939793E+00  0.88000000000E+00 0.  1.
        -11    1    4    4    0    0  0.12985638122E-02  0.21571090689E-02  0.48660931330E-01  0.48728705569E-01  0.51100000000E-03 0. -1.
         11    1    4    4    0    0  0.45453823955E-01  0.44398480943E-01  0.66466008704E-01  0.91952523925E-01  0.51100000000E-03 0.  1.
</event>
<event>
 8    1  0.2091070E+004  0.1043930E+01  0.7957747E-01            NaN
         13   -1    0    0    0    0  0.00000000000E+00  0.00000000000E+00  0.74505805969E-08  0.10566000000E+00  0.10566000000E+00 0. -1.
     999900   -1    0    0    0    0 -0.00000000000E+00 -0.00000000000E+00 -0.74505805969E-08  0.93827000000E+00  0.93827000000E+00 0. -1.
     999902    2    1    2    0    0 -0.13301007827E-01 -0.39640402033E-02 -0.31358846785E-02  0.10297010086E+01  0.10296026918E+01 0.  0.
     999903    2    3    3    0    0  0.12464383239E+00 -0.73258167211E-03  0.38740487593E-01  0.13796514421E+00  0.44687067583E-01 0.  0.
         14    1    1    2    0    0  0.13301007827E-01  0.39640402033E-02  0.31358846785E-02  0.14228991414E-01  0.00000000000E+00 0. -1.
     999901    1    3    3    0    0 -0.13794484021E+00 -0.32314585312E-02 -0.41876372271E-01  0.89173586438E+00  0.88000000000E+00 0. -1.
        -11    1    4    4    0    0  0.27377026066E-01  0.14013201820E-01 -0.33871513424E-02  0.30945198282E-01  0.51100000000E-03 0. -1.
         11    1    4    4    0    0  0.97266806320E-01 -0.14745783492E-01  0.42127638935E-01  0.10701994593E+00  0.51100000000E-03 0.  1.
</event>
<event>
 8    1  0.2091070E+004  0.1043930E+01  0.7957747E-01            NaN
         13   -1    0    0    0    0  0.00000000000E+00  0.00000000000E+00  0.74505805969E-08  0.10566000000E+00  0.10566000000E+00 0.  1.
     999900   -1    0    0    0    0 -0.00000000000E+00 -0.00000000000E+00 -0.74505805969E-08  0.93827000000E+00  0.93827000000E+00 0.  1.
     999902    2    1    2    0    0 -0.78978121766E-02  0.88240122676E-02 -0.76036666574E-02  0.10298568207E+01  0.10297606599E+01 0.  0.
     999903    2    3    3    0    0 -0.27240144400E-01 -0.73153964486E-01 -0.10729055769E+00  0.14023218594E+00  0.45390243638E-01 0.  0.
         14    1    1    2    0    0  0.78978121766E-02 -0.88240122676E-02  0.76036666574E-02  0.14073179325E-01  0.00000000000E+00 0.  1.
     999901    1    3    3    0    0  0.19342332224E-01  0.81977976753E-01  0.99686891028E-01  0.88962463474E+00  0.88000000000E+00 0. -1.
        -11    1    4    4    0    0  0.23440157297E-02 -0.54767219746E-01 -0.57290245740E-01  0.79292976652E-01  0.51100000000E-03 0.  1.
         11    1    4    4    0    0 -0.29584160130E-01 -0.18386744740E-01 -0.50000311945E-01  0.60939209286E-01  0.51100000000E-03 0. -1.
</event>
<event>
 8    1  0.2091070E+004  0.1043930E+01  0.7957747E-01            NaN
         13   -1    0    0    0    0  0.00000000000E+00  0.00000000000E+00  0.74505805969E-08  0.10566000000E+00  0.10566000000E+00 0.  1.
     999900   -1    0    0    0    0 -0.00000000000E+00 -0.00000000000E+00 -0.74505805969E-08  0.93827000000E+00  0.93827000000E+00 0. -1.
     999902    2    1    2    0    0  0.49767692345E-02  0.71445742598E-03 -0.13833247660E-01  0.10292113920E+01  0.10291061422E+01 0.  0.
     999903    2    3    3    0    0 -0.25551828940E-01  0.12908511996E+00 -0.96217443437E-02  0.13936378757E+00  0.44875641111E-01 0.  0.
         14    1    1    2    0    0 -0.49767692345E-02 -0.71445742598E-03  0.13833247660E-01  0.14718608027E-01  0.00000000000E+00 0.  1.
     999901    1    3    3    0    0  0.30528598175E-01 -0.12837066253E+00 -0.42115033159E-02  0.88984760440E+00  0.88000000000E+00 0.  1.
        -11    1    4    4    0    0 -0.32357021531E-01  0.59545769439E-01  0.50769041387E-02  0.67961103412E-01  0.51100000000E-03 0. -1.
         11    1    4    4    0    0  0.68051925909E-02  0.69539350517E-01 -0.14698648482E-01  0.71402684156E-01  0.51100000000E-03 0.  1.
</event>
<event>
 8    1  0.2091070E+004  0.1043930E+01  0.7957747E-01            NaN
         13   -1    0    0    0    0  0.00000000000E+00  0.00000000000E+00  0.74505805969E-08  0.10566000000E+00  0.10566000000E+00 0.  1.
     999900   -1    0    0    0    0 -0.00000000000E+00 -0.00000000000E+00 -0.74505805969E-08  0.93827000000E+00  0.93827000000E+00 0. -1.
     999902    2    1    2    0    0 -0.77905762747E-02 -0.10625406488E-01 -0.24139791114E-02  0.10305352385E+01  0.10304481831E+01 0.  0.
     999903    2    3    3    0    0 -0.10138030622E+00 -0.35258924148E-01  0.79672409620E-01  0.14143230687E+00  0.46197904158E-01 0.  0.
         14    1    1    2    0    0  0.77905762747E-02  0.10625406488E-01  0.24139791114E-02  0.13394761546E-01  0.00000000000E+00 0.  1.
     999901    1    3    3    0    0  0.93589729948E-01  0.24633517660E-01 -0.82086388732E-01  0.88910293159E+00  0.88000000000E+00 0. -1.
        -11    1    4    4    0    0 -0.22063731627E-01 -0.10389366982E-01  0.45361120499E-01  0.51503782129E-01  0.51100000000E-03 0.  1.
         11    1    4    4    0    0 -0.79316574595E-01 -0.24869557166E-01  0.34311289121E-01  0.89928524737E-01  0.51100000000E-03 0. -1.
</event>
<event>
 8    1  0.2091070E+004  0.1043930E+01  0.7957747E-01            NaN
         13   -1    0    0    0    0  0.00000000000E+00  0.00000000000E+00  0.74505805969E-08  0.10566000000E+00  0.10566000000E+00 0. -1.
     999900   -1    0    0    0    0 -0.00000000000E+00 -0.00000000000E+00 -0.74505805969E-08  0.93827000000E+00  0.93827000000E+00 0.  1.
     999902    2    1    2    0    0  0.93949785744E-02  0.79180079704E-02  0.61848568802E-02  0.10301745310E+01  0.10300826915E+01 0.  0.
     999903    2    3    3    0    0 -0.71926690834E-01 -0.10754686113E+00  0.21242850583E-01  0.13878679658E+00  0.45505384406E-01 0.  0.
         14    1    1    2    0    0 -0.93949785744E-02 -0.79180079704E-02 -0.61848568802E-02  0.13755468995E-01  0.00000000000E+00 0.  1.
     999901    1    3    3    0    0  0.81321669409E-01  0.11546486910E+00 -0.15057993702E-01  0.89138773443E+00  0.88000000000E+00 0. -1.
        -11    1    4    4    0    0 -0.43935949735E-01 -0.36776513717E-01 -0.67514504369E-02  0.57695085096E-01  0.51100000000E-03 0. -1.
         11    1    4    4    0    0 -0.27990741099E-01 -0.70770347415E-01  0.27994301020E-01  0.81091711482E-01  0.51100000000E-03 0.  1.
</event>
<event>
 8    1  0.2091070E+004  0.1043930E+01  0.7957747E-01            NaN
         13   -1    0    0    0    0  0.00000000000E+00  0.00000000000E+00  0.74505805969E-08  0.10566000000E+00  0.10566000000E+00 0.  1.
     999900   -1    0    0    0    0 -0.00000000000E+00 -0.00000000000E+00 -0.74505805969E-08  0.93827000000E+00  0.93827000000E+00 0. -1.
     999902    2    1    2    0    0 -0.36091439145E-02  0.47972460650E-02  0.14532349955E-01  0.10282064926E+01  0.10280862623E+01 0.  0.
     999903    2    3    3    0    0 -0.33377479751E-01  0.54246662713E-02  0.12849903487E+00  0.14035799610E+00  0.45220370955E-01 0.  0.
         14    1    1    2    0    0  0.36091439145E-02 -0.47972460650E-02 -0.14532349955E-01  0.15723507395E-01  0.00000000000E+00 0. -1.
     999901    1    3    3    0    0  0.29768335836E-01 -0.62742020629E-03 -0.11396668491E+00  0.88784849650E+00  0.88000000000E+00 0. -1.
        -11    1    4    4    0    0 -0.43216982358E-01 -0.22876648383E-02  0.89784958610E-01  0.99672167068E-01  0.51100000000E-03 0.  1.
         11    1    4    4    0    0  0.98395026069E-02  0.77123311097E-02  0.38714076256E-01  0.40685829032E-01  0.51100000000E-03 0. -1.
</event>
<event>
 8    1  0.2091070E+004  0.1043930E+01  0.7957747E-01            NaN
         13   -1    0    0    0    0  0.00000000000E+00  0.00000000000E+00  0.74505805969E-08  0.10566000000E+00  0.10566000000E+00 0.  1.
     999900   -1    0    0    0    0 -0.00000000000E+00 -0.00000000000E+00 -0.74505805969E-08  0.93827000000E+00  0.93827000000E+00 0.  1.
     999902    2    1    2    0    0  0.32120656077E-02  0.25428796899E-01  0.86796991006E-02  0.10168693597E+01  0.10165092309E+01 0.  0.
     999903    2    3    3    0    0  0.73317001579E-01 -0.95872501988E-02  0.95724721795E-01  0.12910944757E+00  0.45152286788E-01 0.  0.
         14    1    1    2    0    0 -0.32120656077E-02 -0.25428796899E-01 -0.86796991006E-02  0.27060640304E-01  0.00000000000E+00 0. -1.
     999901    1    3    3    0    0 -0.70104935971E-01  0.35016047098E-01 -0.87045022695E-01  0.88775991213E+00  0.88000000000E+00 0.  1.
        -11    1    4    4    0    0  0.11913052324E-01  0.14378446850E-01  0.10704450409E-01  0.21529211064E-01  0.51100000000E-03 0. -1.
         11    1    4    4    0    0  0.61403949255E-01 -0.23965697048E-01  0.85020271386E-01  0.10758023651E+00  0.51100000000E-03 0.  1.
</event>
<event>
 8    1  0.2091070E+004  0.1043930E+01  0.7957747E-01            NaN
         13   -1    0    0    0    0  0.00000000000E+00  0.00000000000E+00  0.74505805969E-08  0.10566000000E+00  0.10566000000E+00 0. -1.
     999900   -1    0    0    0    0 -0.00000000000E+00 -0.00000000000E+00 -0.74505805969E-08  0.93827000000E+00  0.93827000000E+00 0.  1.
     999902    2    1    2    0    0  0.11346682373E-01  0.20840169660E-02 -0.50703627867E-02  0.10313284562E+01  0.10312514658E+01 0.  0.
     999903    2    3    3    0    0  0.11070294924E-02 -0.62225611870E-01  0.11810237219E+00  0.14036712061E+00  0.43376329333E-01 0.  0.
         14    1    1    2    0    0 -0.11346682373E-01 -0.20840169660E-02  0.50703627867E-02  0.12601543809E-01  0.00000000000E+00 0. -1.
     999901    1    3    3    0    0  0.10239652881E-01  0.64309628836E-01 -0.12317273497E+00  0.89096133558E+00  0.88000000000E+00 0.  1.
        -11    1    4    4    0    0  0.20204245195E-01 -0.28014095005E-01  0.72033167496E-01  0.79887667279E-01  0.51100000000E-03 0. -1.
         11    1    4    4    0    0 -0.19097215702E-01 -0.34211516866E-01  0.46069204690E-01  0.60479453334E-01  0.51100000000E-03 0.  1.
</event>
<event>
 8    1  0.2091070E+004  0.1043930E+01  0.7957747E-01            NaN
         13   -1    0    0    0    0  0.00000000000E+00  0.00000000000E+00  0.74505805969E-08  0.10566000000E+00  0.10566000000E+00 0.  1.
     999900   -1    0    0    0    0 -0.00000000000E+00 -0.00000000000E+00 -0.74505805969E-08  0.93827000000E+00  0.93827000000E+00 0. -1.
     999902    2    1    2    0    0 -0.38865298208E-02  0.41218408860E-02  0.12791273007E-01  0.10299403127E+01  0.10298452973E+01 0.  0.
     999903    2    3    3    0    0 -0.27505868439E-01  0.91897741003E-01 -0.90341389024E-01  0.13926706856E+00  0.45077513410E-01 0.  0.
         14    1    1    2    0    0  0.38865298208E-02 -0.41218408860E-02 -0.12791273007E-01  0.13989687326E-01  0.00000000000E+00 0. -1.
     999901    1    3    3    0    0  0.23619338618E-01 -0.87775900117E-01  0.10313266203E+00  0.89067324411E+00  0.88000000000E+00 0.  1.
        -11    1    4    4    0    0 -0.26656443713E-01  0.77331088369E-01 -0.93601952695E-01  0.12430707900E+00  0.51100000000E-03 0.  1.
         11    1    4    4    0    0 -0.84942472571E-03  0.14566652634E-01  0.32605636706E-02  0.14959989564E-01  0.51100000000E-03 0. -1.
</event>
<event>
 8    1  0.2091070E+004  0.1043930E+01  0.7957747E-01            NaN
         13   -1    0    0    0    0  0.00000000000E+00  0.00000000000E+00  0.74505805969E-08  0.10566000000E+00  0.10566000000E+00 0.  1.
     999900   -1    0    0    0    0 -0.00000000000E+00 -0.00000000000E+00 -0.74505805969E-08  0.93827000000E+00  0.93827000000E+00 0.  1.
     999902    2    1    2    0    0 -0.12027393595E-01  0.24899296993E-02  0.66654765339E-02  0.10299555045E+01  0.10298606968E+01 0.  0.
     999903    2    3    3    0    0  0.14588201844E-01  0.73991832668E-01 -0.10848899930E+00  0.13917973848E+00  0.43743910447E-01 0.  0.
         14    1    1    2    0    0  0.12027393595E-01 -0.24899296993E-02 -0.66654765339E-02  0.13974495484E-01  0.00000000000E+00 0.  1.
     999901    1    3    3    0    0 -0.26615595440E-01 -0.71501902969E-01  0.11515447583E+00  0.89077576603E+00  0.88000000000E+00 0. -1.
        -11    1    4    4    0    0 -0.13747282307E-01  0.42640984000E-01 -0.52209990934E-01  0.68799604371E-01  0.51100000000E-03 0. -1.
         11    1    4    4    0    0  0.28335484152E-01  0.31350848668E-01 -0.56279008362E-01  0.70380134112E-01  0.51100000000E-03 0.  1.
</event>
<event>
 8    1  0.2091070E+004  0.1043930E+01  0.7957747E-01            NaN
         13   -1    0    0    0    0  0.00000000000E+00  0.00000000000E+00  0.74505805969E-08  0.10566000000E+00  0.10566000000E+00 0.  1.
     999900   -1    0    0    0    0 -0.00000000000E+00 -0.00000000000E+00 -0.74505805969E-08  0.93827000000E+00  0.93827000000E+00 0.  1.
     999902    2    1    2    0    0  0.98038216009E-03  0.96835306502E-02  0.67880904906E-02  0.10320636574E+01  0.10319954374E+01 0.  0.
     999903    2    3    3    0    0 -0.26390222532E-01 -0.10170949671E+00  0.83291698323E-01  0.14132780507E+00  0.44662914257E-01 0.  0.
         14    1    1    2    0    0 -0.98038216009E-03 -0.96835306502E-02 -0.67880904906E-02  0.11866342635E-01  0.00000000000E+00 0. -1.
     999901    1    3    3    0    0  0.27370604692E-01  0.11139302736E+00 -0.76503607833E-01  0.89073585229E+00  0.88000000000E+00 0.  1.
        -11    1    4    4    0    0 -0.21796228217E-01 -0.38909828025E-01  0.58709686618E-01  0.73730174998E-01  0.51100000000E-03 0. -1.
         11    1    4    4    0    0 -0.45939943156E-02 -0.62799668690E-01  0.24582011705E-01  0.67597630075E-01  0.51100000000E-03 0.  1.
</event>
<event>
 8    1  0.2091070E+004  0.1043930E+01  0.7957747E-01            NaN
         13   -1    0    0    0    0  0.00000000000E+00  0.00000000000E+00  0.74505805969E-08  0.10566000000E+00  0.10566000000E+00 0.  1.
     999900   -1    0    0    0    0 -0.00000000000E+00 -0.00000000000E+00 -0.74505805969E-08  0.93827000000E+00  0.93827000000E+00 0. -1.
     999902    2    1    2    0    0 -0.95775788332E-02  0.27085994968E-02  0.11495422110E-01  0.10287243676E+01  0.10286119838E+01 0.  0.
     999903    2    3    3    0    0 -0.69879773498E-02  0.67375541425E-01 -0.11143114668E+00  0.13782624730E+00  0.44619262506E-01 0.  0.
         14    1    1    2    0    0  0.95775788332E-02 -0.27085994968E-02 -0.11495422110E-01  0.15205632411E-01  0.00000000000E+00 0. -1.
     999901    1    3    3    0    0 -0.25896014834E-02 -0.64666941928E-01  0.12292656879E+00  0.89089812029E+00  0.88000000000E+00 0.  1.
        -11    1    4    4    0    0  0.77018944484E-02  0.58556734641E-01 -0.62560142534E-01  0.86036288302E-01  0.51100000000E-03 0.  1.
         11    1    4    4    0    0 -0.14689871798E-01  0.88188067839E-02 -0.48871004142E-01  0.51789959001E-01  0.51100000000E-03 0. -1.
</event>
<event>
 8    1  0.2091070E+004  0.1043930E+01  0.7957747E-01            NaN
         13   -1    0    0    0    0  0.00000000000E+00  0.00000000000E+00  0.74505805969E-08  0.10566000000E+00  0.10566000000E+00 0.  1.
     999900   -1    0    0    0    0 -0.00000000000E+00 -0.00000000000E+00 -0.74505805969E-08  0.93827000000E+00  0.93827000000E+00 0.  1.
     999902    2    1    2    0    0  0.56493843126E-02 -0.11969612075E-01  0.30844610717E-02  0.10303395233E+01  0.10302498883E+01 0.  0.
     999903    2    3    3    0    0 -0.76097321391E-01 -0.82599355900E-01 -0.76580890240E-01  0.14016108457E+00  0.34161981219E-01 0.  0.
         14    1    1    2    0    0 -0.56493843126E-02  0.11969612075E-01 -0.30844610717E-02  0.13590476682E-01  0.00000000000E+00 0. -1.
     999901    1    3    3    0    0  0.81746705704E-01  0.70629743824E-01  0.79665351312E-01  0.89017843874E+00  0.88000000000E+00 0. -1.
        -11    1    4    4    0    0 -0.83695765546E-02 -0.12535004817E-01  0.16832844673E-02  0.15174673804E-01  0.51100000000E-03 0. -1.
         11    1    4    4    0    0 -0.67727744837E-01 -0.70064351083E-01 -0.78264174707E-01  0.12498641077E+00  0.51100000000E-03 0.  1.
</event>
<event>
 8    1  0.2091070E+004  0.1043930E+01  0.7957747E-01            NaN
         13   -1    0    0    0    0  0.00000000000E+00  0.00000000000E+00  0.74505805969E-08  0.10566000000E+00  0.10566000000E+00 0.  1.
     999900   -1    0    0    0    0 -0.00000000000E+00 -0.00000000000E+00 -0.74505805969E-08  0.93827000000E+00  0.93827000000E+00 0.  1.
     999902    2    1    2    0    0  0.13081793113E-01 -0.34537609751E-02  0.13733865642E-02  0.10303304424E+01  0.10302406867E+01 0.  0.
     999903    2    3    3    0    0  0.62012642526E-01 -0.47525368488E-01  0.10763111986E+00  0.14149567683E+00  0.48294307300E-01 0.  0.
         14    1    1    2    0    0 -0.13081793113E-01  0.34537609751E-02 -0.13733865642E-02  0.13599557588E-01  0.00000000000E+00 0. -1.
     999901    1    3    3    0    0 -0.48930849413E-01  0.44071607513E-01 -0.10625773330E+00  0.88883476558E+00  0.88000000000E+00 0.  1.
        -11    1    4    4    0    0  0.67224193490E-01 -0.30379138636E-01  0.83259103594E-01  0.11123993755E+00  0.51100000000E-03 0. -1.
         11    1    4    4    0    0 -0.52115509636E-02 -0.17146229852E-01  0.24372016266E-01  0.30255739281E-01  0.51100000000E-03 0.  1.
</event>
<event>
 8    1  0.2091070E+004  0.1043930E+01  0.7957747E-01            NaN
         13   -1    0    0    0    0  0.00000000000E+00  0.00000000000E+00  0.74505805969E-08  0.10566000000E+00  0.10566000000E+00 0.  1.
     999900   -1    0    0    0    0 -0.00000000000E+00 -0.00000000000E+00 -0.74505805969E-08  0.93827000000E+00  0.93827000000E+00 0. -1.
     999902    2    1    2    0    0  0.83999028449E-02 -0.25995114913E-02 -0.10561375925E-01  0.10301874206E+01  0.10300957543E+01 0.  0.
     999903    2    3    3    0    0 -0.12700770280E+00  0.28823283764E-01 -0.22857371181E-01  0.13919145918E+00  0.43474873584E-01 0.  0.
         14    1    1    2    0    0 -0.83999028449E-02  0.25995114913E-02  0.10561375925E-01  0.13742579424E-01  0.00000000000E+00 0.  1.
     999901    1    3    3    0    0  0.13540760565E+00 -0.31422795256E-01  0.12295995255E-01  0.89099596140E+00  0.88000000000E+00 0.  1.
        -11    1    4    4    0    0 -0.11833593166E+00  0.22609046410E-01 -0.32519175196E-01  0.12478910040E+00  0.51100000000E-03 0.  1.
         11    1    4    4    0    0 -0.86717711377E-02  0.62142373538E-02  0.96618040151E-02  0.14402358778E-01  0.51100000000E-03 0. -1.
</event>
<event>
 8    1  0.2091070E+004  0.1043930E+01  0.7957747E-01            NaN
         13   -1    0    0    0    0  0.00000000000E+00  0.00000000000E+00  0.74505805969E-08  0.10566000000E+00  0.10566000000E+00 0. -1.
     999900   -1    0    0    0    0 -0.00000000000E+00 -0.00000000000E+00 -0.74505805969E-08  0.93827000000E+00  0.93827000000E+00 0.  1.
     999902    2    1    2    0    0 -0.13128921646E-01 -0.10476041334E-02  0.25543435909E-02  0.10305139376E+01  0.10304266034E+01 0.  0.
     999903    2    3    3    0    0 -0.51460384448E-01 -0.92577002321E-01  0.82954802899E-01  0.14129452398E+00  0.43173726467E-01 0.  0.
         14    1    1    2    0    0  0.13128921646E-01  0.10476041334E-02 -0.25543435909E-02  0.13416062358E-01  0.00000000000E+00 0.  1.
     999901    1    3    3    0    0  0.38331462801E-01  0.91529398188E-01 -0.80400459308E-01  0.88921941366E+00  0.88000000000E+00 0.  1.
        -11    1    4    4    0    0 -0.48059185904E-01 -0.65452495672E-01  0.79663898327E-01  0.11375549374E+00  0.51100000000E-03 0.  1.
         11    1    4    4    0    0 -0.34011985432E-02 -0.27124506650E-01  0.32909045719E-02  0.27539030237E-01  0.51100000000E-03 0. -1.
</event>
<event>
 8    1  0.2091070E+004  0.1043930E+01  0.7957747E-01            NaN
         13   -1    0    0    0    0  0.00000000000E+00  0.00000000000E+00  0.74505805969E-08  0.10566000000E+00  0.10566000000E+00 0. -1.
     999900   -1    0    0    0    0 -0.00000000000E+00 -0.00000000000E+00 -0.74505805969E-08  0.93827000000E+00  0.93827000000E+00 0. -1.
     999902    2    1    2    0    0 -0.14111786762E-01  0.17623363053E-02 -0.38557683790E-02  0.10291951670E+01  0.10290896834E+01 0.  0.
     999903    2    3    3    0    0 -0.14972378259E-01  0.27980924687E-01 -0.12850019150E+00  0.14002454936E+00  0.45688849288E-01 0.  0.
         14    1    1    2    0    0  0.14111786762E-01 -0.17623363053E-02  0.38557683790E-02  0.14734833038E-01  0.00000000000E+00 0.  1.
     999901    1    3    3    0    0  0.86059149662E-03 -0.26218588382E-01  0.12464442312E+00  0.88917061760E+00  0.88000000000E+00 0.  1.
        -11    1    4    4    0    0 -0.27369108734E-01  0.81151897155E-02 -0.94639696810E-01  0.98852707349E-01  0.51100000000E-03 0. -1.
         11    1    4    4    0    0  0.12396730476E-01  0.19865734972E-01 -0.33860494694E-01  0.41171842009E-01  0.51100000000E-03 0.  1.
</event>
<event>
 8    1  0.2091070E+004  0.1043930E+01  0.7957747E-01            NaN
         13   -1    0    0    0    0  0.00000000000E+00  0.00000000000E+00  0.74505805969E-08  0.10566000000E+00  0.10566000000E+00 0.  1.
     999900   -1    0    0    0    0 -0.00000000000E+00 -0.00000000000E+00 -0.74505805969E-08  0.93827000000E+00  0.93827000000E+00 0.  1.
     999902    2    1    2    0    0  0.57113156112E-02 -0.13984400014E-02  0.82998762708E-02  0.10337583381E+01  0.10337082948E+01 0.  0.
     999903    2    3    3    0    0 -0.72936994819E-01 -0.22546631435E-01  0.11317683509E+00  0.14379655280E+00  0.45169644621E-01 0.  0.
         14    1    1    2    0    0 -0.57113156112E-02  0.13984400014E-02 -0.82998762708E-02  0.10171661937E-01  0.00000000000E+00 0.  1.
     999901    1    3    3    0    0  0.78648310431E-01  0.21148191433E-01 -0.10487695882E+00  0.88996178526E+00  0.88000000000E+00 0.  1.
        -11    1    4    4    0    0 -0.70387573468E-01 -0.24019610036E-01  0.75426556221E-01  0.10592817694E+00  0.51100000000E-03 0.  1.
         11    1    4    4    0    0 -0.25494213516E-02  0.14729786010E-02  0.37750278866E-01  0.37868375865E-01  0.51100000000E-03 0. -1.
</event>
<event>
 8    1  0.2091070E+004  0.1043930E+01  0.7957747E-01            NaN
         13   -1    0    0    0    0  0.00000000000E+00  0.00000000000E+00  0.74505805969E-08  0.10566000000E+00  0.10566000000E+00 0.  1.
     999900   -1    0    0    0    0 -0.00000000000E+00 -0.00000000000E+00 -0.74505805969E-08  0.93827000000E+00  0.93827000000E+00 0. -1.
     999902    2    1    2    0    0 -0.68665941130E-02 -0.83579218174E-02  0.81396652927E-02  0.10303926767E+01  0.10303037460E+01 0.  0.
     999903    2    3    3    0    0  0.56655459807E-01  0.11798539129E+00  0.16853909439E-01  0.13906017858E+00  0.43855277001E-01 0.  0.
         14    1    1    2    0    0  0.68665941130E-02  0.83579218174E-02 -0.81396652927E-02  0.13537323328E-01  0.00000000000E+00 0. -1.
     999901    1    3    3    0    0 -0.63522053920E-01 -0.12634331310E+00 -0.87142441465E-02  0.89133249809E+00  0.88000000000E+00 0. -1.
        -11    1    4    4    0    0  0.17608678066E-02  0.50763833640E-01  0.82922912555E-03  0.50803702652E-01  0.51100000000E-03 0. -1.
         11    1    4    4    0    0  0.54894592000E-01  0.67221557647E-01  0.16024680314E-01  0.88256475929E-01  0.51100000000E-03 0.  1.
</event>
<event>
 8    1  0.2091070E+004  0.1043930E+01  0.7957747E-01            NaN
         13   -1    0    0    0    0  0.00000000000E+00  0.00000000000E+00  0.74505805969E-08  0.10566000000E+00  0.10566000000E+00 0. -1.
     999900   -1    0    0    0    0 -0.00000000000E+00 -0.00000000000E+00 -0.74505805969E-08  0.93827000000E+00  0.93827000000E+00 0. -1.
     999902    2    1    2    0    0  0.51393417039E-02 -0.17692866893E-02 -0.12774842554E-01  0.10300469236E+01  0.10299533606E+01 0.  0.
     999903    2    3    3    0    0  0.24921009150E-01  0.34035235325E-01  0.12426255081E+00  0.13850190209E+00  0.44296065382E-01 0.  0.
         14    1    1    2    0    0 -0.51393417039E-02  0.17692866893E-02  0.12774842554E-01  0.13883076417E-01  0.00000000000E+00 0. -1.
     999901    1    3    3    0    0 -0.19781667446E-01 -0.35804522014E-01 -0.13703739337E+00  0.89154502149E+00  0.88000000000E+00 0. -1.
        -11    1    4    4    0    0  0.95699292824E-02  0.10247344774E-01  0.10067731413E+00  0.10165025490E+00  0.51100000000E-03 0.  1.
         11    1    4    4    0    0  0.15351079868E-01  0.23787890552E-01  0.23585236685E-01  0.36851647188E-01  0.51100000000E-03 0. -1.
</event>
<event>
 8    1  0.2091070E+004  0.1043930E+01  0.7957747E-01            NaN
         13   -1    0    0    0    0  0.00000000000E+00  0.00000000000E+00  0.74505805969E-08  0.10566000000E+00  0.10566000000E+00 0.  1.
     999900   -1    0    0    0    0 -0.00000000000E+00 -0.00000000000E+00 -0.74505805969E-08  0.93827000000E+00  0.93827000000E+00 0. -1.
     999902    2    1    2    0    0 -0.10323906394E-01  0.96246624997E-02 -0.37215706886E-03  0.10298106632E+01  0.10297138662E+01 0.  0.
     999903    2    3    3    0    0  0.88575818655E-01  0.11966365384E-01 -0.96456029873E-01  0.13907010061E+00  0.45253261029E-01 0.  0.
         14    1    1    2    0    0  0.10323906394E-01 -0.96246624997E-02  0.37215706886E-03  0.14119336824E-01  0.00000000000E+00 0.  1.
     999901    1    3    3    0    0 -0.98899725050E-01 -0.23417028845E-02  0.96083872804E-01  0.89074056257E+00  0.88000000000E+00 0.  1.
        -11    1    4    4    0    0  0.67129384156E-01 -0.68424793408E-02 -0.47897173565E-01  0.82750070073E-01  0.51100000000E-03 0. -1.
         11    1    4    4    0    0  0.21446434499E-01  0.18808844725E-01 -0.48558856308E-01  0.56320030536E-01  0.51100000000E-03 0.  1.
</event>
<event>
 8    1  0.2091070E+004  0.1043930E+01  0.7957747E-01            NaN
         13   -1    0    0    0    0  0.00000000000E+00  0.00000000000E+00  0.74505805969E-08  0.10566000000E+00  0.10566000000E+00 0. -1.
     999900   -1    0    0    0    0 -0.00000000000E+00 -0.00000000000E+00 -0.74505805969E-08  0.93827000000E+00  0.93827000000E+00 0. -1.
     999902    2    1    2    0    0 -0.10210855664E-02  0.13002547368E-01 -0.41952791599E-02  0.10302292985E+01  0.10301381938E+01 0.  0.
     999903    2    3    3    0    0  0.73522915557E-01 -0.15811182167E-01  0.10847875231E+00  0.13945296493E+00  0.44987521954E-01 0.  0.
         14    1    1    2    0    0  0.10210855664E-02 -0.13002547368E-01  0.41952791599E-02  0.13700701479E-01  0.00000000000E+00 0. -1.
     999901    1    3    3    0    0 -0.74544001123E-01  0.28813729535E-01 -0.11267403147E+00  0.89077633359E+00  0.88000000000E+00 0.  1.
        -11    1    4    4    0    0  0.12198119440E-01  0.14416065161E-01  0.29024930659E-01  0.34631268723E-01  0.51100000000E-03 0.  1.
         11    1    4    4    0    0  0.61324796116E-01 -0.30227247328E-01  0.79453821654E-01  0.10482169621E+00  0.51100000000E-03 0. -1.
</event>
<event>
 8    1  0.2091070E+004  0.1043930E+01  0.7957747E-01            NaN
         13   -1    0    0    0    0  0.00000000000E+00  0.00000000000E+00  0.74505805969E-08  0.10566000000E+00  0.10566000000E+00 0. -1.
     999900   -1    0    0    0    0 -0.00000000000E+00 -0.00000000000E+00 -0.74505805969E-08  0.93827000000E+00  0.93827000000E+00 0. -1.
     999902    2    1    2    0    0 -0.40404191462E-02 -0.11762596168E-01  0.65712992300E-02  0.10298635282E+01  0.10297674597E+01 0.  0.
     999903    2    3    3    0    0 -0.36181011948E-01  0.78795797853E-01  0.99844726791E-01  0.13973220489E+00  0.45147272691E-01 0.  0.
         14    1    1    2    0    0  0.40404191462E-02  0.11762596168E-01 -0.65712992300E-02  0.14066471805E-01  0.00000000000E+00 0.  1.
     999901    1    3    3    0    0  0.32140592802E-01 -0.90558394021E-01 -0.93273427561E-01  0.89013132330E+00  0.88000000000E+00 0. -1.
        -11    1    4    4    0    0 -0.22443913071E-01  0.85603712727E-02  0.38945069084E-01  0.45760121473E-01  0.51100000000E-03 0. -1.
         11    1    4    4    0    0 -0.13737098877E-01  0.70235426580E-01  0.60899657706E-01  0.93972083420E-01  0.51100000000E-03 0.  1.
</event>
<event>
 8    1  0.2091070E+004  0.1043930E+01  0.7957747E-01            NaN
         13   -1    0    0    0    0  0.00000000000E+00  0.00000000000E+00  0.74505805969E-08  0.10566000000E+00  0.10566000000E+00 0. -1.
     999900   -1    0    0    0    0 -0.00000000000E+00 -0.00000000000E+00 -0.74505805969E-08  0.93827000000E+00  0.93827000000E+00 0. -1.
     999902    2    1    2    0    0 -0.11499116513E-01  0.33772778792E-02  0.50707181070E-02  0.10309166273E+01  0.10308344894E+01 0.  0.
     999903    2    3    3    0    0  0.31552944507E-01  0.10359963569E+00  0.78628492701E-01  0.14113645943E+00  0.44817267813E-01 0.  0.
         14    1    1    2    0    0  0.11499116513E-01 -0.33772778792E-02 -0.50707181070E-02  0.13013372683E-01  0.00000000000E+00 0. -1.
     999901    1    3    3    0    0 -0.43052061020E-01 -0.10022235781E+00 -0.73557774594E-01  0.88978016789E+00  0.88000000000E+00 0. -1.
        -11    1    4    4    0    0  0.15661211438E-01  0.59545471892E-01  0.70496696330E-01  0.93600117954E-01  0.51100000000E-03 0. -1.
         11    1    4    4    0    0  0.15891733068E-01  0.44054163796E-01  0.81317963708E-02  0.47536341476E-01  0.51100000000E-03 0.  1.
</event>
<event>
 8    1  0.2091070E+004  0.1043930E+01  0.7957747E-01            NaN
         13   -1    0    0    0    0  0.00000000000E+00  0.00000000000E+00  0.74505805969E-08  0.10566000000E+00  0.10566000000E+00 0. -1.
     999900   -1    0    0    0    0 -0.00000000000E+00 -0.00000000000E+00 -0.74505805969E-08  0.93827000000E+00  0.93827000000E+00 0.  1.
     999902    2    1    2    0    0 -0.68696147083E-02  0.11875347542E-01  0.93992810689E-03  0.10301786746E+01  0.10300868908E+01 0.  0.
     999903    2    3    3    0    0 -0.40838134374E-01  0.98584431817E-01  0.81937676919E-01  0.14156573246E+00  0.44050315454E-01 0.  0.
         14    1    1    2    0    0  0.68696147083E-02 -0.11875347542E-01 -0.93992810689E-03  0.13751325403E-01  0.00000000000E+00 0.  1.
     999901    1    3    3    0    0  0.33968519666E-01 -0.86709084275E-01 -0.80997748812E-01  0.88861294214E+00  0.88000000000E+00 0.  1.
        -11    1    4    4    0    0 -0.17977941992E-01  0.22288690460E-01  0.45994778360E-01  0.54182772890E-01  0.51100000000E-03 0. -1.
         11    1    4    4    0    0 -0.22860192383E-01  0.76295741357E-01  0.35942898559E-01  0.87382959568E-01  0.51100000000E-03 0.  1.
</event>
<event>
 8    1  0.2091070E+004  0.1043930E+01  0.7957747E-01            NaN
         13   -1    0    0    0    0  0.00000000000E+00  0.00000000000E+00  0.74505805969E-08  0.10566000000E+00  0.10566000000E+00 0. -1.
     999900   -1    0    0    0    0 -0.00000000000E+00 -0.00000000000E+00 -0.74505805969E-08  0.93827000000E+00  0.93827000000E+00 0. -1.
     999902    2    1    2    0    0 -0.11172467969E-01 -0.63865290656E-02 -0.72845065516E-02  0.10291423082E+01  0.10290360609E+01 0.  0.
     999903    2    3    3    0    0 -0.41140657775E-01 -0.12764508468E+00  0.60080462905E-02  0.14022250207E+00  0.40502248122E-01 0.  0.
         14    1    1    2    0    0  0.11172467969E-01  0.63865290656E-02  0.72845065516E-02  0.14787691833E-01  0.00000000000E+00 0.  1.
     999901    1    3    3    0    0  0.29968189805E-01  0.12125855561E+00 -0.13292552842E-01  0.88891980610E+00  0.88000000000E+00 0.  1.
        -11    1    4    4    0    0 -0.36149841895E-01 -0.88359676246E-01 -0.12897300664E-01  0.96337142062E-01  0.51100000000E-03 0.  1.
         11    1    4    4    0    0 -0.49908158793E-02 -0.39285408430E-01  0.18905346954E-01  0.43885360009E-01  0.51100000000E-03 0. -1.
</event>
<event>
 8    1  0.2091070E+004  0.1043930E+01  0.7957747E-01            NaN
         13   -1    0    0    0    0  0.00000000000E+00  0.00000000000E+00  0.74505805969E-08  0.10566000000E+00  0.10566000000E+00 0. -1.
     999900   -1    0    0    0    0 -0.00000000000E+00 -0.00000000000E+00 -0.74505805969E-08  0.93827000000E+00  0.93827000000E+00 0.  1.
     999902    2    1    2    0    0  0.32328798351E-02 -0.13167395170E-01  0.42841627087E-02  0.10297107926E+01  0.10296126119E+01 0.  0.
     999903    2    3    3    0    0 -0.38620858828E-01  0.55369022312E-01 -0.11247316390E+00  0.13837401607E+00  0.44043800433E-01 0.  0.
         14    1    1    2    0    0 -0.32328798351E-02  0.13167395170E-01 -0.42841627087E-02  0.14219207352E-01  0.00000000000E+00 0.  1.
     999901    1    3    3    0    0  0.41853738663E-01 -0.68536417483E-01  0.11675732661E+00  0.89133677658E+00  0.88000000000E+00 0. -1.
        -11    1    4    4    0    0 -0.28841071808E-01  0.27163778847E-01 -0.27293369338E-01  0.48113069275E-01  0.51100000000E-03 0. -1.
         11    1    4    4    0    0 -0.97797870201E-02  0.28205243466E-01 -0.85179794566E-01  0.90260946796E-01  0.51100000000E-03 0.  1.
</event>
<event>
 8    1  0.2091070E+004  0.1043930E+01  0.7957747E-01            NaN
         13   -1    0    0    0    0  0.00000000000E+00  0.00000000000E+00  0.74505805969E-08  0.10566000000E+00  0.10566000000E+00 0.  1.
     999900   -1    0    0    0    0 -0.00000000000E+00 -0.00000000000E+00 -0.74505805969E-08  0.93827000000E+00  0.93827000000E+00 0. -1.
     999902    2    1    2    0    0 -0.87750415474E-02  0.10389542651E-01 -0.37485514345E-02  0.10298234204E+01  0.10297267995E+01 0.  0.
     999903    2    3    3    0    0 -0.86153023538E-01  0.76681171586E-01  0.67568107736E-01  0.14107823866E+00  0.45114018875E-01 0.  0.
         14    1    1    2    0    0  0.87750415474E-02 -0.10389542651E-01  0.37485514345E-02  0.14106579618E-01  0.00000000000E+00 0.  1.
     999901    1    3    3    0    0  0.77377981991E-01 -0.66291628935E-01 -0.71316659171E-01  0.88874518172E+00  0.88000000000E+00 0. -1.
        -11    1    4    4    0    0 -0.61914334619E-01  0.32054067135E-01  0.54881246802E-01  0.88730267794E-01  0.51100000000E-03 0. -1.
         11    1    4    4    0    0 -0.24238688919E-01  0.44627104451E-01  0.12686860934E-01  0.52347970864E-01  0.51100000000E-03 0.  1.
</event>
<event>
 8    1  0.2091070E+004  0.1043930E+01  0.7957747E-01            NaN
         13   -1    0    0    0    0  0.00000000000E+00  0.00000000000E+00  0.74505805969E-08  0.10566000000E+00  0.10566000000E+00 0.  1.
     999900   -1    0    0    0    0 -0.00000000000E+00 -0.00000000000E+00 -0.74505805969E-08  0.93827000000E+00  0.93827000000E+00 0. -1.
     999902    2    1    2    0    0 -0.90208079412E-02  0.75544864193E-02  0.84088859254E-02  0.10294678216E+01  0.10293662328E+01 0.  0.
     999903    2    3    3    0    0 -0.91815404453E-01  0.56714404618E-01 -0.77127599750E-01  0.14009268527E+00  0.45063307004E-01 0.  0.
         14    1    1    2    0    0  0.90208079412E-02 -0.75544864193E-02 -0.84088859254E-02  0.14462178379E-01  0.00000000000E+00 0. -1.
     999901    1    3    3    0    0  0.82794596512E-01 -0.49159918199E-01  0.85536485675E-01  0.88937513635E+00  0.88000000000E+00 0.  1.
        -11    1    4    4    0    0 -0.26201093535E-01  0.39273794609E-01 -0.19666955060E-01  0.51146637111E-01  0.51100000000E-03 0.  1.
         11    1    4    4    0    0 -0.65614310919E-01  0.17440610009E-01 -0.57460644690E-01  0.88946048164E-01  0.51100000000E-03 0. -1.
</event>
<event>
 8    1  0.2091070E+004  0.1043930E+01  0.7957747E-01            NaN
         13   -1    0    0    0    0  0.00000000000E+00  0.00000000000E+00  0.74505805969E-08  0.10566000000E+00  0.10566000000E+00 0.  1.
     999900   -1    0    0    0    0 -0.00000000000E+00 -0.00000000000E+00 -0.74505805969E-08  0.93827000000E+00  0.93827000000E+00 0.  1.
     999902    2    1    2    0    0  0.10542832834E-01  0.82639275625E-02  0.15982487874E-02  0.10304393283E+01  0.10303510136E+01 0.  0.
     999903    2    3    3    0    0 -0.10414834311E+00  0.18799034599E-02  0.81812964181E-01  0.13935615479E+00  0.43317033148E-01 0.  0.
         14    1    1    2    0    0 -0.10542832834E-01 -0.82639275625E-02 -0.15982487874E-02  0.13490671670E-01  0.00000000000E+00 0. -1.
     999901    1    3    3    0    0  0.11469117594E+00  0.63840241026E-02 -0.80214715394E-01  0.89108317354E+00  0.88000000000E+00 0. -1.
        -11    1    4    4    0    0 -0.86439945072E-01 -0.12300957780E-01  0.76419035091E-01  0.11603149448E+00  0.51100000000E-03 0.  1.
         11    1    4    4    0    0 -0.17708398034E-01  0.14180861240E-01  0.53939290901E-02  0.23324660307E-01  0.51100000000E-03 0. -1.
</event>
<event>
 8    1  0.2091070E+004  0.1043930E+01  0.7957747E-01            NaN
         13   -1    0    0    0    0  0.00000000000E+00  0.00000000000E+00  0.74505805969E-08  0.10566000000E+00  0.10566000000E+00 0.  1.
     999900   -1    0    0    0    0 -0.00000000000E+00 -0.00000000000E+00 -0.74505805969E-08  0.93827000000E+00  0.93827000000E+00 0. -1.
     999902    2    1    2    0    0 -0.16587081709E-01  0.85955506334E-02 -0.47804489880E-02  0.10246461346E+01  0.10244646572E+01 0.  0.
     999903    2    3    3    0    0  0.61886602534E-01 -0.87820751016E-01 -0.65800411064E-01  0.13381637644E+00  0.45107567267E-01 0.  0.
         14    1    1    2    0    0  0.16587081709E-01 -0.85955506334E-02  0.47804489880E-02  0.19283865350E-01  0.00000000000E+00 0. -1.
     999901    1    3    3    0    0 -0.78473684244E-01  0.96416301649E-01  0.61019962076E-01  0.89082975821E+00  0.88000000000E+00 0.  1.
        -11    1    4    4    0    0  0.29124387907E-01 -0.59839721670E-01 -0.16947541193E-01  0.68676797639E-01  0.51100000000E-03 0. -1.
         11    1    4    4    0    0  0.32762214627E-01 -0.27981029346E-01 -0.48852869871E-01  0.65139578799E-01  0.51100000000E-03 0.  1.
</event>
<event>
 8    1  0.2091070E+004  0.1043930E+01  0.7957747E-01            NaN
         13   -1    0    0    0    0  0.00000000000E+00  0.00000000000E+00  0.74505805969E-08  0.10566000000E+00  0.10566000000E+00 0. -1.
     999900   -1    0    0    0    0 -0.00000000000E+00 -0.00000000000E+00 -0.74505805969E-08  0.93827000000E+00  0.93827000000E+00 0. -1.
     999902    2    1    2    0    0 -0.51032132258E-02 -0.11938325430E-01  0.49900374273E-02  0.10300207630E+01  0.10299268447E+01 0.  0.
     999903    2    3    3    0    0 -0.82670612738E-01 -0.66608192135E-01  0.84613540127E-01  0.14134455768E+00  0.39341471028E-01 0.  0.
         14    1    1    2    0    0  0.51032132258E-02  0.11938325430E-01 -0.49900374273E-02  0.13909236961E-01  0.00000000000E+00 0.  1.
     999901    1    3    3    0    0  0.77567399512E-01  0.54669866705E-01 -0.79623502699E-01  0.88867620536E+00  0.88000000000E+00 0. -1.
        -11    1    4    4    0    0 -0.75625429967E-01 -0.45615628751E-01  0.53864139118E-01  0.10344852753E+00  0.51100000000E-03 0. -1.
         11    1    4    4    0    0 -0.70451827710E-02 -0.20992563383E-01  0.30749401009E-01  0.37896030149E-01  0.51100000000E-03 0.  1.
</event>
<event>
 8    1  0.2091070E+004  0.1043930E+01  0.7957747E-01            NaN
         13   -1    0    0    0    0  0.00000000000E+00  0.00000000000E+00  0.74505805969E-08  0.10566000000E+00  0.10566000000E+00 0.  1.
     999900   -1    0    0    0    0 -0.00000000000E+00 -0.00000000000E+00 -0.74505805969E-08  0.93827000000E+00  0.93827000000E+00 0.  1.
     999902    2    1    2    0    0  0.11450631605E-01  0.36583945444E-02 -0.67324865840E-02  0.10301522211E+01  0.10300600815E+01 0.  0.
     999903    2    3    3    0    0  0.10149776948E+00  0.27892625964E-01  0.82027329466E-01  0.14078497980E+00  0.44856793978E-01 0.  0.
         14    1    1    2    0    0 -0.11450631605E-01 -0.36583945444E-02  0.67324865840E-02  0.13777778863E-01  0.00000000000E+00 0.  1.
     999901    1    3    3    0    0 -0.90047137877E-01 -0.24234231420E-01 -0.88759816050E-01  0.88936724133E+00  0.88000000000E+00 0.  1.
        -11    1    4    4    0    0  0.51269834704E-01  0.37158680732E-01  0.44082480699E-01  0.77154972166E-01  0.51100000000E-03 0. -1.
         11    1    4    4    0    0  0.50227934778E-01 -0.92660547679E-02  0.37944848767E-01  0.63630007638E-01  0.51100000000E-03 0.  1.
</event>
<event>
 8    1  0.2091070E+004  0.1043930E+01  0.7957747E-01            NaN
         13   -1    0    0    0    0  0.00000000000E+00  0.00000000000E+00  0.74505805969E-08  0.10566000000E+00  0.10566000000E+00 0.  1.
     999900   -1    0    0    0    0 -0.00000000000E+00 -0.00000000000E+00 -0.74505805969E-08  0.93827000000E+00  0.93827000000E+00 0. -1.
     999902    2    1    2    0    0  0.11296467049E-01  0.10727313501E-02  0.73733478140E-02  0.10303975509E+01  0.10303086847E+01 0.  0.
     999903    2    3    3    0    0  0.91516401483E-02  0.11984593720E+00  0.58637970664E-01  0.14093718852E+00  0.44475592452E-01 0.  0.
         14    1    1    2    0    0 -0.11296467049E-01 -0.10727313501E-02 -0.73733478140E-02  0.13532449089E-01  0.00000000000E+00 0. -1.
     999901    1    3    3    0    0  0.21448269011E-02 -0.11877320585E+00 -0.51264622850E-01  0.88946036239E+00  0.88000000000E+00 0.  1.
        -11    1    4    4    0    0  0.23864035100E-01  0.37367400023E-01  0.18684866101E-01  0.48116526245E-01  0.51100000000E-03 0.  1.
         11    1    4    4    0    0 -0.14712394952E-01  0.82478537176E-01  0.39953104563E-01  0.92820662274E-01  0.51100000000E-03 0. -1.
</event>
<event>
 8    1  0.2091070E+004  0.1043930E+01  0.7957747E-01            NaN
         13   -1    0    0    0    0  0.00000000000E+00  0.00000000000E+00  0.74505805969E-08  0.10566000000E+00  0.10566000000E+00 0. -1.
     999900   -1    0    0    0    0 -0.00000000000E+00 -0.00000000000E+00 -0.74505805969E-08  0.93827000000E+00  0.93827000000E+00 0.  1.
     999902    2    1    2    0    0  0.50621642639E-02 -0.63723945117E-02  0.11128327647E-01  0.10301433182E+01  0.10300510587E+01 0.  0.
     999903    2    3    3    0    0 -0.20317971613E-01  0.12899679090E+00 -0.15250604797E-01  0.13904017280E+00  0.45239326639E-01 0.  0.
         14    1    1    2    0    0 -0.50621642639E-02  0.63723945117E-02 -0.11128327647E-01  0.13786681801E-01  0.00000000000E+00 0.  1.
     999901    1    3    3    0    0  0.25380135877E-01 -0.13536918541E+00  0.26378932444E-01  0.89110314539E+00  0.88000000000E+00 0. -1.
        -11    1    4    4    0    0 -0.57332816183E-03  0.38212540982E-01 -0.24925685243E-01  0.45629791796E-01  0.51100000000E-03 0.  1.
         11    1    4    4    0    0 -0.19744643451E-01  0.90784249915E-01  0.96750804466E-02  0.93410381009E-01  0.51100000000E-03 0. -1.
</event>
<event>
 8    1  0.2091070E+004  0.1043930E+01  0.7957747E-01            NaN
         13   -1    0    0    0    0  0.00000000000E+00  0.00000000000E+00  0.74505805969E-08  0.10566000000E+00  0.10566000000E+00 0. -1.
     999900   -1    0    0    0    0 -0.00000000000E+00 -0.00000000000E+00 -0.74505805969E-08  0.93827000000E+00  0.93827000000E+00 0.  1.
     999902    2    1    2    0    0  0.69507361504E-02 -0.26534837876E-02 -0.12030520994E-01  0.10297847837E+01  0.10296876291E+01 0.  0.
     999903    2    3    3    0    0  0.50184067908E-01 -0.11885512468E+00 -0.36171255184E-01  0.14076582024E+00  0.43147133283E-01 0.  0.
         14    1    1    2    0    0 -0.69507361504E-02  0.26534837876E-02  0.12030520994E-01  0.14145216316E-01  0.00000000000E+00 0. -1.
     999901    1    3    3    0    0 -0.43233331757E-01  0.11620164089E+00  0.24140734190E-01  0.88901896345E+00  0.88000000000E+00 0. -1.
        -11    1    4    4    0    0  0.14789075696E-02 -0.24992369906E-01 -0.23358104435E-01  0.34244238711E-01  0.51100000000E-03 0. -1.
         11    1    4    4    0    0  0.48705160338E-01 -0.93862754776E-01 -0.12813150749E-01  0.10652158153E+00  0.51100000000E-03 0.  1.
</event>
<event>
 8    1  0.2091070E+004  0.1043930E+01  0.7957747E-01            NaN
         13   -1    0    0    0    0  0.00000000000E+00  0.00000000000E+00  0.74505805969E-08  0.10566000000E+00  0.10566000000E+00 0.  1.
     999900   -1    0    0    0    0 -0.00000000000E+00 -0.00000000000E+00 -0.74505805969E-08  0.93827000000E+00  0.93827000000E+00 0. -1.
     999902    2    1    2    0    0  0.14493779070E-01 -0.13129737499E-02  0.12342562582E-02  0.10293246270E+01  0.10292210019E+01 0.  0.
     999903    2    3    3    0    0 -0.28808043103E-01 -0.97091810397E-01 -0.83572242639E-01  0.13902087232E+00  0.45670123792E-01 0.  0.
         14    1    1    2    0    0 -0.14493779070E-01  0.13129737499E-02 -0.12342562582E-02  0.14605372994E-01  0.00000000000E+00 0.  1.
     999901    1    3    3    0    0  0.43301822173E-01  0.95778836647E-01  0.84806498897E-01  0.89030375469E+00  0.88000000000E+00 0.  1.
        -11    1    4    4    0    0 -0.20451488998E-01 -0.38046370194E-01 -0.10046950958E-01  0.44350783891E-01  0.51100000000E-03 0.  1.
         11    1    4    4    0    0 -0.83565541049E-02 -0.59045440203E-01 -0.73525291681E-01  0.94670088429E-01  0.51100000000E-03 0. -1.
</event>
<event>
 8    1  0.2257097E+004  0.1043930E+01  0.7957747E-01            NaN
         13   -1    0    0    0    0  0.00000000000E+00  0.00000000000E+00  0.74505805969E-08  0.10566000000E+00  0.10566000000E+00 0.  1.
     999900   -1    0    0    0    0 -0.00000000000E+00 -0.00000000000E+00 -0.74505805969E-08  0.93827000000E+00  0.93827000000E+00 0.  1.
     999902    2    1    2    0    0 -0.53464742737E-04  0.14708868026E-02 -0.13811682722E-01  0.10300401135E+01  0.10299464581E+01 0.  0.
     999903    2    3    3    0    0 -0.97243463618E-01 -0.93673679833E-01 -0.13264492777E-03  0.13948663366E+00  0.35006483177E-01 0.  0.
         14    1    1    2    0    0  0.53464742737E-04 -0.14708868026E-02  0.13811682722E-01  0.13889886468E-01  0.00000000000E+00 0.  1.
     999901    1    3    3    0    0  0.97189998875E-01  0.95144566636E-01 -0.13679037795E-01  0.89055347987E+00  0.88000000000E+00 0.  1.
        -11    1    4    4    0    0 -0.75113270185E-01 -0.49898605886E-01 -0.41100558350E-02  0.90271966342E-01  0.51100000000E-03 0.  1.
         11    1    4    4    0    0 -0.22130193433E-01 -0.43775073947E-01  0.39774109073E-02  0.49214667316E-01  0.51100000000E-03 0. -1.
</event>
<event>
 8    1  0.2091070E+004  0.1043930E+01  0.7957747E-01            NaN
         13   -1    0    0    0    0  0.00000000000E+00  0.00000000000E+00  0.74505805969E-08  0.10566000000E+00  0.10566000000E+00 0.  1.
     999900   -1    0    0    0    0 -0.00000000000E+00 -0.00000000000E+00 -0.74505805969E-08  0.93827000000E+00  0.93827000000E+00 0. -1.
     999902    2    1    2    0    0 -0.13229222889E-01 -0.17898654533E-02  0.11142845627E-02  0.10305338219E+01  0.10304467481E+01 0.  0.
     999903    2    3    3    0    0 -0.12201308664E-01 -0.50723167568E-01 -0.12223746192E+00  0.14058372332E+00  0.45826569858E-01 0.  0.
         14    1    1    2    0    0  0.13229222889E-01  0.17898654533E-02 -0.11142845627E-02  0.13396178062E-01  0.00000000000E+00 0. -1.
     999901    1    3    3    0    0 -0.10279142252E-02  0.48933302115E-01  0.12335174648E+00  0.88995009861E+00  0.88000000000E+00 0.  1.
        -11    1    4    4    0    0 -0.80707092108E-02  0.73880022519E-02 -0.23759489533E-01  0.26162824548E-01  0.51100000000E-03 0. -1.
         11    1    4    4    0    0 -0.41305994532E-02 -0.58111169820E-01 -0.98477972389E-01  0.11442089878E+00  0.51100000000E-03 0.  1.
</event>
<event>
 8    1  0.2091070E+004  0.1043930E+01  0.7957747E-01            NaN
         13   -1    0    0    0    0  0.00000000000E+00  0.00000000000E+00  0.74505805969E-08  0.10566000000E+00  0.10566000000E+00 0. -1.
     999900   -1    0    0    0    0 -0.00000000000E+00 -0.00000000000E+00 -0.74505805969E-08  0.93827000000E+00  0.93827000000E+00 0.  1.
     999902    2    1    2    0    0  0.31601094524E-02  0.13173716031E-01  0.32416351005E-02  0.10300001298E+01  0.10299059307E+01 0.  0.
     999903    2    3    3    0    0  0.72950642109E-01  0.22336952550E-01  0.10696258773E+00  0.14111728073E+00  0.51501030201E-01 0.  0.
         14    1    1    2    0    0 -0.31601094524E-02 -0.13173716031E-01 -0.32416351005E-02  0.13929870206E-01  0.00000000000E+00 0. -1.
     999901    1    3    3    0    0 -0.69790532657E-01 -0.91632365189E-02 -0.10372095263E+00  0.88888284907E+00  0.88000000000E+00 0. -1.
        -11    1    4    4    0    0  0.46628908263E-01  0.37985189330E-01  0.81493616019E-01  0.10128474844E+00  0.51100000000E-03 0. -1.
         11    1    4    4    0    0  0.26321733846E-01 -0.15648236779E-01  0.25468971713E-01  0.39832532284E-01  0.51100000000E-03 0.  1.
</event>
<event>
 8    1  0.2091070E+004  0.1043930E+01  0.7957747E-01            NaN
         13   -1    0    0    0    0  0.00000000000E+00  0.00000000000E+00  0.74505805969E-08  0.10566000000E+00  0.10566000000E+00 0.  1.
     999900   -1    0    0    0    0 -0.00000000000E+00 -0.00000000000E+00 -0.74505805969E-08  0.93827000000E+00  0.93827000000E+00 0.  1.
     999902    2    1    2    0    0 -0.12229783807E-01  0.20107185244E-02 -0.47977409077E-03  0.10315267430E+01  0.10314521708E+01 0.  0.
     999903    2    3    3    0    0  0.80123619003E-01 -0.66632841179E-01  0.82081858369E-01  0.14020328182E+00  0.45385007595E-01 0.  0.
         14    1    1    2    0    0  0.12229783807E-01 -0.20107185244E-02  0.47977409077E-03  0.12403256997E-01  0.00000000000E+00 0.  1.
     999901    1    3    3    0    0 -0.92353402810E-01  0.68643559703E-01 -0.82561632460E-01  0.89132346118E+00  0.88000000000E+00 0.  1.
        -11    1    4    4    0    0  0.69639474710E-01 -0.69113677867E-01  0.84104856801E-01  0.12922942763E+00  0.51100000000E-03 0.  1.
         11    1    4    4    0    0  0.10484144293E-01  0.24808366877E-02 -0.20229984322E-02  0.10973854194E-01  0.51100000000E-03 0. -1.
</event>
<event>
 8    1  0.2091070E+004  0.1043930E+01  0.7957747E-01            NaN
         13   -1    0    0    0    0  0.00000000000E+00  0.00000000000E+00  0.74505805969E-08  0.10566000000E+00  0.10566000000E+00 0. -1.
     999900   -1    0    0    0    0 -0.00000000000E+00 -0.00000000000E+00 -0.74505805969E-08  0.93827000000E+00  0.93827000000E+00 0.  1.
     999902    2    1    2    0    0 -0.11703022967E-01 -0.63419408983E-02 -0.16352105132E-02  0.10305190017E+01  0.10304317338E+01 0.  0.
     999903    2    3    3    0    0 -0.21015382804E-01 -0.69365478630E-01  0.11223265186E+00  0.14089853410E+00  0.44755031329E-01 0.  0.
         14    1    1    2    0    0  0.11703022967E-01  0.63419408983E-02  0.16352105132E-02  0.13410998261E-01  0.00000000000E+00 0. -1.
     999901    1    3    3    0    0  0.93123598367E-02  0.63023537731E-01 -0.11386786237E+00  0.88962046764E+00  0.88000000000E+00 0.  1.
        -11    1    4    4    0    0 -0.29651505496E-01 -0.24978703707E-01  0.40238137698E-01  0.55879479807E-01  0.51100000000E-03 0.  1.
         11    1    4    4    0    0  0.86361226922E-02 -0.44386774923E-01  0.71994514162E-01  0.85019054297E-01  0.51100000000E-03 0. -1.
</event>
<event>
 8    1  0.2091070E+004  0.1043930E+01  0.7957747E-01            NaN
         13   -1    0    0    0    0  0.00000000000E+00  0.00000000000E+00  0.74505805969E-08  0.10566000000E+00  0.10566000000E+00 0. -1.
     999900   -1    0    0    0    0 -0.00000000000E+00 -0.00000000000E+00 -0.74505805969E-08  0.93827000000E+00  0.93827000000E+00 0.  1.
     999902    2    1    2    0    0  0.43884944951E-02 -0.55455261752E-02 -0.11885893727E-01  0.10300993740E+01  0.10300065214E+01 0.  0.
     999903    2    3    3    0    0  0.86672831188E-01 -0.19186893104E-03 -0.10318190267E+00  0.14154192798E+00  0.43305840939E-01 0.  0.
         14    1    1    2    0    0 -0.43884944951E-02  0.55455261752E-02  0.11885893727E-01  0.13830625951E-01  0.00000000000E+00 0. -1.
     999901    1    3    3    0    0 -0.82284336693E-01 -0.53536572442E-02  0.91296008939E-01  0.88855744607E+00  0.88000000000E+00 0. -1.
        -11    1    4    4    0    0  0.10269544545E-01  0.33937108339E-02  0.24723453304E-02  0.11106503988E-01  0.51100000000E-03 0.  1.
         11    1    4    4    0    0  0.76403286643E-01 -0.35855797650E-02 -0.10565424800E+00  0.13043542400E+00  0.51100000000E-03 0. -1.
</event>
<event>
 8    1  0.2091070E+004  0.1043930E+01  0.7957747E-01            NaN
         13   -1    0    0    0    0  0.00000000000E+00  0.00000000000E+00  0.74505805969E-08  0.10566000000E+00  0.10566000000E+00 0.  1.
     999900   -1    0    0    0    0 -0.00000000000E+00 -0.00000000000E+00 -0.74505805969E-08  0.93827000000E+00  0.93827000000E+00 0. -1.
     999902    2    1    2    0    0  0.13400997724E-01 -0.37839727078E-02  0.11051358457E-02  0.10299612307E+01  0.10298665012E+01 0.  0.
     999903    2    3    3    0    0 -0.16882414147E-01  0.14121895401E-01  0.13054810962E+00  0.13979653328E+00  0.44897861350E-01 0.  0.
         14    1    1    2    0    0 -0.13400997724E-01  0.37839727078E-02 -0.11051358457E-02  0.13968769262E-01  0.00000000000E+00 0.  1.
     999901    1    3    3    0    0  0.30283411871E-01 -0.17905868109E-01 -0.12944297377E+00  0.89016469746E+00  0.88000000000E+00 0. -1.
        -11    1    4    4    0    0  0.13452379823E-01 -0.39431550169E-03  0.61949963854E-01  0.63397012155E-01  0.51100000000E-03 0.  1.
         11    1    4    4    0    0 -0.30334793970E-01  0.14516210903E-01  0.68598145765E-01  0.76399521122E-01  0.51100000000E-03 0. -1.
</event>
<event>
 8    1  0.2091070E+004  0.1043930E+01  0.7957747E-01            NaN
         13   -1    0    0    0    0  0.00000000000E+00  0.00000000000E+00  0.74505805969E-08  0.10566000000E+00  0.10566000000E+00 0. -1.
     999900   -1    0    0    0    0 -0.00000000000E+00 -0.00000000000E+00 -0.74505805969E-08  0.93827000000E+00  0.93827000000E+00 0.  1.
     999902    2    1    2    0    0 -0.80475887500E-02 -0.10689863851E-01  0.23219175254E-02  0.10303495665E+01  0.10302600647E+01 0.  0.
     999903    2    3    3    0    0 -0.99189132574E-01 -0.87594775858E-01  0.25720585670E-01  0.14199792203E+00  0.44615384751E-01 0.  0.
         14    1    1    2    0    0  0.80475887500E-02  0.10689863851E-01 -0.23219175254E-02  0.13580433529E-01  0.00000000000E+00 0. -1.
     999901    1    3    3    0    0  0.91141543824E-01  0.76904912007E-01 -0.23398668144E-01  0.88835164444E+00  0.88000000000E+00 0. -1.
        -11    1    4    4    0    0 -0.81022586315E-01 -0.59642414130E-01  0.36395744533E-01  0.10698966491E+00  0.51100000000E-03 0. -1.
         11    1    4    4    0    0 -0.18166546259E-01 -0.27952361728E-01 -0.10675158863E-01  0.35008257125E-01  0.51100000000E-03 0.  1.
</event>
<event>
 8    1  0.2091070E+004  0.1043930E+01  0.7957747E-01            NaN
         13   -1    0    0    0    0  0.00000000000E+00  0.00000000000E+00  0.74505805969E-08  0.10566000000E+00  0.10566000000E+00 0. -1.
     999900   -1    0    0    0    0 -0.00000000000E+00 -0.00000000000E+00 -0.74505805969E-08  0.93827000000E+00  0.93827000000E+00 0. -1.
     999902    2    1    2    0    0 -0.70595397018E-02  0.49556506037E-02  0.10467775012E-01  0.10303664500E+01  0.10302771722E+01 0.  0.
     999903    2    3    3    0    0 -0.98540163859E-01 -0.86390446581E-01  0.21684963428E-01  0.14085049213E+00  0.46852431533E-01 0.  0.
         14    1    1    2    0    0  0.70595397018E-02 -0.49556506037E-02 -0.10467775012E-01  0.13563549956E-01  0.00000000000E+00 0. -1.
     999901    1    3    3    0    0  0.91480624158E-01  0.91346097185E-01 -0.11217188416E-01  0.88951595791E+00  0.88000000000E+00 0. -1.
        -11    1    4    4    0    0 -0.39942397398E-01 -0.65924038785E-01  0.10885602141E-01  0.77846846145E-01  0.51100000000E-03 0.  1.
         11    1    4    4    0    0 -0.58597766461E-01 -0.20466407796E-01  0.10799361287E-01  0.63003645986E-01  0.51100000000E-03 0. -1.
</event>
<event>
 8    1  0.2091070E+004  0.1043930E+01  0.7957747E-01            NaN
         13   -1    0    0    0    0  0.00000000000E+00  0.00000000000E+00  0.74505805969E-08  0.10566000000E+00  0.10566000000E+00 0. -1.
     999900   -1    0    0    0    0 -0.00000000000E+00 -0.00000000000E+00 -0.74505805969E-08  0.93827000000E+00  0.93827000000E+00 0. -1.
     999902    2    1    2    0    0  0.63866088378E-02  0.22785168976E-02  0.11983487144E-01  0.10301610358E+01  0.10300690148E+01 0.  0.
     999903    2    3    3    0    0 -0.11655211800E+00  0.63529825040E-01  0.44143482354E-02  0.13947425291E+00  0.42581050659E-01 0.  0.
         14    1    1    2    0    0 -0.63866088378E-02 -0.22785168976E-02 -0.11983487144E-01  0.13768964225E-01  0.00000000000E+00 0.  1.
     999901    1    3    3    0    0  0.12293872684E+00 -0.61251308143E-01  0.75691389081E-02  0.89068678286E+00  0.88000000000E+00 0.  1.
        -11    1    4    4    0    0 -0.48529794066E-01  0.38272938103E-02  0.52242925843E-02  0.48962673987E-01  0.51100000000E-03 0.  1.
         11    1    4    4    0    0 -0.68022323933E-01  0.59702531230E-01 -0.80994434890E-03  0.90511578924E-01  0.51100000000E-03 0. -1.
</event>
<event>
 8    1  0.2091070E+004  0.1043930E+01  0.7957747E-01            NaN
         13   -1    0    0    0    0  0.00000000000E+00  0.00000000000E+00  0.74505805969E-08  0.10566000000E+00  0.10566000000E+00 0. -1.
     999900   -1    0    0    0    0 -0.00000000000E+00 -0.00000000000E+00 -0.74505805969E-08  0.93827000000E+00  0.93827000000E+00 0. -1.
     999902    2    1    2    0    0 -0.22241353302E-02 -0.30801079029E-02  0.12969742098E-01  0.10304152653E+01  0.10303266332E+01 0.  0.
     999903    2    3    3    0    0 -0.84679925502E-01 -0.70723790254E-01  0.76566177626E-01  0.14169757580E+00  0.45202645292E-01 0.  0.
         14    1    1    2    0    0  0.22241353302E-02  0.30801079029E-02 -0.12969742098E-01  0.13514734653E-01  0.00000000000E+00 0.  1.
     999901    1    3    3    0    0  0.82455790172E-01  0.67643682351E-01 -0.63596435528E-01  0.88871768954E+00  0.88000000000E+00 0. -1.
        -11    1    4    4    0    0 -0.39023231064E-01 -0.51868732159E-01  0.63028560088E-01  0.90476728755E-01  0.51100000000E-03 0. -1.
         11    1    4    4    0    0 -0.45656694438E-01 -0.18855058095E-01  0.13537617539E-01  0.51220847049E-01  0.51100000000E-03 0.  1.
</event>
<event>
 8    1  0.2091070E+004  0.1043930E+01  0.7957747E-01            NaN
         13   -1    0    0    0    0  0.00000000000E+00  0.00000000000E+00  0.74505805969E-08  0.10566000000E+00  0.10566000000E+00 0.  1.
     999900   -1    0    0    0    0 -0.00000000000E+00 -0.00000000000E+00 -0.74505805969E-08  0.93827000000E+00  0.93827000000E+00 0.  1.
     999902    2    1    2    0    0 -0.80268769716E-02 -0.69171597686E-02 -0.63964098319E-02  0.10315529280E+01  0.10314786722E+01 0.  0.
     999903    2    3    3    0    0  0.43237771788E-01 -0.41218061936E-01 -0.12058094462E+00  0.14203467404E+00  0.45449432175E-01 0.  0.
         14    1    1    2    0    0  0.80268769716E-02  0.69171597686E-02  0.63964098319E-02  0.12377072025E-01  0.00000000000E+00 0. -1.
     999901    1    3    3    0    0 -0.51264648760E-01  0.34300902167E-01  0.11418453479E+00  0.88951825394E+00  0.88000000000E+00 0. -1.
        -11    1    4    4    0    0  0.52040846659E-01 -0.40879835219E-01 -0.10811030796E+00  0.12675768402E+00  0.51100000000E-03 0.  1.
         11    1    4    4    0    0 -0.88030748711E-02 -0.33822671690E-03 -0.12470636655E-01  0.15276990021E-01  0.51100000000E-03 0. -1.
</event>
<event>
 8    1  0.2091070E+004  0.1043930E+01  0.7957747E-01            NaN
         13   -1    0    0    0    0  0.00000000000E+00  0.00000000000E+00  0.74505805969E-08  0.10566000000E+00  0.10566000000E+00 0.  1.
     999900   -1    0    0    0    0 -0.00000000000E+00 -0.00000000000E+00 -0.74505805969E-08  0.93827000000E+00  0.93827000000E+00 0.  1.
     999902    2    1    2    0    0 -0.14521659470E-01  0.11759096504E-02 -0.10809492395E-01  0.10257887078E+01  0.10256282789E+01 0.  0.
     999903    2    3    3    0    0 -0.31285669535E-01 -0.63532498345E-01 -0.10790675608E+00  0.13792830845E+00  0.48633103945E-01 0.  0.
         14    1    1    2    0    0  0.14521659470E-01 -0.11759096504E-02  0.10809492395E-01  0.18141292211E-01  0.00000000000E+00 0.  1.
     999901    1    3    3    0    0  0.16764010066E-01  0.64708407996E-01  0.97097263687E-01  0.88786039934E+00  0.88000000000E+00 0. -1.
        -11    1    4    4    0    0 -0.43647431173E-01 -0.56328941862E-01 -0.85057280372E-01  0.11096418343E+00  0.51100000000E-03 0.  1.
         11    1    4    4    0    0  0.12361761638E-01 -0.72035564838E-02 -0.22849475709E-01  0.26964125018E-01  0.51100000000E-03 0. -1.
</event>
<event>
 8    1  0.2091070E+004  0.1043930E+01  0.7957747E-01            NaN
         13   -1    0    0    0    0  0.00000000000E+00  0.00000000000E+00  0.74505805969E-08  0.10566000000E+00  0.10566000000E+00 0. -1.
     999900   -1    0    0    0    0 -0.00000000000E+00 -0.00000000000E+00 -0.74505805969E-08  0.93827000000E+00  0.93827000000E+00 0.  1.
     999902    2    1    2    0    0  0.10299557419E-01 -0.23540384738E-02  0.87717003739E-02  0.10301980989E+01  0.10301065760E+01 0.  0.
     999903    2    3    3    0    0 -0.22367712790E-01 -0.62831896543E-01 -0.11403251551E+00  0.13901596416E+00  0.43288126525E-01 0.  0.
         14    1    1    2    0    0 -0.10299557419E-01  0.23540384738E-02 -0.87717003739E-02  0.13731901092E-01  0.00000000000E+00 0.  1.
     999901    1    3    3    0    0  0.32667270209E-01  0.60477858069E-01  0.12280421589E+00  0.89118213475E+00  0.88000000000E+00 0. -1.
        -11    1    4    4    0    0  0.92876512761E-02 -0.12576284200E-01 -0.46595585513E-01  0.49151125123E-01  0.51100000000E-03 0.  1.
         11    1    4    4    0    0 -0.31655364066E-01 -0.50255612343E-01 -0.67436929998E-01  0.89864839034E-01  0.51100000000E-03 0. -1.
</event>
<event>
 8    1  0.2091070E+004  0.1043930E+01  0.7957747E-01            NaN
         13   -1    0    0    0    0  0.00000000000E+00  0.00000000000E+00  0.74505805969E-08  0.10566000000E+00  0.10566000000E+00 0. -1.
     999900   -1    0    0    0    0 -0.00000000000E+00 -0.00000000000E+00 -0.74505805969E-08  0.93827000000E+00  0.93827000000E+00 0.  1.
     999902    2    1    2    0    0  0.92447263795E-02  0.86912467878E-03  0.11431319501E-01  0.10292026306E+01  0.10290972546E+01 0.  0.
     999903    2    3    3    0    0  0.16146041597E-01 -0.78749055335E-01  0.10564686414E+00  0.14057264485E+00  0.46230944212E-01 0.  0.
         14    1    1    2    0    0 -0.92447263795E-02 -0.86912467878E-03 -0.11431319501E-01  0.14727369387E-01  0.00000000000E+00 0.  1.
     999901    1    3    3    0    0 -0.69013152174E-02  0.79618180014E-01 -0.94215544639E-01  0.88862998576E+00  0.88000000000E+00 0.  1.
        -11    1    4    4    0    0  0.26006936284E-01 -0.70196742257E-01  0.69543720052E-01  0.10217892874E+00  0.51100000000E-03 0.  1.
         11    1    4    4    0    0 -0.98608946871E-02 -0.85523130782E-02  0.36103144088E-01  0.38393716114E-01  0.51100000000E-03 0. -1.
</event>
<event>
 8    1  0.2091070E+004  0.1043930E+01  0.7957747E-01            NaN
         13   -1    0    0    0    0  0.00000000000E+00  0.00000000000E+00  0.74505805969E-08  0.10566000000E+00  0.10566000000E+00 0.  1.
     999900   -1    0    0    0    0 -0.00000000000E+00 -0.00000000000E+00 -0.74505805969E-08  0.93827000000E+00  0.93827000000E+00 0. -1.
     999902    2    1    2    0    0 -0.12136705239E-01 -0.53256481785E-02 -0.19295487998E-02  0.10305365202E+01  0.10304494816E+01 0.  0.
     999903    2    3    3    0    0  0.10813231674E+00  0.74419258256E-01 -0.88341999266E-02  0.13875652381E+00  0.44096551901E-01 0.  0.
         14    1    1    2    0    0  0.12136705239E-01  0.53256481785E-02  0.19295487998E-02  0.13393479800E-01  0.00000000000E+00 0. -1.
     999901    1    3    3    0    0 -0.12026902198E+00 -0.79744906435E-01  0.69046511268E-02  0.89177999639E+00  0.88000000000E+00 0.  1.
        -11    1    4    4    0    0  0.97691086747E-01  0.54680588829E-01  0.57146546302E-02  0.11210010537E+00  0.51100000000E-03 0.  1.
         11    1    4    4    0    0  0.10441229991E-01  0.19738669428E-01 -0.14548854557E-01  0.26656418447E-01  0.51100000000E-03 0. -1.
</event>
<event>
 8    1  0.2091070E+004  0.1043930E+01  0.7957747E-01            NaN
         13   -1    0    0    0    0  0.00000000000E+00  0.00000000000E+00  0.74505805969E-08  0.10566000000E+00  0.10566000000E+00 0. -1.
     999900   -1    0    0    0    0 -0.00000000000E+00 -0.00000000000E+00 -0.74505805969E-08  0.93827000000E+00  0.93827000000E+00 0.  1.
     999902    2    1    2    0    0 -0.14199670133E-01 -0.13974019775E-02  0.38769797185E-02  0.10291443875E+01  0.10290381704E+01 0.  0.
     999903    2    3    3    0    0  0.55661860092E-01  0.11070858431E+00 -0.40718937868E-01  0.13816897742E+00  0.45585097484E-01 0.  0.
         14    1    1    2    0    0  0.14199670133E-01  0.13974019775E-02 -0.38769797185E-02  0.14785612463E-01  0.00000000000E+00 0.  1.
     999901    1    3    3    0    0 -0.69861530225E-01 -0.11210598628E+00  0.44595917586E-01  0.89097541012E+00  0.88000000000E+00 0. -1.
        -11    1    4    4    0    0  0.72298978497E-02  0.14492411119E-01 -0.24297637372E-01  0.29205097258E-01  0.51100000000E-03 0. -1.
         11    1    4    4    0    0  0.48431962243E-01  0.96216173187E-01 -0.16421300496E-01  0.10896388016E+00  0.51100000000E-03 0.  1.
</event>
<event>
 8    1  0.2091070E+004  0.1043930E+01  0.7957747E-01            NaN
         13   -1    0    0    0    0  0.00000000000E+00  0.00000000000E+00  0.74505805969E-08  0.10566000000E+00  0.10566000000E+00 0.  1.
     999900   -1    0    0    0    0 -0.00000000000E+00 -0.00000000000E+00 -0.74505805969E-08  0.93827000000E+00  0.93827000000E+00 0.  1.
     999902    2    1    2    0    0 -0.66873814886E-02 -0.12279239393E-01 -0.26479187198E-02  0.10296993196E+01  0.10296009793E+01 0.  0.
     999903    2    3    3    0    0  0.45001075597E-01 -0.42935142858E-01  0.11624220019E+00  0.13967328549E+00  0.46128670891E-01 0.  0.
         14    1    1    2    0    0  0.66873814886E-02  0.12279239393E-01  0.26479187198E-02  0.14230680405E-01  0.00000000000E+00 0.  1.
     999901    1    3    3    0    0 -0.51688457086E-01  0.30655903465E-01 -0.11889011890E+00  0.89002603411E+00  0.88000000000E+00 0.  1.
        -11    1    4    4    0    0  0.23466741289E-01 -0.44200530959E-01  0.53198123275E-01  0.73038868589E-01  0.51100000000E-03 0. -1.
         11    1    4    4    0    0  0.21534334309E-01  0.12653881002E-02  0.63044076910E-01  0.66634416900E-01  0.51100000000E-03 0.  1.
</event>
<event>
 8    1  0.2091070E+004  0.1043930E+01  0.7957747E-01            NaN
         13   -1    0    0    0    0  0.00000000000E+00  0.00000000000E+00  0.74505805969E-08  0.10566000000E+00  0.10566000000E+00 0. -1.
     999900   -1    0    0    0    0 -0.00000000000E+00 -0.00000000000E+00 -0.74505805969E-08  0.93827000000E+00  0.93827000000E+00 0. -1.
     999902    2    1    2    0    0 -0.14048838136E-01 -0.29237715589E-03  0.24317045707E-02  0.10296692663E+01  0.10295705073E+01 0.  0.
     999903    2    3    3    0    0 -0.74102730836E-01 -0.22955121784E-01 -0.10803685560E+00  0.14044298872E+00  0.45101203737E-01 0.  0.
         14    1    1    2    0    0  0.14048838136E-01  0.29237715589E-03 -0.24317045707E-02  0.14260733659E-01  0.00000000000E+00 0. -1.
     999901    1    3    3    0    0  0.60053892700E-01  0.22662744628E-01  0.11046856018E+00  0.88922627762E+00  0.88000000000E+00 0.  1.
        -11    1    4    4    0    0 -0.58575126877E-01 -0.16833177593E-02 -0.93527816430E-01  0.11037025240E+00  0.51100000000E-03 0.  1.
         11    1    4    4    0    0 -0.15527603958E-01 -0.21271804024E-01 -0.14509039175E-01  0.30072736322E-01  0.51100000000E-03 0. -1.
</event>
<event>
 8    1  0.2091070E+004  0.1043930E+01  0.7957747E-01            NaN
         13   -1    0    0    0    0  0.00000000000E+00  0.00000000000E+00  0.74505805969E-08  0.10566000000E+00  0.10566000000E+00 0. -1.
     999900   -1    0    0    0    0 -0.00000000000E+00 -0.00000000000E+00 -0.74505805969E-08  0.93827000000E+00  0.93827000000E+00 0.  1.
     999902    2    1    2    0    0 -0.39166108733E-02  0.99313645915E-02  0.76759391728E-02  0.10307811641E+01  0.10306972962E+01 0.  0.
     999903    2    3    3    0    0  0.29476128302E-01  0.12608463587E+00  0.42385376900E-01  0.14184280711E+00  0.39454837610E-01 0.  0.
         14    1    1    2    0    0  0.39166108733E-02 -0.99313645915E-02 -0.76759391728E-02  0.13148835902E-01  0.00000000000E+00 0.  1.
     999901    1    3    3    0    0 -0.33392739176E-01 -0.11615327128E+00 -0.34709437727E-01  0.88893835699E+00  0.88000000000E+00 0.  1.
        -11    1    4    4    0    0  0.14592344300E-01  0.17120009709E-01  0.18900257581E-01  0.29385576432E-01  0.51100000000E-03 0.  1.
         11    1    4    4    0    0  0.14883784002E-01  0.10896462616E+00  0.23485119320E-01  0.11245723068E+00  0.51100000000E-03 0. -1.
</event>
<event>
 8    1  0.2091070E+004  0.1043930E+01  0.7957747E-01            NaN
         13   -1    0    0    0    0  0.00000000000E+00  0.00000000000E+00  0.74505805969E-08  0.10566000000E+00  0.10566000000E+00 0. -1.
     999900   -1    0    0    0    0 -0.00000000000E+00 -0.00000000000E+00 -0.74505805969E-08  0.93827000000E+00  0.93827000000E+00 0.  1.
     999902    2    1    2    0    0 -0.95779597573E-02  0.98711690482E-02  0.31925244007E-03  0.10301721218E+01  0.10300802499E+01 0.  0.
     999903    2    3    3    0    0 -0.27781741161E-01 -0.12659371641E+00  0.29240593032E-01  0.13899846497E+00  0.40838300746E-01 0.  0.
         14    1    1    2    0    0  0.95779597573E-02 -0.98711690482E-02 -0.31925244007E-03  0.13757878238E-01  0.00000000000E+00 0. -1.
     999901    1    3    3    0    0  0.18203781403E-01  0.13646488545E+00 -0.28921340592E-01  0.89117365679E+00  0.88000000000E+00 0.  1.
        -11    1    4    4    0    0 -0.80053396157E-02 -0.41285123287E-01 -0.96956077828E-02  0.43160315088E-01  0.51100000000E-03 0.  1.
         11    1    4    4    0    0 -0.19776401545E-01 -0.85308593118E-01  0.38936200815E-01  0.95838149882E-01  0.51100000000E-03 0. -1.
</event>
<event>
 8    1  0.2091070E+004  0.1043930E+01  0.7957747E-01            NaN
         13   -1    0    0    0    0  0.00000000000E+00  0.00000000000E+00  0.74505805969E-08  0.10566000000E+00  0.10566000000E+00 0. -1.
     999900   -1    0    0    0    0 -0.00000000000E+00 -0.00000000000E+00 -0.74505805969E-08  0.93827000000E+00  0.93827000000E+00 0.  1.
     999902    2    1    2    0    0  0.10791960803E-01 -0.26243102119E-02  0.27883524702E-02  0.10324788720E+01  0.10324153684E+01 0.  0.
     999903    2    3    3    0    0  0.38736658294E-01  0.11643661955E+00 -0.55702438683E-01  0.14209828838E+00  0.45068246208E-01 0.  0.
         14    1    1    2    0    0 -0.10791960803E-01  0.26243102119E-02 -0.27883524702E-02  0.11451127960E-01  0.00000000000E+00 0. -1.
     999901    1    3    3    0    0 -0.27944697491E-01 -0.11906092976E+00  0.58490791153E-01  0.89038058366E+00  0.88000000000E+00 0. -1.
        -11    1    4    4    0    0  0.16697009145E-01  0.40727949937E-01 -0.44251580055E-01  0.62418102172E-01  0.51100000000E-03 0. -1.
         11    1    4    4    0    0  0.22039649149E-01  0.75708669614E-01 -0.11450858628E-01  0.79680186205E-01  0.51100000000E-03 0.  1.
</event>
<event>
 8    1  0.2091070E+004  0.1043930E+01  0.7957747E-01            NaN
         13   -1    0    0    0    0  0.00000000000E+00  0.00000000000E+00  0.74505805969E-08  0.10566000000E+00  0.10566000000E+00 0.  1.
     999900   -1    0    0    0    0 -0.00000000000E+00 -0.00000000000E+00 -0.74505805969E-08  0.93827000000E+00  0.93827000000E+00 0. -1.
     999902    2    1    2    0    0  0.83511676970E-02  0.11183781426E-02  0.98596450413E-02  0.10309605986E+01  0.10308790184E+01 0.  0.
     999903    2    3    3    0    0  0.38793661558E-02 -0.87560637058E-01  0.10197890142E+00  0.14170814733E+00  0.44716753478E-01 0.  0.
         14    1    1    2    0    0 -0.83511676970E-02 -0.11183781426E-02 -0.98596450413E-02  0.12969401371E-01  0.00000000000E+00 0. -1.
     999901    1    3    3    0    0  0.44718015412E-02  0.88679015201E-01 -0.92119256376E-01  0.88925245130E+00  0.88000000000E+00 0.  1.
        -11    1    4    4    0    0  0.20370465692E-01 -0.43400582329E-01  0.33177975012E-01  0.58306136606E-01  0.51100000000E-03 0. -1.
         11    1    4    4    0    0 -0.16491099536E-01 -0.44160054729E-01  0.68800926406E-01  0.83402010725E-01  0.51100000000E-03 0.  1.
</event>
<event>
 8    1  0.2091070E+004  0.1043930E+01  0.7957747E-01            NaN
         13   -1    0    0    0    0  0.00000000000E+00  0.00000000000E+00  0.74505805969E-08  0.10566000000E+00  0.10566000000E+00 0. -1.
     999900   -1    0    0    0    0 -0.00000000000E+00 -0.00000000000E+00 -0.74505805969E-08  0.93827000000E+00  0.93827000000E+00 0. -1.
     999902    2    1    2    0    0  0.72603794240E-02  0.60371257291E-02  0.96950304961E-02  0.10303965742E+01  0.10303076951E+01 0.  0.
     999903    2    3    3    0    0  0.10412186168E+00  0.47245109942E-02  0.84763689280E-01  0.14190393317E+00  0.45696390954E-01 0.  0.
         14    1    1    2    0    0 -0.72603794240E-02 -0.60371257291E-02 -0.96950304961E-02  0.13533425759E-01  0.00000000000E+00 0.  1.
     999901    1    3    3    0    0 -0.96861482253E-01  0.13126147349E-02 -0.75068658784E-01  0.88849264107E+00  0.88000000000E+00 0. -1.
        -11    1    4    4    0    0  0.65224694141E-01  0.59697467735E-03  0.23733890202E-01  0.69413080681E-01  0.51100000000E-03 0. -1.
         11    1    4    4    0    0  0.38897167536E-01  0.41275363169E-02  0.61029799078E-01  0.72490852491E-01  0.51100000000E-03 0.  1.
</event>
<event>
 8    1  0.2091070E+004  0.1043930E+01  0.7957747E-01            NaN
         13   -1    0    0    0    0  0.00000000000E+00  0.00000000000E+00  0.74505805969E-08  0.10566000000E+00  0.10566000000E+00 0. -1.
     999900   -1    0    0    0    0 -0.00000000000E+00 -0.00000000000E+00 -0.74505805969E-08  0.93827000000E+00  0.93827000000E+00 0. -1.
     999902    2    1    2    0    0 -0.10365030414E-01  0.67396808132E-03  0.91982585204E-02  0.10300557055E+01  0.10299622616E+01 0.  0.
     999903    2    3    3    0    0  0.53422455804E-01  0.10953839392E+00  0.52917211206E-01  0.13998174596E+00  0.44068576471E-01 0.  0.
         14    1    1    2    0    0  0.10365030414E-01 -0.67396808132E-03 -0.91982585204E-02  0.13874294514E-01  0.00000000000E+00 0.  1.
     999901    1    3    3    0    0 -0.63787486218E-01 -0.10886442584E+00 -0.43718952685E-01  0.89007395953E+00  0.88000000000E+00 0.  1.
        -11    1    4    4    0    0  0.51861344219E-01  0.57139292437E-01  0.31917469308E-01  0.83507387293E-01  0.51100000000E-03 0.  1.
         11    1    4    4    0    0  0.15611115849E-02  0.52399101482E-01  0.20999741898E-01  0.56474358662E-01  0.51100000000E-03 0. -1.
</event>
<event>
 8    1  0.2091070E+004  0.1043930E+01  0.7957747E-01            NaN
         13   -1    0    0    0    0  0.00000000000E+00  0.00000000000E+00  0.74505805969E-08  0.10566000000E+00  0.10566000000E+00 0. -1.
     999900   -1    0    0    0    0 -0.00000000000E+00 -0.00000000000E+00 -0.74505805969E-08  0.93827000000E+00  0.93827000000E+00 0. -1.
     999902    2    1    2    0    0 -0.11783830309E-01  0.31298314824E-02  0.69825697823E-02  0.10298797052E+01  0.10297838591E+01 0.  0.
     999903    2    3    3    0    0  0.95261352331E-02  0.97606673531E-01 -0.88317827376E-01  0.13945163178E+00  0.45043412444E-01 0.  0.
         14    1    1    2    0    0  0.11783830309E-01 -0.31298314824E-02 -0.69825697823E-02  0.14050294752E-01  0.00000000000E+00 0.  1.
     999901    1    3    3    0    0 -0.21309965542E-01 -0.94476842048E-01  0.95300397158E-01  0.89042807346E+00  0.88000000000E+00 0. -1.
        -11    1    4    4    0    0 -0.66129206435E-02  0.77056336104E-01 -0.46817960750E-01  0.90407921241E-01  0.51100000000E-03 0.  1.
         11    1    4    4    0    0  0.16139055877E-01  0.20550337427E-01 -0.41499866625E-01  0.49043710543E-01  0.51100000000E-03 0. -1.
</event>
<event>
 8    1  0.2091070E+004  0.1043930E+01  0.7957747E-01            NaN
         13   -1    0    0    0    0  0.00000000000E+00  0.00000000000E+00  0.74505805969E-08  0.10566000000E+00  0.10566000000E+00 0.  1.
     999900   -1    0    0    0    0 -0.00000000000E+00 -0.00000000000E+00 -0.74505805969E-08  0.93827000000E+00  0.93827000000E+00 0. -1.
     999902    2    1    2    0    0 -0.96973827124E-02  0.40075227057E-02 -0.99317400352E-02  0.10294821998E+01  0.10293808143E+01 0.  0.
     999903    2    3    3    0    0  0.38375192612E-01  0.10388458710E+00 -0.74734393494E-01  0.14016460505E+00  0.42381884011E-01 0.  0.
         14    1    1    2    0    0  0.96973827124E-02 -0.40075227057E-02  0.99317400352E-02  0.14447800173E-01  0.00000000000E+00 0. -1.
     999901    1    3    3    0    0 -0.48072575324E-01 -0.99877064393E-01  0.64802653459E-01  0.88931759478E+00  0.88000000000E+00 0.  1.
        -11    1    4    4    0    0  0.17942206428E-01  0.49924179855E-01 -0.10983032075E-01  0.54177805606E-01  0.51100000000E-03 0. -1.
         11    1    4    4    0    0  0.20432986184E-01  0.53960407244E-01 -0.63751361419E-01  0.85986799441E-01  0.51100000000E-03 0.  1.
</event>
<event>
 8    1  0.2091070E+004  0.1043930E+01  0.7957747E-01            NaN
         13   -1    0    0    0    0  0.00000000000E+00  0.00000000000E+00  0.74505805969E-08  0.10566000000E+00  0.10566000000E+00 0.  1.
     999900   -1    0    0    0    0 -0.00000000000E+00 -0.00000000000E+00 -0.74505805969E-08  0.93827000000E+00  0.93827000000E+00 0.  1.
     999902    2    1    2    0    0  0.99714642034E-02  0.21276282675E-02  0.87979105767E-02  0.10304629984E+01  0.10303749953E+01 0.  0.
     999903    2    3    3    0    0  0.32055172883E-01 -0.10904926233E+00 -0.67646586542E-01  0.13990600850E+00  0.45588976968E-01 0.  0.
         14    1    1    2    0    0 -0.99714642034E-02 -0.21276282675E-02 -0.87979105767E-02  0.13467001556E-01  0.00000000000E+00 0. -1.
     999901    1    3    3    0    0 -0.22083708680E-01  0.11117689060E+00  0.76444497118E-01  0.89055698994E+00  0.88000000000E+00 0. -1.
        -11    1    4    4    0    0  0.33100657156E-01 -0.34951929255E-01 -0.30736108962E-01  0.57116200661E-01  0.51100000000E-03 0.  1.
         11    1    4    4    0    0 -0.10454842731E-02 -0.74097333076E-01 -0.36910477580E-01  0.82789807842E-01  0.51100000000E-03 0. -1.
</event>
<event>
 8    1  0.2091070E+004  0.1043930E+01  0.7957747E-01            NaN
         13   -1    0    0    0    0  0.00000000000E+00  0.00000000000E+00  0.74505805969E-08  0.10566000000E+00  0.10566000000E+00 0. -1.
     999900   -1    0    0    0    0 -0.00000000000E+00 -0.00000000000E+00 -0.74505805969E-08  0.93827000000E+00  0.93827000000E+00 0. -1.
     999902    2    1    2    0    0  0.48040035907E-02  0.11601076230E-01 -0.40961352235E-02  0.10307223604E+01  0.10306377358E+01 0.  0.
     999903    2    3    3    0    0 -0.33436213689E-01  0.68162291940E-02  0.12807239038E+00  0.14001829723E+00  0.45145819450E-01 0.  0.
         14    1    1    2    0    0 -0.48040035907E-02 -0.11601076230E-01  0.40961352235E-02  0.13207639606E-01  0.00000000000E+00 0. -1.
     999901    1    3    3    0    0  0.38240217280E-01  0.47848470364E-02 -0.13216852561E+00  0.89070406317E+00  0.88000000000E+00 0. -1.
        -11    1    4    4    0    0 -0.46760471108E-03  0.20057985004E-01  0.59383030638E-01  0.62682907282E-01  0.51100000000E-03 0.  1.
         11    1    4    4    0    0 -0.32968608978E-01 -0.13241755810E-01  0.68689359745E-01  0.77335389946E-01  0.51100000000E-03 0. -1.
</event>
<event>
 7    1  0.2091070E+004  0.1043930E+01  0.7957747E-01            NaN
         13   -1    0    0    0    0  0.00000000000E+00  0.00000000000E+00  0.74505805969E-08  0.10566000000E+00  0.10566000000E+00 0.  1.
     999900   -1    0    0    0    0 -0.00000000000E+00 -0.00000000000E+00 -0.74505805969E-08  0.93827000000E+00  0.93827000000E+00 0.  1.
     999903    2    1    2    0    0 -0.10818678129E+00  0.16456026366E-01  0.11307424972E-01  0.11869469786E+00  0.44557748935E-01 0.  0.
         14    1    1    2    0    0  0.13590354906E-01  0.36055705920E-01 -0.12435194972E-02  0.38552017023E-01  0.00000000000E+00 0.  1.
     999901    1    1    2    0    0  0.94596426387E-01 -0.52511732286E-01 -0.10063905474E-01  0.88668328512E+00  0.88000000000E+00 0.  1.
        -11    1    3    3    0    0 -0.79369574040E-01 -0.60241317959E-02  0.17812954800E-01  0.81568265440E-01  0.51100000000E-03 0. -1.
         11    1    3    3    0    0 -0.28817207253E-01  0.22480158162E-01 -0.65055298281E-02  0.37126432419E-01  0.51100000000E-03 0.  1.
</event>
<event>
 8    1  0.2091070E+004  0.1043930E+01  0.7957747E-01            NaN
         13   -1    0    0    0    0  0.00000000000E+00  0.00000000000E+00  0.74505805969E-08  0.10566000000E+00  0.10566000000E+00 0.  1.
     999900   -1    0    0    0    0 -0.00000000000E+00 -0.00000000000E+00 -0.74505805969E-08  0.93827000000E+00  0.93827000000E+00 0. -1.
     999902    2    1    2    0    0 -0.74177232850E-02  0.51240031138E-02  0.90125159959E-02  0.10311823151E+01  0.10311035173E+01 0.  0.
     999903    2    3    3    0    0  0.47587756085E-01 -0.51892266231E-01 -0.11159967936E+00  0.13942912085E+00  0.45039865496E-01 0.  0.
         14    1    1    2    0    0  0.74177232850E-02 -0.51240031138E-02 -0.90125159959E-02  0.12747684936E-01  0.00000000000E+00 0. -1.
     999901    1    3    3    0    0 -0.55005479370E-01  0.57016269344E-01  0.12061219535E+00  0.89175319422E+00  0.88000000000E+00 0.  1.
        -11    1    4    4    0    0 -0.66808842845E-02 -0.14672652976E-01 -0.12220980921E-01  0.20236957673E-01  0.51100000000E-03 0. -1.
         11    1    4    4    0    0  0.54268640369E-01 -0.37219613254E-01 -0.99378698435E-01  0.11919216317E+00  0.51100000000E-03 0.  1.
</event>
<event>
 8    1  0.2091070E+004  0.1043930E+01  0.7957747E-01            NaN
         13   -1    0    0    0    0  0.00000000000E+00  0.00000000000E+00  0.74505805969E-08  0.10566000000E+00  0.10566000000E+00 0.  1.
     999900   -1    0    0    0    0 -0.00000000000E+00 -0.00000000000E+00 -0.74505805969E-08  0.93827000000E+00  0.93827000000E+00 0. -1.
     999902    2    1    2    0    0 -0.37266620137E-02 -0.12764929332E-01 -0.17004319329E-02  0.10305239230E+01  0.10304367196E+01 0.  0.
     999903    2    3    3    0    0  0.76040617072E-01  0.10832387454E+00 -0.26131448269E-01  0.13832316548E+00  0.30564820965E-01 0.  0.
         14    1    1    2    0    0  0.37266620137E-02  0.12764929332E-01  0.17004319329E-02  0.13406076957E-01  0.00000000000E+00 0.  1.
     999901    1    3    3    0    0 -0.79767279085E-01 -0.12108880387E+00  0.24431016336E-01  0.89220075756E+00  0.88000000000E+00 0.  1.
        -11    1    4    4    0    0  0.23929168689E-01  0.13111772391E-01 -0.51165435823E-02  0.27766235406E-01  0.51100000000E-03 0. -1.
         11    1    4    4    0    0  0.52111448382E-01  0.95212102146E-01 -0.21014904687E-01  0.11055693007E+00  0.51100000000E-03 0.  1.
</event>
<event>
 8    1  0.2091070E+004  0.1043930E+01  0.7957747E-01            NaN
         13   -1    0    0    0    0  0.00000000000E+00  0.00000000000E+00  0.74505805969E-08  0.10566000000E+00  0.10566000000E+00 0. -1.
     999900   -1    0    0    0    0 -0.00000000000E+00 -0.00000000000E+00 -0.74505805969E-08  0.93827000000E+00  0.93827000000E+00 0.  1.
     999902    2    1    2    0    0  0.73703466725E-02 -0.89279422471E-02  0.79801486915E-02  0.10298689568E+01  0.10297729630E+01 0.  0.
     999903    2    3    3    0    0 -0.59034643636E-01 -0.11225206386E+00  0.41568985810E-01  0.14070434503E+00  0.44543429787E-01 0.  0.
         14    1    1    2    0    0 -0.73703466725E-02  0.89279422471E-02 -0.79801486915E-02  0.14061043204E-01  0.00000000000E+00 0.  1.
     999901    1    3    3    0    0  0.66404990308E-01  0.10332412162E+00 -0.33588837118E-01  0.88916461177E+00  0.88000000000E+00 0. -1.
        -11    1    4    4    0    0 -0.57438165833E-01 -0.78195252471E-01  0.16584154747E-01  0.98432391584E-01  0.51100000000E-03 0. -1.
         11    1    4    4    0    0 -0.15964778024E-02 -0.34056811392E-01  0.24984831062E-01  0.42271953441E-01  0.51100000000E-03 0.  1.
</event>
<event>
 8    1  0.2091070E+004  0.1043930E+01  0.7957747E-01            NaN
         13   -1    0    0    0    0  0.00000000000E+00  0.00000000000E+00  0.74505805969E-08  0.10566000000E+00  0.10566000000E+00 0. -1.
     999900   -1    0    0    0    0 -0.00000000000E+00 -0.00000000000E+00 -0.74505805969E-08  0.93827000000E+00  0.93827000000E+00 0.  1.
     999902    2    1    2    0    0 -0.29200794341E-03  0.12782526847E-01 -0.59117772063E-03  0.10311304784E+01  0.10310510345E+01 0.  0.
     999903    2    3    3    0    0 -0.12441999656E+00 -0.99027118002E-02 -0.46462079666E-01  0.14094706067E+00  0.46140544207E-01 0.  0.
         14    1    1    2    0    0  0.29200794341E-03 -0.12782526847E-01  0.59117772063E-03  0.12799521566E-01  0.00000000000E+00 0. -1.
     999901    1    3    3    0    0  0.12412798862E+00  0.22685238647E-01  0.45870901945E-01  0.89018341776E+00  0.88000000000E+00 0. -1.
        -11    1    4    4    0    0 -0.45852532198E-01  0.18561863067E-01 -0.15767313778E-01  0.51921737011E-01  0.51100000000E-03 0. -1.
         11    1    4    4    0    0 -0.78567464365E-01 -0.28464574867E-01 -0.30694765888E-01  0.89025323662E-01  0.51100000000E-03 0.  1.
</event>
<event>
 8    1  0.2091070E+004  0.1043930E+01  0.7957747E-01            NaN
         13   -1    0    0    0    0  0.00000000000E+00  0.00000000000E+00  0.74505805969E-08  0.10566000000E+00  0.10566000000E+00 0. -1.
     999900   -1    0    0    0    0 -0.00000000000E+00 -0.00000000000E+00 -0.74505805969E-08  0.93827000000E+00  0.93827000000E+00 0.  1.
     999902    2    1    2    0    0 -0.69799377786E-03  0.13747485078E-01  0.15121960112E-02  0.10300819937E+01  0.10299889060E+01 0.  0.
     999903    2    3    3    0    0  0.12481489230E+00  0.27373485989E-01 -0.38751680353E-01  0.14016046222E+00  0.42605133105E-01 0.  0.
         14    1    1    2    0    0  0.69799377786E-03 -0.13747485078E-01 -0.15121960112E-02  0.13848006285E-01  0.00000000000E+00 0. -1.
     999901    1    3    3    0    0 -0.12551288607E+00 -0.13626000911E-01  0.40263876364E-01  0.88992153149E+00  0.88000000000E+00 0. -1.
        -11    1    4    4    0    0  0.65173613754E-01 -0.22522241277E-02 -0.47519435556E-02  0.65387418758E-01  0.51100000000E-03 0. -1.
         11    1    4    4    0    0  0.59641278542E-01  0.29625710116E-01 -0.33999736797E-01  0.74773043467E-01  0.51100000000E-03 0.  1.
</event>
<event>
 8    1  0.2091070E+004  0.1043930E+01  0.7957747E-01            NaN
         13   -1    0    0    0    0  0.00000000000E+00  0.00000000000E+00  0.74505805969E-08  0.10566000000E+00  0.10566000000E+00 0. -1.
     999900   -1    0    0    0    0 -0.00000000000E+00 -0.00000000000E+00 -0.74505805969E-08  0.93827000000E+00  0.93827000000E+00 0. -1.
     999902    2    1    2    0    0 -0.95468324103E-02 -0.38312632658E-02  0.60369147435E-02  0.10320025138E+01  0.10319335849E+01 0.  0.
     999903    2    3    3    0    0  0.56803253042E-01 -0.30442842465E-01 -0.11655257891E+00  0.14063351393E+00  0.45165311657E-01 0.  0.
         14    1    1    2    0    0  0.95468324103E-02  0.38312632658E-02 -0.60369147435E-02  0.11927486194E-01  0.00000000000E+00 0.  1.
     999901    1    3    3    0    0 -0.66350085453E-01  0.26611579199E-01  0.12258949365E+00  0.89136899988E+00  0.88000000000E+00 0.  1.
        -11    1    4    4    0    0  0.30702361428E-02  0.92916351191E-02 -0.28187511028E-01  0.29842213928E-01  0.51100000000E-03 0. -1.
         11    1    4    4    0    0  0.53733016900E-01 -0.39734477584E-01 -0.88365067878E-01  0.11079130000E+00  0.51100000000E-03 0.  1.
</event>
<event>
 8    1  0.2091070E+004  0.1043930E+01  0.7957747E-01            NaN
         13   -1    0    0    0    0  0.00000000000E+00  0.00000000000E+00  0.74505805969E-08  0.10566000000E+00  0.10566000000E+00 0.  1.
     999900   -1    0    0    0    0 -0.00000000000E+00 -0.00000000000E+00 -0.74505805969E-08  0.93827000000E+00  0.93827000000E+00 0.  1.
     999902    2    1    2    0    0 -0.99432416560E-02 -0.54631189786E-02 -0.70608428371E-02  0.10305670203E+01  0.10304803803E+01 0.  0.
     999903    2    3    3    0    0  0.72967240727E-01  0.35780705276E-01  0.10332233132E+00  0.13884977466E+00  0.44713294245E-01 0.  0.
         14    1    1    2    0    0  0.99432416560E-02  0.54631189786E-02  0.70608428371E-02  0.13362979652E-01  0.00000000000E+00 0.  1.
     999901    1    3    3    0    0 -0.82910482383E-01 -0.41243824254E-01 -0.11038317416E+00  0.89171724569E+00  0.88000000000E+00 0. -1.
        -11    1    4    4    0    0  0.42829042855E-01  0.27247905768E-01  0.92845301928E-01  0.10581723154E+00  0.51100000000E-03 0.  1.
         11    1    4    4    0    0  0.30138197871E-01  0.85327995079E-02  0.10477029396E-01  0.33032543110E-01  0.51100000000E-03 0. -1.
</event>
<event>
 8    1  0.2091070E+004  0.1043930E+01  0.7957747E-01            NaN
         13   -1    0    0    0    0  0.00000000000E+00  0.00000000000E+00  0.74505805969E-08  0.10566000000E+00  0.10566000000E+00 0. -1.
     999900   -1    0    0    0    0 -0.00000000000E+00 -0.00000000000E+00 -0.74505805969E-08  0.93827000000E+00  0.93827000000E+00 0.  1.
     999902    2    1    2    0    0  0.40134508962E-02 -0.40364506533E-02 -0.12592113915E-01  0.10301110979E+01  0.10300184037E+01 0.  0.
     999903    2    3    3    0    0 -0.11768304456E+00  0.50415616536E-01 -0.34040677752E-01  0.13981052759E+00  0.44689848032E-01 0.  0.
         14    1    1    2    0    0 -0.40134508962E-02  0.40364506533E-02  0.12592113915E-01  0.13818902085E-01  0.00000000000E+00 0. -1.
     999901    1    3    3    0    0  0.12169649545E+00 -0.54452067189E-01  0.21448563837E-01  0.89030057032E+00  0.88000000000E+00 0. -1.
        -11    1    4    4    0    0 -0.18538563367E-01  0.16089262671E-01  0.93501338930E-02  0.26272206413E-01  0.51100000000E-03 0. -1.
         11    1    4    4    0    0 -0.99144481189E-01  0.34326353865E-01 -0.43390811645E-01  0.11353832118E+00  0.51100000000E-03 0.  1.
</event>
<event>
 8    1  0.2091070E+004  0.1043930E+01  0.7957747E-01            NaN
         13   -1    0    0    0    0  0.00000000000E+00  0.00000000000E+00  0.74505805969E-08  0.10566000000E+00  0.10566000000E+00 0. -1.
     999900   -1    0    0    0    0 -0.00000000000E+00 -0.00000000000E+00 -0.74505805969E-08  0.93827000000E+00  0.93827000000E+00 0. -1.
     999902    2    1    2    0    0  0.42493258715E-02 -0.12127521169E-01 -0.21372141832E-02  0.10309030577E+01  0.10308207474E+01 0.  0.
     999903    2    3    3    0    0 -0.94974576960E-01 -0.65592378637E-01  0.67269243366E-01  0.14100355205E+00  0.45103438726E-01 0.  0.
         14    1    1    2    0    0 -0.42493258715E-02  0.12127521169E-01  0.21372141832E-02  0.13026942256E-01  0.00000000000E+00 0. -1.
     999901    1    3    3    0    0  0.99223902832E-01  0.53464857468E-01 -0.69406457550E-01  0.88989950569E+00  0.88000000000E+00 0.  1.
        -11    1    4    4    0    0 -0.92540548520E-01 -0.45305250085E-01  0.51512290361E-01  0.11519590264E+00  0.51100000000E-03 0. -1.
         11    1    4    4    0    0 -0.24340284404E-02 -0.20287128552E-01  0.15756953006E-01  0.25807649416E-01  0.51100000000E-03 0.  1.
</event>
<event>
 8    1  0.2091070E+004  0.1043930E+01  0.7957747E-01            NaN
         13   -1    0    0    0    0  0.00000000000E+00  0.00000000000E+00  0.74505805969E-08  0.10566000000E+00  0.10566000000E+00 0. -1.
     999900   -1    0    0    0    0 -0.00000000000E+00 -0.00000000000E+00 -0.74505805969E-08  0.93827000000E+00  0.93827000000E+00 0. -1.
     999902    2    1    2    0    0 -0.64946939565E-02  0.10900277780E-01  0.51216616211E-02  0.10302468526E+01  0.10301559827E+01 0.  0.
     999903    2    3    3    0    0 -0.63421631839E-01 -0.92549145501E-01  0.70676860746E-01  0.13994356518E+00  0.44736283635E-01 0.  0.
         14    1    1    2    0    0  0.64946939565E-02 -0.10900277780E-01 -0.51216616211E-02  0.13683147410E-01  0.00000000000E+00 0. -1.
     999901    1    3    3    0    0  0.56926937883E-01  0.10344942328E+00 -0.65555199125E-01  0.89030328741E+00  0.88000000000E+00 0.  1.
        -11    1    4    4    0    0 -0.66991855037E-01 -0.70153636347E-01  0.64302519209E-01  0.11638091094E+00  0.51100000000E-03 0.  1.
         11    1    4    4    0    0  0.35702231973E-02 -0.22395509154E-01  0.63743415378E-02  0.23562654243E-01  0.51100000000E-03 0. -1.
</event>
<event>
 8    1  0.2091070E+004  0.1043930E+01  0.7957747E-01            NaN
         13   -1    0    0    0    0  0.00000000000E+00  0.00000000000E+00  0.74505805969E-08  0.10566000000E+00  0.10566000000E+00 0. -1.
     999900   -1    0    0    0    0 -0.00000000000E+00 -0.00000000000E+00 -0.74505805969E-08  0.93827000000E+00  0.93827000000E+00 0. -1.
     999902    2    1    2    0    0 -0.73974675108E-02 -0.27763768913E-02  0.99382313098E-02  0.10312335739E+01  0.10311554125E+01 0.  0.
     999903    2    3    3    0    0  0.26967341117E-01  0.38755508707E-01 -0.12035546131E+00  0.14000841496E+00  0.53737251963E-01 0.  0.
         14    1    1    2    0    0  0.73974675108E-02  0.27763768913E-02 -0.99382313098E-02  0.12696426103E-01  0.00000000000E+00 0.  1.
     999901    1    3    3    0    0 -0.34364808628E-01 -0.41531885599E-01  0.13029369262E+00  0.89122515894E+00  0.88000000000E+00 0.  1.
        -11    1    4    4    0    0  0.34280365610E-01  0.24028552161E-02 -0.54589563882E-01  0.64507354506E-01  0.51100000000E-03 0. -1.
         11    1    4    4    0    0 -0.73130244934E-02  0.36352653491E-01 -0.65765897431E-01  0.75501060449E-01  0.51100000000E-03 0.  1.
</event>
<event>
 8    1  0.2091070E+004  0.1043930E+01  0.7957747E-01            NaN
         13   -1    0    0    0    0  0.00000000000E+00  0.00000000000E+00  0.74505805969E-08  0.10566000000E+00  0.10566000000E+00 0.  1.
     999900   -1    0    0    0    0 -0.00000000000E+00 -0.00000000000E+00 -0.74505805969E-08  0.93827000000E+00  0.93827000000E+00 0.  1.
     999902    2    1    2    0    0 -0.80407464220E-03 -0.42290435497E-02  0.12363658941E-01  0.10308383459E+01  0.10307552105E+01 0.  0.
     999903    2    3    3    0    0 -0.99594288928E-01  0.40990520729E-01 -0.77178547299E-01  0.13964693987E+00  0.44107759810E-01 0.  0.
         14    1    1    2    0    0  0.80407464220E-03  0.42290435497E-02 -0.12363658941E-01  0.13091654127E-01  0.00000000000E+00 0. -1.
     999901    1    3    3    0    0  0.98790214286E-01 -0.45219564279E-01  0.89542206241E-01  0.89119140600E+00  0.88000000000E+00 0. -1.
        -11    1    4    4    0    0 -0.23945839394E-01  0.32282553025E-01 -0.28295966481E-01  0.49157799932E-01  0.51100000000E-03 0.  1.
         11    1    4    4    0    0 -0.75648449534E-01  0.87079677042E-02 -0.48882580818E-01  0.90489139939E-01  0.51100000000E-03 0. -1.
</event>
<event>
 8    1  0.2091070E+004  0.1043930E+01  0.7957747E-01            NaN
         13   -1    0    0    0    0  0.00000000000E+00  0.00000000000E+00  0.74505805969E-08  0.10566000000E+00  0.10566000000E+00 0.  1.
     999900   -1    0    0    0    0 -0.00000000000E+00 -0.00000000000E+00 -0.74505805969E-08  0.93827000000E+00  0.93827000000E+00 0.  1.
     999902    2    1    2    0    0  0.15816345373E-02 -0.76159187297E-02 -0.10293098331E-01  0.10310283854E+01  0.10309476611E+01 0.  0.
     999903    2    3    3    0    0  0.40353445227E-01 -0.16392310510E-01  0.12384102754E+00  0.13997718481E+00  0.48578840868E-01 0.  0.
         14    1    1    2    0    0 -0.15816345373E-02  0.76159187297E-02  0.10293098331E-01  0.12901614595E-01  0.00000000000E+00 0.  1.
     999901    1    3    3    0    0 -0.38771810689E-01  0.87763917802E-02 -0.13413412587E+00  0.89105120059E+00  0.88000000000E+00 0.  1.
        -11    1    4    4    0    0  0.24234701224E-01 -0.19830138845E-01  0.11861475213E+00  0.12267956510E+00  0.51100000000E-03 0. -1.
         11    1    4    4    0    0  0.16118744002E-01  0.34378283346E-02  0.52262754077E-02  0.17297619706E-01  0.51100000000E-03 0.  1.
</event>
<event>
 8    1  0.2091070E+004  0.1043930E+01  0.7957747E-01            NaN
         13   -1    0    0    0    0  0.00000000000E+00  0.00000000000E+00  0.74505805969E-08  0.10566000000E+00  0.10566000000E+00 0. -1.
     999900   -1    0    0    0    0 -0.00000000000E+00 -0.00000000000E+00 -0.74505805969E-08  0.93827000000E+00  0.93827000000E+00 0.  1.
     999902    2    1    2    0    0 -0.97917429446E-02 -0.14680261117E-01  0.15403787097E-02  0.10262166981E+01  0.10260638140E+01 0.  0.
     999903    2    3    3    0    0 -0.92778150563E-01 -0.91973526745E-01  0.12716952333E-01  0.13886901624E+00  0.45342782800E-01 0.  0.
         14    1    1    2    0    0  0.97917429446E-02  0.14680261117E-01 -0.15403787097E-02  0.17713301864E-01  0.00000000000E+00 0.  1.
     999901    1    3    3    0    0  0.82986407619E-01  0.77293265629E-01 -0.11176573624E-01  0.88734768189E+00  0.88000000000E+00 0. -1.
        -11    1    4    4    0    0 -0.60663661036E-01 -0.48592787524E-01 -0.13451949280E-01  0.78883172034E-01  0.51100000000E-03 0.  1.
         11    1    4    4    0    0 -0.32114489527E-01 -0.43380739221E-01  0.26168901614E-01  0.59985844211E-01  0.51100000000E-03 0. -1.
</event>
<event>
 8    1  0.2091070E+004  0.1043930E+01  0.7957747E-01            NaN
         13   -1    0    0    0    0  0.00000000000E+00  0.00000000000E+00  0.74505805969E-08  0.10566000000E+00  0.10566000000E+00 0. -1.
     999900   -1    0    0    0    0 -0.00000000000E+00 -0.00000000000E+00 -0.74505805969E-08  0.93827000000E+00  0.93827000000E+00 0.  1.
     999902    2    1    2    0    0  0.12750755660E-01  0.69588205763E-04 -0.78454266677E-02  0.10289587832E+01  0.10288498628E+01 0.  0.
     999903    2    3    3    0    0 -0.43715204945E-02  0.36703559683E-03  0.13044820257E+00  0.13799391932E+00  0.44792223753E-01 0.  0.
         14    1    1    2    0    0 -0.12750755660E-01 -0.69588205763E-04  0.78454266677E-02  0.14971216785E-01  0.00000000000E+00 0.  1.
     999901    1    3    3    0    0  0.17122276155E-01 -0.29744739107E-03 -0.13829362923E+00  0.89096486390E+00  0.88000000000E+00 0.  1.
        -11    1    4    4    0    0 -0.19050707588E-01  0.89864117715E-02  0.10675930815E+00  0.10881863836E+00  0.51100000000E-03 0. -1.
         11    1    4    4    0    0  0.14679187093E-01 -0.86193761747E-02  0.23688894416E-01  0.29175280958E-01  0.51100000000E-03 0.  1.
</event>
<event>
 8    1  0.2091070E+004  0.1043930E+01  0.7957747E-01            NaN
         13   -1    0    0    0    0  0.00000000000E+00  0.00000000000E+00  0.74505805969E-08  0.10566000000E+00  0.10566000000E+00 0.  1.
     999900   -1    0    0    0    0 -0.00000000000E+00 -0.00000000000E+00 -0.74505805969E-08  0.93827000000E+00  0.93827000000E+00 0.  1.
     999902    2    1    2    0    0  0.61416194710E-03  0.98921679720E-02 -0.88019569401E-02  0.10306745623E+01  0.10305893201E+01 0.  0.
     999903    2    3    3    0    0 -0.57558810039E-01 -0.36074889138E-01  0.11271511936E+00  0.13923557684E+00  0.45469038753E-01 0.  0.
         14    1    1    2    0    0 -0.61416194710E-03 -0.98921679720E-02  0.88019569401E-02  0.13255437679E-01  0.00000000000E+00 0.  1.
     999901    1    3    3    0    0  0.58172971986E-01  0.45967057110E-01 -0.12151707630E+00  0.89143898548E+00  0.88000000000E+00 0.  1.
        -11    1    4    4    0    0 -0.30590839975E-01 -0.44032157447E-01  0.74451340690E-01  0.91749079730E-01  0.51100000000E-03 0. -1.
         11    1    4    4    0    0 -0.26967970064E-01  0.79572683085E-02  0.38263778670E-01  0.47486497106E-01  0.51100000000E-03 0.  1.
</event>
<event>
 8    1  0.2091070E+004  0.1043930E+01  0.7957747E-01            NaN
         13   -1    0    0    0    0  0.00000000000E+00  0.00000000000E+00  0.74505805969E-08  0.10566000000E+00  0.10566000000E+00 0.  1.
     999900   -1    0    0    0    0 -0.00000000000E+00 -0.00000000000E+00 -0.74505805969E-08  0.93827000000E+00  0.93827000000E+00 0. -1.
     999902    2    1    2    0    0 -0.10083074844E-01  0.41072484933E-02 -0.84185000511E-02  0.10301674046E+01  0.10300754693E+01 0.  0.
     999903    2    3    3    0    0  0.89914200305E-01 -0.49184421321E-01 -0.83318600063E-01  0.13974644682E+00  0.45644381525E-01 0.  0.
         14    1    1    2    0    0  0.10083074844E-01 -0.41072484933E-02  0.84185000511E-02  0.13762595381E-01  0.00000000000E+00 0. -1.
     999901    1    3    3    0    0 -0.99997275149E-01  0.53291669814E-01  0.74900100012E-01  0.89042095780E+00  0.88000000000E+00 0.  1.
        -11    1    4    4    0    0  0.79937182657E-01 -0.22627781499E-01 -0.54848921594E-01  0.99552172190E-01  0.51100000000E-03 0. -1.
         11    1    4    4    0    0  0.99770176478E-02 -0.26556639822E-01 -0.28469678469E-01  0.40194274629E-01  0.51100000000E-03 0.  1.
</event>
<event>
 8    1  0.2091070E+004  0.1043930E+01  0.7957747E-01            NaN
         13   -1    0    0    0    0  0.00000000000E+00  0.00000000000E+00  0.74505805969E-08  0.10566000000E+00  0.10566000000E+00 0.  1.
     999900   -1    0    0    0    0 -0.00000000000E+00 -0.00000000000E+00 -0.74505805969E-08  0.93827000000E+00  0.93827000000E+00 0.  1.
     999902    2    1    2    0    0  0.97643246236E-02  0.68531313683E-02  0.87626368155E-02  0.10291282687E+01  0.10290218182E+01 0.  0.
     999903    2    3    3    0    0  0.11221326863E+00 -0.58315837397E-01 -0.38453874749E-01  0.13953725057E+00  0.44714530792E-01 0.  0.
         14    1    1    2    0    0 -0.97643246236E-02 -0.68531313683E-02 -0.87626368155E-02  0.14801731279E-01  0.00000000000E+00 0. -1.
     999901    1    3    3    0    0 -0.10244894401E+00  0.65168968765E-01  0.47216511564E-01  0.88959101816E+00  0.88000000000E+00 0. -1.
        -11    1    4    4    0    0  0.73510733220E-01 -0.13458574489E-01 -0.24739762790E-01  0.78722792822E-01  0.51100000000E-03 0. -1.
         11    1    4    4    0    0  0.38702535412E-01 -0.44857262907E-01 -0.13714111958E-01  0.60814457743E-01  0.51100000000E-03 0.  1.
</event>
<event>
 8    1  0.2091070E+004  0.1043930E+01  0.7957747E-01            NaN
         13   -1    0    0    0    0  0.00000000000E+00  0.00000000000E+00  0.74505805969E-08  0.10566000000E+00  0.10566000000E+00 0.  1.
     999900   -1    0    0    0    0 -0.00000000000E+00 -0.00000000000E+00 -0.74505805969E-08  0.93827000000E+00  0.93827000000E+00 0. -1.
     999902    2    1    2    0    0 -0.12993394906E-01 -0.14953911360E-02 -0.32941163235E-02  0.10304423869E+01  0.10303541124E+01 0.  0.
     999903    2    3    3    0    0 -0.58330024637E-01 -0.73723561187E-01  0.94685278446E-01  0.14090751945E+00  0.45299799495E-01 0.  0.
         14    1    1    2    0    0  0.12993394906E-01  0.14953911360E-02  0.32941163235E-02  0.13487613139E-01  0.00000000000E+00 0.  1.
     999901    1    3    3    0    0  0.45336629731E-01  0.72228170051E-01 -0.97979394769E-01  0.88953486741E+00  0.88000000000E+00 0. -1.
        -11    1    4    4    0    0 -0.38159152372E-01 -0.20739902864E-01  0.61250071904E-01  0.75087261968E-01  0.51100000000E-03 0.  1.
         11    1    4    4    0    0 -0.20170872265E-01 -0.52983658323E-01  0.33435206542E-01  0.65820257480E-01  0.51100000000E-03 0. -1.
</event>
<event>
 8    1  0.2091070E+004  0.1043930E+01  0.7957747E-01            NaN
         13   -1    0    0    0    0  0.00000000000E+00  0.00000000000E+00  0.74505805969E-08  0.10566000000E+00  0.10566000000E+00 0. -1.
     999900   -1    0    0    0    0 -0.00000000000E+00 -0.00000000000E+00 -0.74505805969E-08  0.93827000000E+00  0.93827000000E+00 0. -1.
     999902    2    1    2    0    0  0.11511675677E-01  0.56953678022E-02  0.60977801534E-02  0.10297124470E+01  0.10296142893E+01 0.  0.
     999903    2    3    3    0    0 -0.13469647583E-01  0.60751120097E-01  0.11770088220E+00  0.14060589837E+00  0.45214942079E-01 0.  0.
         14    1    1    2    0    0 -0.11511675677E-01 -0.56953678022E-02 -0.60977801534E-02  0.14217553028E-01  0.00000000000E+00 0.  1.
     999901    1    3    3    0    0  0.24981323260E-01 -0.55055752295E-01 -0.11160310205E+00  0.88910654860E+00  0.88000000000E+00 0. -1.
        -11    1    4    4    0    0  0.12505321687E-01  0.33879199917E-01  0.78670116196E-01  0.86564609170E-01  0.51100000000E-03 0. -1.
         11    1    4    4    0    0 -0.25974969270E-01  0.26871920181E-01  0.39030766007E-01  0.54041289205E-01  0.51100000000E-03 0.  1.
</event>
<event>
 8    1  0.2091070E+004  0.1043930E+01  0.7957747E-01            NaN
         13   -1    0    0    0    0  0.00000000000E+00  0.00000000000E+00  0.74505805969E-08  0.10566000000E+00  0.10566000000E+00 0. -1.
     999900   -1    0    0    0    0 -0.00000000000E+00 -0.00000000000E+00 -0.74505805969E-08  0.93827000000E+00  0.93827000000E+00 0. -1.
     999902    2    1    2    0    0 -0.18718556581E-03 -0.78265999012E-02  0.11044126486E-01  0.10303925174E+01  0.10303035847E+01 0.  0.
     999903    2    3    3    0    0 -0.12652579040E+00 -0.32656335261E-01  0.29352848153E-01  0.14083466764E+00  0.43561474344E-01 0.  0.
         14    1    1    2    0    0  0.18718556581E-03  0.78265999012E-02 -0.11044126486E-01  0.13537482568E-01  0.00000000000E+00 0.  1.
     999901    1    3    3    0    0  0.12633860483E+00  0.24829735360E-01 -0.18308721667E-01  0.88955784979E+00  0.88000000000E+00 0.  1.
        -11    1    4    4    0    0 -0.38957308333E-01 -0.23498646139E-01 -0.61233786611E-02  0.45908769643E-01  0.51100000000E-03 0. -1.
         11    1    4    4    0    0 -0.87568482066E-01 -0.91576891219E-02  0.35476226814E-01  0.94925898001E-01  0.51100000000E-03 0.  1.
</event>
<event>
 8    1  0.2091070E+004  0.1043930E+01  0.7957747E-01            NaN
         13   -1    0    0    0    0  0.00000000000E+00  0.00000000000E+00  0.74505805969E-08  0.10566000000E+00  0.10566000000E+00 0.  1.
     999900   -1    0    0    0    0 -0.00000000000E+00 -0.00000000000E+00 -0.74505805969E-08  0.93827000000E+00  0.93827000000E+00 0.  1.
     999902    2    1    2    0    0  0.85935996878E-02  0.11519261671E-01 -0.39110289767E-02  0.10290357228E+01  0.10289279272E+01 0.  0.
     999903    2    3    3    0    0 -0.10489014454E+00  0.13393655593E-01 -0.77085375571E-01  0.13873433646E+00  0.46083929462E-01 0.  0.
         14    1    1    2    0    0 -0.85935996878E-02 -0.11519261671E-01  0.39110289767E-02  0.14894277179E-01  0.00000000000E+00 0.  1.
     999901    1    3    3    0    0  0.11348374423E+00 -0.18743939221E-02  0.73174346594E-01  0.89030138636E+00  0.88000000000E+00 0.  1.
        -11    1    4    4    0    0 -0.45070324102E-01  0.22845309423E-01 -0.53902375243E-01  0.73884839143E-01  0.51100000000E-03 0.  1.
         11    1    4    4    0    0 -0.59819820436E-01 -0.94516538299E-02 -0.23183000328E-01  0.64849497317E-01  0.51100000000E-03 0. -1.
</event>
<event>
 8    1  0.2091070E+004  0.1043930E+01  0.7957747E-01            NaN
         13   -1    0    0    0    0  0.00000000000E+00  0.00000000000E+00  0.74505805969E-08  0.10566000000E+00  0.10566000000E+00 0. -1.
     999900   -1    0    0    0    0 -0.00000000000E+00 -0.00000000000E+00 -0.74505805969E-08  0.93827000000E+00  0.93827000000E+00 0.  1.
     999902    2    1    2    0    0  0.22365321406E-02  0.13114402270E-01 -0.25142397598E-02  0.10303907598E+01  0.10303018038E+01 0.  0.
     999903    2    3    3    0    0  0.55875566535E-01 -0.49338463962E-01 -0.10992798583E+00  0.14004519806E+00  0.44408698140E-01 0.  0.
         14    1    1    2    0    0 -0.22365321406E-02 -0.13114402270E-01  0.25142397598E-02  0.13539240174E-01  0.00000000000E+00 0. -1.
     999901    1    3    3    0    0 -0.53639034394E-01  0.62452866231E-01  0.10741374607E+00  0.89034556177E+00  0.88000000000E+00 0. -1.
        -11    1    4    4    0    0  0.33181643311E-01 -0.12065283956E-01 -0.79070127585E-01  0.86596412900E-01  0.51100000000E-03 0.  1.
         11    1    4    4    0    0  0.22693923223E-01 -0.37273180006E-01 -0.30857858241E-01  0.53448785161E-01  0.51100000000E-03 0. -1.
</event>
<event>
 8    1  0.2091070E+004  0.1043930E+01  0.7957747E-01            NaN
         13   -1    0    0    0    0  0.00000000000E+00  0.00000000000E+00  0.74505805969E-08  0.10566000000E+00  0.10566000000E+00 0.  1.
     999900   -1    0    0    0    0 -0.00000000000E+00 -0.00000000000E+00 -0.74505805969E-08  0.93827000000E+00  0.93827000000E+00 0.  1.
     999902    2    1    2    0    0  0.51635563748E-02  0.10346409781E-01 -0.67785183130E-02  0.10305263132E+01  0.10304391410E+01 0.  0.
     999903    2    3    3    0    0 -0.28897650702E-01  0.11202710366E-01 -0.13194528041E+00  0.14101655078E+00  0.38929881013E-01 0.  0.
         14    1    1    2    0    0 -0.51635563748E-02 -0.10346409781E-01  0.67785183130E-02  0.13403686818E-01  0.00000000000E+00 0.  1.
     999901    1    3    3    0    0  0.34061207077E-01 -0.85630058460E-03  0.12516676210E+00  0.88950976240E+00  0.88000000000E+00 0. -1.
        -11    1    4    4    0    0 -0.18880316757E-01  0.23909353450E-01 -0.60249125912E-01  0.67515493314E-01  0.51100000000E-03 0. -1.
         11    1    4    4    0    0 -0.10017333945E-01 -0.12706643084E-01 -0.71696154496E-01  0.73501057464E-01  0.51100000000E-03 0.  1.
</event>
<event>
 8    1  0.2091070E+004  0.1043930E+01  0.7957747E-01            NaN
         13   -1    0    0    0    0  0.00000000000E+00  0.00000000000E+00  0.74505805969E-08  0.10566000000E+00  0.10566000000E+00 0. -1.
     999900   -1    0    0    0    0 -0.00000000000E+00 -0.00000000000E+00 -0.74505805969E-08  0.93827000000E+00  0.93827000000E+00 0. -1.
     999902    2    1    2    0    0 -0.48127831691E-02  0.96961835582E-02 -0.67560109605E-02  0.10311698064E+01  0.10310908529E+01 0.  0.
     999903    2    3    3    0    0 -0.38970098689E-01 -0.12273455092E+00  0.30313258799E-01  0.13983443043E+00  0.45302711776E-01 0.  0.
         14    1    1    2    0    0  0.48127831691E-02 -0.96961835582E-02  0.67560109605E-02  0.12760193632E-01  0.00000000000E+00 0.  1.
     999901    1    3    3    0    0  0.34157315520E-01  0.13243073448E+00 -0.37069269759E-01  0.89133537594E+00  0.88000000000E+00 0.  1.
        -11    1    4    4    0    0 -0.18491783579E-02 -0.36602903598E-01 -0.96214274679E-02  0.37894920503E-01  0.51100000000E-03 0. -1.
         11    1    4    4    0    0 -0.37120920331E-01 -0.86131647319E-01  0.39934686267E-01  0.10193950993E+00  0.51100000000E-03 0.  1.
</event>
<event>
 8    1  0.2091070E+004  0.1043930E+01  0.7957747E-01            NaN
         13   -1    0    0    0    0  0.00000000000E+00  0.00000000000E+00  0.74505805969E-08  0.10566000000E+00  0.10566000000E+00 0. -1.
     999900   -1    0    0    0    0 -0.00000000000E+00 -0.00000000000E+00 -0.74505805969E-08  0.93827000000E+00  0.93827000000E+00 0. -1.
     999902    2    1    2    0    0  0.99779244275E-02 -0.18695897109E-02  0.10099134974E-01  0.10296105423E+01  0.10295109625E+01 0.  0.
     999903    2    3    3    0    0  0.53954637587E-01 -0.12085592836E+00 -0.17255227144E-01  0.14009384138E+00  0.42559172847E-01 0.  0.
         14    1    1    2    0    0 -0.99779244275E-02  0.18695897109E-02 -0.10099134974E-01  0.14319457699E-01  0.00000000000E+00 0.  1.
     999901    1    3    3    0    0 -0.43976713160E-01  0.11898633865E+00  0.27354362118E-01  0.88951670092E+00  0.88000000000E+00 0. -1.
        -11    1    4    4    0    0  0.35766375202E-01 -0.11415451311E+00 -0.15409281054E-01  0.12061589250E+00  0.51100000000E-03 0. -1.
         11    1    4    4    0    0  0.18188262385E-01 -0.67014152447E-02 -0.18459460895E-02  0.19477948887E-01  0.51100000000E-03 0.  1.
</event>
<event>
 8    1  0.2091070E+004  0.1043930E+01  0.7957747E-01            NaN
         13   -1    0    0    0    0  0.00000000000E+00  0.00000000000E+00  0.74505805969E-08  0.10566000000E+00  0.10566000000E+00 0. -1.
     999900   -1    0    0    0    0 -0.00000000000E+00 -0.00000000000E+00 -0.74505805969E-08  0.93827000000E+00  0.93827000000E+00 0.  1.
     999902    2    1    2    0    0 -0.33262085919E-02 -0.16572464785E-02  0.13481797472E-01  0.10299454016E+01  0.10298504558E+01 0.  0.
     999903    2    3    3    0    0 -0.37978499333E-01 -0.12304381505E+00 -0.32892432800E-01  0.13972854626E+00  0.43127806258E-01 0.  0.
         14    1    1    2    0    0  0.33262085919E-02  0.16572464785E-02 -0.13481797472E-01  0.13984598406E-01  0.00000000000E+00 0.  1.
     999901    1    3    3    0    0  0.34652290741E-01  0.12138656857E+00  0.46374230272E-01  0.89021685533E+00  0.88000000000E+00 0. -1.
        -11    1    4    4    0    0 -0.35167832652E-01 -0.10647954011E+00 -0.11799165856E-01  0.11275704125E+00  0.51100000000E-03 0. -1.
         11    1    4    4    0    0 -0.28106666814E-02 -0.16564274938E-01 -0.21093266945E-01  0.26971505016E-01  0.51100000000E-03 0.  1.
</event>
<event>
 8    1  0.2091070E+004  0.1043930E+01  0.7957747E-01            NaN
         13   -1    0    0    0    0  0.00000000000E+00  0.00000000000E+00  0.74505805969E-08  0.10566000000E+00  0.10566000000E+00 0. -1.
     999900   -1    0    0    0    0 -0.00000000000E+00 -0.00000000000E+00 -0.74505805969E-08  0.93827000000E+00  0.93827000000E+00 0.  1.
     999902    2    1    2    0    0  0.12540708096E-01  0.50802224759E-04 -0.17149640025E-01  0.10226842453E+01  0.10224635365E+01 0.  0.
     999903    2    3    3    0    0  0.20825110947E-01 -0.15899751312E-01  0.12094989244E+00  0.13173276941E+00  0.45145971228E-01 0.  0.
         14    1    1    2    0    0 -0.12540708096E-01 -0.50802224759E-04  0.17149640025E-01  0.21245754715E-01  0.00000000000E+00 0.  1.
     999901    1    3    3    0    0 -0.82844028512E-02  0.15950553537E-01 -0.13809953247E+00  0.89095147587E+00  0.88000000000E+00 0.  1.
        -11    1    4    4    0    0  0.96125686218E-02  0.15134803485E-01  0.29672009057E-01  0.34672078025E-01  0.51100000000E-03 0.  1.
         11    1    4    4    0    0  0.11212542325E-01 -0.31034554798E-01  0.91277883385E-01  0.97060691390E-01  0.51100000000E-03 0. -1.
</event>
<event>
 8    1  0.2091070E+004  0.1043930E+01  0.7957747E-01            NaN
         13   -1    0    0    0    0  0.00000000000E+00  0.00000000000E+00  0.74505805969E-08  0.10566000000E+00  0.10566000000E+00 0. -1.
     999900   -1    0    0    0    0 -0.00000000000E+00 -0.00000000000E+00 -0.74505805969E-08  0.93827000000E+00  0.93827000000E+00 0.  1.
     999902    2    1    2    0    0 -0.66482171963E-02 -0.95649330842E-02 -0.65690401105E-02  0.10305569291E+01  0.10304701573E+01 0.  0.
     999903    2    3    3    0    0  0.58510471298E-01  0.11312735935E+00  0.32001130085E-01  0.13882450774E+00  0.45021072163E-01 0.  0.
         14    1    1    2    0    0  0.66482171963E-02  0.95649330842E-02  0.65690401105E-02  0.13373070880E-01  0.00000000000E+00 0.  1.
     999901    1    3    3    0    0 -0.65158688494E-01 -0.12269229243E+00 -0.38570170196E-01  0.89173242138E+00  0.88000000000E+00 0.  1.
        -11    1    4    4    0    0  0.42461215838E-01  0.10428795932E+00  0.14589244292E-01  0.11354312167E+00  0.51100000000E-03 0. -1.
         11    1    4    4    0    0  0.16049255460E-01  0.88394000280E-02  0.17411885793E-01  0.25281386068E-01  0.51100000000E-03 0.  1.
</event>
<event>
 8    1  0.2091070E+004  0.1043930E+01  0.7957747E-01            NaN
         13   -1    0    0    0    0  0.00000000000E+00  0.00000000000E+00  0.74505805969E-08  0.10566000000E+00  0.10566000000E+00 0.  1.
     999900   -1    0    0    0    0 -0.00000000000E+00 -0.00000000000E+00 -0.74505805969E-08  0.93827000000E+00  0.93827000000E+00 0. -1.
     999902    2    1    2    0    0  0.53184404800E-02  0.68556142118E-02  0.10712506247E-01  0.10301443899E+01  0.10300521448E+01 0.  0.
     999903    2    3    3    0    0 -0.70772809348E-01  0.54914472287E-01 -0.97192688415E-01  0.13899734078E+00  0.43005258444E-01 0.  0.
         14    1    1    2    0    0 -0.53184404800E-02 -0.68556142118E-02 -0.10712506247E-01  0.13785610086E-01  0.00000000000E+00 0. -1.
     999901    1    3    3    0    0  0.76091249828E-01 -0.48058858075E-01  0.10790519466E+00  0.89114704913E+00  0.88000000000E+00 0.  1.
        -11    1    4    4    0    0 -0.94482945921E-02  0.26818735883E-01 -0.13432859412E-01  0.31451831394E-01  0.51100000000E-03 0.  1.
         11    1    4    4    0    0 -0.61324514755E-01  0.28095736404E-01 -0.83759829003E-01  0.10754550939E+00  0.51100000000E-03 0. -1.
</event>
<event>
 8    1  0.2091070E+004  0.1043930E+01  0.7957747E-01            NaN
         13   -1    0    0    0    0  0.00000000000E+00  0.00000000000E+00  0.74505805969E-08  0.10566000000E+00  0.10566000000E+00 0.  1.
     999900   -1    0    0    0    0 -0.00000000000E+00 -0.00000000000E+00 -0.74505805969E-08  0.93827000000E+00  0.93827000000E+00 0. -1.
     999902    2    1    2    0    0 -0.50608828496E-02  0.89329226066E-02  0.83814570574E-02  0.10306763792E+01  0.10305911606E+01 0.  0.
     999903    2    3    3    0    0 -0.53774414848E-01  0.85994998647E-01  0.89063513228E-01  0.14229517390E+00  0.45041976454E-01 0.  0.
         14    1    1    2    0    0  0.50608828496E-02 -0.89329226066E-02 -0.83814570574E-02  0.13253620785E-01  0.00000000000E+00 0. -1.
     999901    1    3    3    0    0  0.48713531998E-01 -0.77062076041E-01 -0.80682056171E-01  0.88838120531E+00  0.88000000000E+00 0. -1.
        -11    1    4    4    0    0 -0.39846555938E-01  0.81825947116E-01  0.89628100615E-01  0.12773680434E+00  0.51100000000E-03 0.  1.
         11    1    4    4    0    0 -0.13927858910E-01  0.41690515316E-02 -0.56458738634E-03  0.14558369566E-01  0.51100000000E-03 0. -1.
</event>
<event>
 8    1  0.2091070E+004  0.1043930E+01  0.7957747E-01            NaN
         13   -1    0    0    0    0  0.00000000000E+00  0.00000000000E+00  0.74505805969E-08  0.10566000000E+00  0.10566000000E+00 0. -1.
     999900   -1    0    0    0    0 -0.00000000000E+00 -0.00000000000E+00 -0.74505805969E-08  0.93827000000E+00  0.93827000000E+00 0. -1.
     999902    2    1    2    0    0  0.59772803127E-02  0.11612329672E-01 -0.56621598772E-02  0.10296950383E+01  0.10295966384E+01 0.  0.
     999903    2    3    3    0    0  0.50958842098E-02  0.12362165879E+00 -0.51748370609E-01  0.14139846311E+00  0.44803447965E-01 0.  0.
         14    1    1    2    0    0 -0.59772803127E-02 -0.11612329672E-01  0.56621598772E-02  0.14234961708E-01  0.00000000000E+00 0.  1.
     999901    1    3    3    0    0  0.88139610285E-03 -0.11200932912E+00  0.46086210732E-01  0.88829657519E+00  0.88000000000E+00 0.  1.
        -11    1    4    4    0    0  0.45537901332E-02  0.23319467924E-01 -0.30845007365E-01  0.38938543748E-01  0.51100000000E-03 0. -1.
         11    1    4    4    0    0  0.54209407661E-03  0.10030219087E+00 -0.20903363244E-01  0.10245991936E+00  0.51100000000E-03 0.  1.
</event>
<event>
 8    1  0.2091070E+004  0.1043930E+01  0.7957747E-01            NaN
         13   -1    0    0    0    0  0.00000000000E+00  0.00000000000E+00  0.74505805969E-08  0.10566000000E+00  0.10566000000E+00 0.  1.
     999900   -1    0    0    0    0 -0.00000000000E+00 -0.00000000000E+00 -0.74505805969E-08  0.93827000000E+00  0.93827000000E+00 0.  1.
     999902    2    1    2    0    0  0.13992800760E-01 -0.30333209693E-02 -0.28082378703E-03  0.10296094424E+01  0.10295098472E+01 0.  0.
     999903    2    3    3    0    0 -0.11011257057E-01  0.13098575916E+00  0.52419526911E-02  0.13909452513E+00  0.45180659228E-01 0.  0.
         14    1    1    2    0    0 -0.13992800760E-01  0.30333209693E-02  0.28082378703E-03  0.14320557643E-01  0.00000000000E+00 0.  1.
     999901    1    3    3    0    0  0.25004057818E-01 -0.13401908013E+00 -0.55227764781E-02  0.89051491723E+00  0.88000000000E+00 0.  1.
        -11    1    4    4    0    0  0.13544412826E-01  0.41127385659E-01 -0.10651112926E-01  0.44593949114E-01  0.51100000000E-03 0. -1.
         11    1    4    4    0    0 -0.24555669884E-01  0.89858373499E-01  0.15893065618E-01  0.94500576015E-01  0.51100000000E-03 0.  1.
</event>
<event>
 8    1  0.2091070E+004  0.1043930E+01  0.7957747E-01            NaN
         13   -1    0    0    0    0  0.00000000000E+00  0.00000000000E+00  0.74505805969E-08  0.10566000000E+00  0.10566000000E+00 0. -1.
     999900   -1    0    0    0    0 -0.00000000000E+00 -0.00000000000E+00 -0.74505805969E-08  0.93827000000E+00  0.93827000000E+00 0.  1.
     999902    2    1    2    0    0 -0.12508236296E-01  0.60321106030E-02 -0.37831139805E-02  0.10295371447E+01  0.10294365342E+01 0.  0.
     999903    2    3    3    0    0  0.44136237104E-01  0.12402994593E+00 -0.14158291684E-01  0.13979576098E+00  0.44843758236E-01 0.  0.
         14    1    1    2    0    0  0.12508236296E-01 -0.60321106030E-02  0.37831139805E-02  0.14392855344E-01  0.00000000000E+00 0. -1.
     999901    1    3    3    0    0 -0.56644473400E-01 -0.11799783532E+00  0.10375177703E-01  0.88974138367E+00  0.88000000000E+00 0. -1.
        -11    1    4    4    0    0  0.31022492204E-01  0.30437717658E-01  0.36790100807E-02  0.43619329603E-01  0.51100000000E-03 0.  1.
         11    1    4    4    0    0  0.13113744900E-01  0.93592228270E-01 -0.17837301765E-01  0.96176431380E-01  0.51100000000E-03 0. -1.
</event>
<event>
 8    1  0.2091070E+004  0.1043930E+01  0.7957747E-01            NaN
         13   -1    0    0    0    0  0.00000000000E+00  0.00000000000E+00  0.74505805969E-08  0.10566000000E+00  0.10566000000E+00 0.  1.
     999900   -1    0    0    0    0 -0.00000000000E+00 -0.00000000000E+00 -0.74505805969E-08  0.93827000000E+00  0.93827000000E+00 0.  1.
     999902    2    1    2    0    0  0.10438958212E-01 -0.51878678122E-02  0.19786670957E-02  0.10321062551E+01  0.10320385268E+01 0.  0.
     999903    2    3    3    0    0  0.64275437725E-01 -0.47788706930E-01 -0.10849601428E+00  0.14254577187E+00  0.46182459443E-01 0.  0.
         14    1    1    2    0    0 -0.10438958212E-01  0.51878678122E-02 -0.19786670957E-02  0.11823744943E-01  0.00000000000E+00 0. -1.
     999901    1    3    3    0    0 -0.53836479512E-01  0.42600839117E-01  0.11047468137E+00  0.88956048318E+00  0.88000000000E+00 0. -1.
        -11    1    4    4    0    0  0.48038015322E-01 -0.26305095485E-01 -0.10048956585E+00  0.11444659423E+00  0.51100000000E-03 0.  1.
         11    1    4    4    0    0  0.16237422402E-01 -0.21483611444E-01 -0.80064484273E-02  0.28099177646E-01  0.51100000000E-03 0. -1.
</event>
<event>
 8    1  0.2091070E+004  0.1043930E+01  0.7957747E-01            NaN
         13   -1    0    0    0    0  0.00000000000E+00  0.00000000000E+00  0.74505805969E-08  0.10566000000E+00  0.10566000000E+00 0. -1.
     999900   -1    0    0    0    0 -0.00000000000E+00 -0.00000000000E+00 -0.74505805969E-08  0.93827000000E+00  0.93827000000E+00 0. -1.
     999902    2    1    2    0    0 -0.79867582502E-02 -0.92683864487E-02  0.70018077501E-02  0.10298333122E+01  0.10297368277E+01 0.  0.
     999903    2    3    3    0    0  0.67478053361E-02 -0.70578747377E-01 -0.11155965291E+00  0.13964631631E+00  0.45040482281E-01 0.  0.
         14    1    1    2    0    0  0.79867582502E-02  0.92683864487E-02 -0.70018077501E-02  0.14096687784E-01  0.00000000000E+00 0.  1.
     999901    1    3    3    0    0 -0.14734563586E-01  0.61310360929E-01  0.11856146066E+00  0.89018699590E+00  0.88000000000E+00 0.  1.
        -11    1    4    4    0    0  0.17599413834E-01 -0.20851710419E-01 -0.65666675512E-01  0.71111930001E-01  0.51100000000E-03 0.  1.
         11    1    4    4    0    0 -0.10851608498E-01 -0.49727036958E-01 -0.45892977399E-01  0.68534386312E-01  0.51100000000E-03 0. -1.
</event>
<event>
 8    1  0.2091070E+004  0.1043930E+01  0.7957747E-01            NaN
         13   -1    0    0    0    0  0.00000000000E+00  0.00000000000E+00  0.74505805969E-08  0.10566000000E+00  0.10566000000E+00 0. -1.
     999900   -1    0    0    0    0 -0.00000000000E+00 -0.00000000000E+00 -0.74505805969E-08  0.93827000000E+00  0.93827000000E+00 0.  1.
     999902    2    1    2    0    0 -0.78505681856E-02 -0.82151770378E-02 -0.71603754035E-02  0.10304990086E+01  0.10304114786E+01 0.  0.
     999903    2    3    3    0    0 -0.72921079976E-01  0.93338556668E-02  0.11066698057E+00  0.14009155922E+00  0.44428139866E-01 0.  0.
         14    1    1    2    0    0  0.78505681856E-02  0.82151770378E-02  0.71603754035E-02  0.13430991420E-01  0.00000000000E+00 0.  1.
     999901    1    3    3    0    0  0.65070511791E-01 -0.17549032705E-01 -0.11782735597E+00  0.89040744936E+00  0.88000000000E+00 0.  1.
        -11    1    4    4    0    0 -0.61914304080E-01 -0.10488484440E-01  0.87172232104E-01  0.10743671871E+00  0.51100000000E-03 0.  1.
         11    1    4    4    0    0 -0.11006775896E-01  0.19822340107E-01  0.23494748462E-01  0.32654840517E-01  0.51100000000E-03 0. -1.
</event>
<event>
 8    1  0.2091070E+004  0.1043930E+01  0.7957747E-01            NaN
         13   -1    0    0    0    0  0.00000000000E+00  0.00000000000E+00  0.74505805969E-08  0.10566000000E+00  0.10566000000E+00 0.  1.
     999900   -1    0    0    0    0 -0.00000000000E+00 -0.00000000000E+00 -0.74505805969E-08  0.93827000000E+00  0.93827000000E+00 0. -1.
     999902    2    1    2    0    0  0.11965434129E-01 -0.51480587943E-02  0.79666114323E-02  0.10286610439E+01  0.10285477151E+01 0.  0.
     999903    2    3    3    0    0  0.12297136132E-01 -0.13076561510E+00 -0.10154838399E-01  0.13955572536E+00  0.46063153268E-01 0.  0.
         14    1    1    2    0    0 -0.11965434129E-01  0.51480587943E-02 -0.79666114323E-02  0.15268956119E-01  0.00000000000E+00 0. -1.
     999901    1    3    3    0    0 -0.33170200326E-03  0.12561755630E+00  0.18121449831E-01  0.88910531852E+00  0.88000000000E+00 0.  1.
        -11    1    4    4    0    0  0.27753392743E-01 -0.52714536327E-01 -0.26703193806E-02  0.59636103792E-01  0.51100000000E-03 0.  1.
         11    1    4    4    0    0 -0.15456256610E-01 -0.78051078771E-01 -0.74845190181E-02  0.79919621568E-01  0.51100000000E-03 0. -1.
</event>
<event>
 8    1  0.2091070E+004  0.1043930E+01  0.7957747E-01            NaN
         13   -1    0    0    0    0  0.00000000000E+00  0.00000000000E+00  0.74505805969E-08  0.10566000000E+00  0.10566000000E+00 0.  1.
     999900   -1    0    0    0    0 -0.00000000000E+00 -0.00000000000E+00 -0.74505805969E-08  0.93827000000E+00  0.93827000000E+00 0. -1.
     999902    2    1    2    0    0  0.35526102693E-02  0.67999625588E-02  0.11703277476E-01  0.10299361716E+01  0.10298410995E+01 0.  0.
     999903    2    3    3    0    0 -0.51486844492E-01  0.96953312890E-01 -0.72865075908E-01  0.13959422908E+00  0.46112790737E-01 0.  0.
         14    1    1    2    0    0 -0.35526102693E-02 -0.67999625588E-02 -0.11703277476E-01  0.13993828433E-01  0.00000000000E+00 0. -1.
     999901    1    3    3    0    0  0.55039454761E-01 -0.90153350331E-01  0.84568353384E-01  0.89034194249E+00  0.88000000000E+00 0.  1.
        -11    1    4    4    0    0 -0.18178064586E-01  0.37084339716E-01 -0.55015393588E-01  0.68794221682E-01  0.51100000000E-03 0. -1.
         11    1    4    4    0    0 -0.33308779906E-01  0.59868973174E-01 -0.17849682321E-01  0.70800007399E-01  0.51100000000E-03 0.  1.
</event>
<event>
 8    1  0.2091070E+004  0.1043930E+01  0.7957747E-01            NaN
         13   -1    0    0    0    0  0.00000000000E+00  0.00000000000E+00  0.74505805969E-08  0.10566000000E+00  0.10566000000E+00 0.  1.
     999900   -1    0    0    0    0 -0.00000000000E+00 -0.00000000000E+00 -0.74505805969E-08  0.93827000000E+00  0.93827000000E+00 0.  1.
     999902    2    1    2    0    0 -0.63453497899E-02  0.47575741551E-02 -0.83031264202E-02  0.10324478450E+01  0.10323839948E+01 0.  0.
     999903    2    3    3    0    0 -0.11653865234E+00 -0.25935021782E-01 -0.63945527403E-01  0.14330180738E+00  0.46824082272E-01 0.  0.
         14    1    1    2    0    0  0.63453497899E-02 -0.47575741551E-02  0.83031264202E-02  0.11482155031E-01  0.00000000000E+00 0.  1.
     999901    1    3    3    0    0  0.11019330255E+00  0.30692595937E-01  0.55642400983E-01  0.88914603759E+00  0.88000000000E+00 0. -1.
        -11    1    4    4    0    0 -0.47397299834E-01 -0.32150762344E-01 -0.40023995080E-01  0.69873863884E-01  0.51100000000E-03 0.  1.
         11    1    4    4    0    0 -0.69141352503E-01  0.62157405616E-02 -0.23921532323E-01  0.73427943498E-01  0.51100000000E-03 0. -1.
</event>
<event>
 8    1  0.2091070E+004  0.1043930E+01  0.7957747E-01            NaN
         13   -1    0    0    0    0  0.00000000000E+00  0.00000000000E+00  0.74505805969E-08  0.10566000000E+00  0.10566000000E+00 0. -1.
     999900   -1    0    0    0    0 -0.00000000000E+00 -0.00000000000E+00 -0.74505805969E-08  0.93827000000E+00  0.93827000000E+00 0.  1.
     999902    2    1    2    0    0 -0.36647166397E-02  0.62511709969E-02  0.70056648811E-02  0.10338509808E+01  0.10338018495E+01 0.  0.
     999903    2    3    3    0    0  0.11020691624E+00  0.55554426732E-01 -0.56010311942E-01  0.14291407334E+00  0.45336724620E-01 0.  0.
         14    1    1    2    0    0  0.36647166397E-02 -0.62511709969E-02 -0.70056648811E-02  0.10079019164E-01  0.00000000000E+00 0.  1.
     999901    1    3    3    0    0 -0.11387163288E+00 -0.49303255735E-01  0.63015976823E-01  0.89093690749E+00  0.88000000000E+00 0. -1.
        -11    1    4    4    0    0  0.78281648186E-01  0.60524196383E-01 -0.38650300484E-01  0.10623230036E+00  0.51100000000E-03 0.  1.
         11    1    4    4    0    0  0.31925268052E-01 -0.49697696507E-02 -0.17360011458E-01  0.36681772986E-01  0.51100000000E-03 0. -1.
</event>
<event>
 8    1  0.2091070E+004  0.1043930E+01  0.7957747E-01            NaN
         13   -1    0    0    0    0  0.00000000000E+00  0.00000000000E+00  0.74505805969E-08  0.10566000000E+00  0.10566000000E+00 0. -1.
     999900   -1    0    0    0    0 -0.00000000000E+00 -0.00000000000E+00 -0.74505805969E-08  0.93827000000E+00  0.93827000000E+00 0.  1.
     999902    2    1    2    0    0 -0.71114704308E-02 -0.85085471456E-02  0.78196270012E-02  0.10303611035E+01  0.10302717547E+01 0.  0.
     999903    2    3    3    0    0  0.12332451724E+00 -0.35348870274E-01 -0.30510629366E-01  0.13951703274E+00  0.45559024774E-01 0.  0.
         14    1    1    2    0    0  0.71114704308E-02  0.85085471456E-02 -0.78196270012E-02  0.13568896516E-01  0.00000000000E+00 0.  1.
     999901    1    3    3    0    0 -0.13043598767E+00  0.26840323128E-01  0.38330256367E-01  0.89084407074E+00  0.88000000000E+00 0. -1.
        -11    1    4    4    0    0  0.58878688061E-01 -0.36615749383E-01 -0.29162350497E-02  0.69398692772E-01  0.51100000000E-03 0.  1.
         11    1    4    4    0    0  0.64445829179E-01  0.12668791090E-02 -0.27594394317E-01  0.70118339968E-01  0.51100000000E-03 0. -1.
</event>
<event>
 8    1  0.2091070E+004  0.1043930E+01  0.7957747E-01            NaN
         13   -1    0    0    0    0  0.00000000000E+00  0.00000000000E+00  0.74505805969E-08  0.10566000000E+00  0.10566000000E+00 0. -1.
     999900   -1    0    0    0    0 -0.00000000000E+00 -0.00000000000E+00 -0.74505805969E-08  0.93827000000E+00  0.93827000000E+00 0. -1.
     999902    2    1    2    0    0  0.98060926491E-02 -0.27160098344E-02  0.80696878563E-02  0.10309432366E+01  0.10308614364E+01 0.  0.
     999903    2    3    3    0    0  0.14536425080E-01  0.13158552241E+00  0.13507095147E-01  0.14072481224E+00  0.45770883725E-01 0.  0.
         14    1    1    2    0    0 -0.98060926491E-02  0.27160098344E-02 -0.80696878563E-02  0.12986763437E-01  0.00000000000E+00 0.  1.
     999901    1    3    3    0    0 -0.47303324311E-02 -0.13430153225E+00 -0.54374072910E-02  0.89021842432E+00  0.88000000000E+00 0.  1.
        -11    1    4    4    0    0  0.26225027192E-01  0.42125485639E-01  0.86481246585E-02  0.50372212306E-01  0.51100000000E-03 0.  1.
         11    1    4    4    0    0 -0.11688602112E-01  0.89460036776E-01  0.48589704889E-02  0.90352599932E-01  0.51100000000E-03 0. -1.
</event>
<event>
 8    1  0.2091070E+004  0.1043930E+01  0.7957747E-01            NaN
         13   -1    0    0    0    0  0.00000000000E+00  0.00000000000E+00  0.74505805969E-08  0.10566000000E+00  0.10566000000E+00 0. -1.
     999900   -1    0    0    0    0 -0.00000000000E+00 -0.00000000000E+00 -0.74505805969E-08  0.93827000000E+00  0.93827000000E+00 0.  1.
     999902    2    1    2    0    0 -0.26450323156E-02 -0.30493250995E-02  0.93144275582E-02  0.10337784907E+01  0.10337286466E+01 0.  0.
     999903    2    3    3    0    0 -0.11273932913E+00  0.17757740452E-01 -0.74450794065E-01  0.14272837962E+00  0.42461464098E-01 0.  0.
         14    1    1    2    0    0  0.26450323156E-02  0.30493250995E-02 -0.93144275582E-02  0.10151509260E-01  0.00000000000E+00 0.  1.
     999901    1    3    3    0    0  0.11009429682E+00 -0.20807065552E-01  0.83765221623E-01  0.89105011112E+00  0.88000000000E+00 0.  1.
        -11    1    4    4    0    0 -0.34130256443E-01  0.22562503329E-01 -0.38393259728E-01  0.56109219162E-01  0.51100000000E-03 0. -1.
         11    1    4    4    0    0 -0.78609072690E-01 -0.48047628770E-02 -0.36057534337E-01  0.86619160461E-01  0.51100000000E-03 0.  1.
</event>
<event>
 8    1  0.2091070E+004  0.1043930E+01  0.7957747E-01            NaN
         13   -1    0    0    0    0  0.00000000000E+00  0.00000000000E+00  0.74505805969E-08  0.10566000000E+00  0.10566000000E+00 0. -1.
     999900   -1    0    0    0    0 -0.00000000000E+00 -0.00000000000E+00 -0.74505805969E-08  0.93827000000E+00  0.93827000000E+00 0. -1.
     999902    2    1    2    0    0  0.42604109547E-02 -0.81032361732E-02 -0.12492461012E-01  0.10284420976E+01  0.10283254704E+01 0.  0.
     999903    2    3    3    0    0  0.22319099529E-01 -0.10248445194E+00  0.78307603642E-01  0.13856649853E+00  0.45468545513E-01 0.  0.
         14    1    1    2    0    0 -0.42604109547E-02  0.81032361732E-02  0.12492461012E-01  0.15487902380E-01  0.00000000000E+00 0. -1.
     999901    1    3    3    0    0 -0.18058688575E-01  0.94381215772E-01 -0.90800064655E-01  0.88987559910E+00  0.88000000000E+00 0. -1.
        -11    1    4    4    0    0  0.18971948510E-01 -0.42586459411E-01  0.59709327550E-01  0.75756229268E-01  0.51100000000E-03 0.  1.
         11    1    4    4    0    0  0.33471510197E-02 -0.59897992534E-01  0.18598276092E-01  0.62810269257E-01  0.51100000000E-03 0. -1.
</event>
<event>
 8    1  0.2091070E+004  0.1043930E+01  0.7957747E-01            NaN
         13   -1    0    0    0    0  0.00000000000E+00  0.00000000000E+00  0.74505805969E-08  0.10566000000E+00  0.10566000000E+00 0. -1.
     999900   -1    0    0    0    0 -0.00000000000E+00 -0.00000000000E+00 -0.74505805969E-08  0.93827000000E+00  0.93827000000E+00 0.  1.
     999902    2    1    2    0    0 -0.47034181095E-02 -0.69907730927E-02 -0.13322106604E-01  0.10281670189E+01  0.10280461794E+01 0.  0.
     999903    2    3    3    0    0  0.90506280978E-01  0.90660047169E-01  0.19032905128E-01  0.13707363638E+00  0.44903221085E-01 0.  0.
         14    1    1    2    0    0  0.47034181095E-02  0.69907730927E-02  0.13322106604E-01  0.15762981150E-01  0.00000000000E+00 0. -1.
     999901    1    3    3    0    0 -0.95209699087E-01 -0.97650820261E-01 -0.32355011732E-01  0.89109338247E+00  0.88000000000E+00 0. -1.
        -11    1    4    4    0    0  0.43407508810E-01  0.45149328125E-01  0.31956031064E-01  0.70314455794E-01  0.51100000000E-03 0. -1.
         11    1    4    4    0    0  0.47098772168E-01  0.45510719044E-01 -0.12923125936E-01  0.66759180586E-01  0.51100000000E-03 0.  1.
</event>
<event>
 8    1  0.2091070E+004  0.1043930E+01  0.7957747E-01            NaN
         13   -1    0    0    0    0  0.00000000000E+00  0.00000000000E+00  0.74505805969E-08  0.10566000000E+00  0.10566000000E+00 0. -1.
     999900   -1    0    0    0    0 -0.00000000000E+00 -0.00000000000E+00 -0.74505805969E-08  0.93827000000E+00  0.93827000000E+00 0.  1.
     999902    2    1    2    0    0  0.42846332458E-02 -0.12468031341E-01 -0.21481371103E-02  0.10305724411E+01  0.10304858718E+01 0.  0.
     999903    2    3    3    0    0 -0.95696218395E-01 -0.93337877621E-01 -0.74609348961E-02  0.14121068759E+00  0.44889499060E-01 0.  0.
         14    1    1    2    0    0 -0.42846332458E-02  0.12468031341E-01  0.21481371103E-02  0.13357558932E-01  0.00000000000E+00 0. -1.
     999901    1    3    3    0    0  0.99980851641E-01  0.80869846280E-01  0.53127977858E-02  0.88936175348E+00  0.88000000000E+00 0.  1.
        -11    1    4    4    0    0 -0.42926302048E-01 -0.53866524870E-01  0.16947656486E-01  0.70934858077E-01  0.51100000000E-03 0. -1.
         11    1    4    4    0    0 -0.52769916346E-01 -0.39471352751E-01 -0.24408591382E-01  0.70275829511E-01  0.51100000000E-03 0.  1.
</event>
<event>
 8    1  0.2091070E+004  0.1043930E+01  0.7957747E-01            NaN
         13   -1    0    0    0    0  0.00000000000E+00  0.00000000000E+00  0.74505805969E-08  0.10566000000E+00  0.10566000000E+00 0.  1.
     999900   -1    0    0    0    0 -0.00000000000E+00 -0.00000000000E+00 -0.74505805969E-08  0.93827000000E+00  0.93827000000E+00 0. -1.
     999902    2    1    2    0    0 -0.86083312382E-02  0.38172950176E-02  0.98135403686E-02  0.10303292396E+01  0.10302394680E+01 0.  0.
     999903    2    3    3    0    0 -0.12263415861E+00 -0.32698396380E-01  0.43669828490E-01  0.14157644314E+00  0.45039020279E-01 0.  0.
         14    1    1    2    0    0  0.86083312382E-02 -0.38172950176E-02 -0.98135403686E-02  0.13600760366E-01  0.00000000000E+00 0. -1.
     999901    1    3    3    0    0  0.11402582738E+00  0.36515691398E-01 -0.33856288121E-01  0.88875279649E+00  0.88000000000E+00 0.  1.
        -11    1    4    4    0    0 -0.93448375820E-01 -0.38499942659E-01  0.47307999512E-01  0.11159369367E+00  0.51100000000E-03 0. -1.
         11    1    4    4    0    0 -0.29185782794E-01  0.58015462790E-02 -0.36381710220E-02  0.29982749472E-01  0.51100000000E-03 0.  1.
</event>
<event>
 8    1  0.2091070E+004  0.1043930E+01  0.7957747E-01            NaN
         13   -1    0    0    0    0  0.00000000000E+00  0.00000000000E+00  0.74505805969E-08  0.10566000000E+00  0.10566000000E+00 0. -1.
     999900   -1    0    0    0    0 -0.00000000000E+00 -0.00000000000E+00 -0.74505805969E-08  0.93827000000E+00  0.93827000000E+00 0.  1.
     999902    2    1    2    0    0 -0.23097347086E-02 -0.12962831874E-01 -0.40945438672E-02  0.10301410488E+01  0.10300487587E+01 0.  0.
     999903    2    3    3    0    0  0.48437530753E-02  0.87739779008E-01 -0.98204282024E-01  0.13938360091E+00  0.45408990635E-01 0.  0.
         14    1    1    2    0    0  0.23097347086E-02  0.12962831874E-01  0.40945438672E-02  0.13788951161E-01  0.00000000000E+00 0. -1.
     999901    1    3    3    0    0 -0.71534877839E-02 -0.10070261088E+00  0.94109738157E-01  0.89075744793E+00  0.88000000000E+00 0. -1.
        -11    1    4    4    0    0 -0.20029343437E-01  0.37963847988E-01 -0.48527844737E-01  0.64789205801E-01  0.51100000000E-03 0.  1.
         11    1    4    4    0    0  0.24873096513E-01  0.49775931020E-01 -0.49676437287E-01  0.74594395108E-01  0.51100000000E-03 0. -1.
</event>
<event>
 8    1  0.2091070E+004  0.1043930E+01  0.7957747E-01            NaN
         13   -1    0    0    0    0  0.00000000000E+00  0.00000000000E+00  0.74505805969E-08  0.10566000000E+00  0.10566000000E+00 0. -1.
     999900   -1    0    0    0    0 -0.00000000000E+00 -0.00000000000E+00 -0.74505805969E-08  0.93827000000E+00  0.93827000000E+00 0.  1.
     999902    2    1    2    0    0  0.12466229674E-01 -0.50109242089E-03  0.59152648075E-02  0.10301224537E+01  0.10300299129E+01 0.  0.
     999903    2    3    3    0    0 -0.80147246558E-01 -0.10139752279E+00 -0.24194113548E-01  0.13901981077E+00  0.45123318782E-01 0.  0.
         14    1    1    2    0    0 -0.12466229674E-01  0.50109242089E-03 -0.59152648075E-02  0.13807546258E-01  0.00000000000E+00 0.  1.
     999901    1    3    3    0    0  0.92613476233E-01  0.10089643037E+00  0.30109378356E-01  0.89110264297E+00  0.88000000000E+00 0.  1.
        -11    1    4    4    0    0 -0.16260298525E-01  0.54641606354E-04 -0.76960384796E-02  0.17996955940E-01  0.51100000000E-03 0. -1.
         11    1    4    4    0    0 -0.63886948034E-01 -0.10145216440E+00 -0.16498075069E-01  0.12102285483E+00  0.51100000000E-03 0.  1.
</event>
<event>
 8    1  0.2091070E+004  0.1043930E+01  0.7957747E-01            NaN
         13   -1    0    0    0    0  0.00000000000E+00  0.00000000000E+00  0.74505805969E-08  0.10566000000E+00  0.10566000000E+00 0. -1.
     999900   -1    0    0    0    0 -0.00000000000E+00 -0.00000000000E+00 -0.74505805969E-08  0.93827000000E+00  0.93827000000E+00 0.  1.
     999902    2    1    2    0    0 -0.50074166397E-02 -0.10407632284E-01 -0.74041577246E-02  0.10302108680E+01  0.10301195164E+01 0.  0.
     999903    2    3    3    0    0 -0.31254317374E-01 -0.54208756957E-01 -0.11815049806E+00  0.14180094560E+00  0.47249828542E-01 0.  0.
         14    1    1    2    0    0  0.50074166397E-02  0.10407632284E-01  0.74041577246E-02  0.13719131998E-01  0.00000000000E+00 0.  1.
     999901    1    3    3    0    0  0.26246900735E-01  0.43801124673E-01  0.11074634033E+00  0.88840992240E+00  0.88000000000E+00 0. -1.
        -11    1    4    4    0    0 -0.94898761904E-03 -0.17022702150E-01 -0.76158303518E-01  0.78044995238E-01  0.51100000000E-03 0.  1.
         11    1    4    4    0    0 -0.30305329755E-01 -0.37186054806E-01 -0.41992194540E-01  0.63755950365E-01  0.51100000000E-03 0. -1.
</event>
<event>
 8    1  0.2091070E+004  0.1043930E+01  0.7957747E-01            NaN
         13   -1    0    0    0    0  0.00000000000E+00  0.00000000000E+00  0.74505805969E-08  0.10566000000E+00  0.10566000000E+00 0.  1.
     999900   -1    0    0    0    0 -0.00000000000E+00 -0.00000000000E+00 -0.74505805969E-08  0.93827000000E+00  0.93827000000E+00 0. -1.
     999902    2    1    2    0    0 -0.15405554983E-01  0.10490429605E-04  0.13926770705E-01  0.10231625693E+01  0.10229517863E+01 0.  0.
     999903    2    3    3    0    0  0.95783467429E-01  0.78013911769E-01 -0.14704808915E-01  0.13228249895E+00  0.44964264271E-01 0.  0.
         14    1    1    2    0    0  0.15405554983E-01 -0.10490429605E-04 -0.13926770705E-01  0.20767430670E-01  0.00000000000E+00 0. -1.
     999901    1    3    3    0    0 -0.11118902241E+00 -0.78003421339E-01  0.28631579619E-01  0.89088007038E+00  0.88000000000E+00 0.  1.
        -11    1    4    4    0    0  0.46009023299E-01  0.42634865353E-01 -0.29693060019E-01  0.69401015143E-01  0.51100000000E-03 0. -1.
         11    1    4    4    0    0  0.49774444130E-01  0.35379046416E-01  0.14988251105E-01  0.62881483809E-01  0.51100000000E-03 0.  1.
</event>
<event>
 8    1  0.2091070E+004  0.1043930E+01  0.7957747E-01            NaN
         13   -1    0    0    0    0  0.00000000000E+00  0.00000000000E+00  0.74505805969E-08  0.10566000000E+00  0.10566000000E+00 0. -1.
     999900   -1    0    0    0    0 -0.00000000000E+00 -0.00000000000E+00 -0.74505805969E-08  0.93827000000E+00  0.93827000000E+00 0.  1.
     999902    2    1    2    0    0 -0.10774245073E-01 -0.55213413737E-02 -0.86076400830E-02  0.10290753362E+01  0.10289681174E+01 0.  0.
     999903    2    3    3    0    0  0.54271267463E-01 -0.61909863122E-01  0.10099586932E+00  0.13810759645E+00  0.45774894350E-01 0.  0.
         14    1    1    2    0    0  0.10774245073E-01  0.55213413737E-02  0.86076400830E-02  0.14854663755E-01  0.00000000000E+00 0. -1.
     999901    1    3    3    0    0 -0.65045512536E-01  0.56388521748E-01 -0.10960350940E+00  0.89096773980E+00  0.88000000000E+00 0.  1.
        -11    1    4    4    0    0 -0.71613248798E-03 -0.31205971172E-01  0.33578819938E-01  0.45848923127E-01  0.51100000000E-03 0. -1.
         11    1    4    4    0    0  0.54987399951E-01 -0.30703891950E-01  0.67417049384E-01  0.92258673321E-01  0.51100000000E-03 0.  1.
</event>
<event>
 8    1  0.2091070E+004  0.1043930E+01  0.7957747E-01            NaN
         13   -1    0    0    0    0  0.00000000000E+00  0.00000000000E+00  0.74505805969E-08  0.10566000000E+00  0.10566000000E+00 0. -1.
     999900   -1    0    0    0    0 -0.00000000000E+00 -0.00000000000E+00 -0.74505805969E-08  0.93827000000E+00  0.93827000000E+00 0.  1.
     999902    2    1    2    0    0 -0.33930576371E-02  0.35166279791E-02 -0.12919272949E-01  0.10301174287E+01  0.10300248200E+01 0.  0.
     999903    2    3    3    0    0 -0.36027553659E-01 -0.23914336369E-01  0.12391174759E+00  0.13852324056E+00  0.44324788535E-01 0.  0.
         14    1    1    2    0    0  0.33930576371E-02 -0.35166279791E-02  0.12919272949E-01  0.13812571303E-01  0.00000000000E+00 0. -1.
     999901    1    3    3    0    0  0.32634496022E-01  0.27430964348E-01 -0.13683102054E+00  0.89159418814E+00  0.88000000000E+00 0.  1.
        -11    1    4    4    0    0 -0.13778370374E-01  0.10530683979E-01  0.18241425267E-01  0.25174382058E-01  0.51100000000E-03 0.  1.
         11    1    4    4    0    0 -0.22249183286E-01 -0.34445020348E-01  0.10567032232E+00  0.11334885850E+00  0.51100000000E-03 0. -1.
</event>
<event>
 8    1  0.2091070E+004  0.1043930E+01  0.7957747E-01            NaN
         13   -1    0    0    0    0  0.00000000000E+00  0.00000000000E+00  0.74505805969E-08  0.10566000000E+00  0.10566000000E+00 0. -1.
     999900   -1    0    0    0    0 -0.00000000000E+00 -0.00000000000E+00 -0.74505805969E-08  0.93827000000E+00  0.93827000000E+00 0.  1.
     999902    2    1    2    0    0  0.51634777053E-02 -0.11539284784E-01  0.50024941321E-02  0.10303343557E+01  0.10302446520E+01 0.  0.
     999903    2    3    3    0    0 -0.34661719074E-01 -0.20508940466E-01 -0.12633313061E+00  0.13965172576E+00  0.43823432205E-01 0.  0.
         14    1    1    2    0    0 -0.51634777053E-02  0.11539284784E-01 -0.50024941321E-02  0.13595644261E-01  0.00000000000E+00 0.  1.
     999901    1    3    3    0    0  0.39825196780E-01  0.89696556824E-02  0.13133562474E+00  0.89068262998E+00  0.88000000000E+00 0. -1.
        -11    1    4    4    0    0 -0.80892693677E-02 -0.79898328682E-02 -0.15852476681E-02  0.11491207044E-01  0.51100000000E-03 0.  1.
         11    1    4    4    0    0 -0.26572449707E-01 -0.12519107598E-01 -0.12474788294E+00  0.12816051872E+00  0.51100000000E-03 0. -1.
</event>
<event>
 8    1  0.2091070E+004  0.1043930E+01  0.7957747E-01            NaN
         13   -1    0    0    0    0  0.00000000000E+00  0.00000000000E+00  0.74505805969E-08  0.10566000000E+00  0.10566000000E+00 0. -1.
     999900   -1    0    0    0    0 -0.00000000000E+00 -0.00000000000E+00 -0.74505805969E-08  0.93827000000E+00  0.93827000000E+00 0. -1.
     999902    2    1    2    0    0 -0.40986784170E-02  0.95422717588E-02 -0.92246191002E-02  0.10300394380E+01  0.10299457734E+01 0.  0.
     999903    2    3    3    0    0  0.28911682796E-02  0.64903378588E-01 -0.11753299651E+00  0.14164514788E+00  0.45039263347E-01 0.  0.
         14    1    1    2    0    0  0.40986784170E-02 -0.95422717588E-02  0.92246191002E-02  0.13890561998E-01  0.00000000000E+00 0. -1.
     999901    1    3    3    0    0 -0.69898466966E-02 -0.55361106830E-01  0.10830837741E+00  0.88839429012E+00  0.88000000000E+00 0.  1.
        -11    1    4    4    0    0 -0.16036861884E-01  0.91700309785E-02 -0.41992972322E-01  0.45879638759E-01  0.51100000000E-03 0.  1.
         11    1    4    4    0    0  0.18928030164E-01  0.55733347610E-01 -0.75540024187E-01  0.95765509119E-01  0.51100000000E-03 0. -1.
</event>
<event>
 8    1  0.2091070E+004  0.1043930E+01  0.7957747E-01            NaN
         13   -1    0    0    0    0  0.00000000000E+00  0.00000000000E+00  0.74505805969E-08  0.10566000000E+00  0.10566000000E+00 0.  1.
     999900   -1    0    0    0    0 -0.00000000000E+00 -0.00000000000E+00 -0.74505805969E-08  0.93827000000E+00  0.93827000000E+00 0. -1.
     999902    2    1    2    0    0  0.59927064984E-02 -0.71530265299E-02  0.10821133846E-01  0.10296410092E+01  0.10295418557E+01 0.  0.
     999903    2    3    3    0    0  0.28077866346E-01 -0.12991968882E+00  0.75229643316E-02  0.14083828332E+00  0.45949264783E-01 0.  0.
         14    1    1    2    0    0 -0.59927064984E-02  0.71530265299E-02 -0.10821133846E-01  0.14288990777E-01  0.00000000000E+00 0. -1.
     999901    1    3    3    0    0 -0.22085159848E-01  0.12276666229E+00  0.32981695140E-02  0.88880272591E+00  0.88000000000E+00 0.  1.
        -11    1    4    4    0    0  0.10248274148E-01 -0.19031898227E-01  0.17868383160E-01  0.28049608034E-01  0.51100000000E-03 0.  1.
         11    1    4    4    0    0  0.17829592198E-01 -0.11088779059E+00 -0.10345418829E-01  0.11278867528E+00  0.51100000000E-03 0. -1.
</event>
<event>
 8    1  0.2091070E+004  0.1043930E+01  0.7957747E-01            NaN
         13   -1    0    0    0    0  0.00000000000E+00  0.00000000000E+00  0.74505805969E-08  0.10566000000E+00  0.10566000000E+00 0. -1.
     999900   -1    0    0    0    0 -0.00000000000E+00 -0.00000000000E+00 -0.74505805969E-08  0.93827000000E+00  0.93827000000E+00 0.  1.
     999902    2    1    2    0    0 -0.11727525343E-02  0.18300596721E-03 -0.13920519986E-01  0.10299589687E+01  0.10298642082E+01 0.  0.
     999903    2    3    3    0    0 -0.22653124589E-01  0.13019911321E+00 -0.10059261551E-01  0.14013847900E+00  0.45526161930E-01 0.  0.
         14    1    1    2    0    0  0.11727525343E-02 -0.18300596721E-03  0.13920519986E-01  0.13971031328E-01  0.00000000000E+00 0. -1.
     999901    1    3    3    0    0  0.21480372055E-01 -0.13001610724E+00 -0.38612584345E-02  0.88982048967E+00  0.88000000000E+00 0.  1.
        -11    1    4    4    0    0  0.39169300962E-02  0.97225496460E-01 -0.43177669083E-02  0.97401456536E-01  0.51100000000E-03 0.  1.
         11    1    4    4    0    0 -0.26570054685E-01  0.32973616746E-01 -0.57414946428E-02  0.42737022463E-01  0.51100000000E-03 0. -1.
</event>
<event>
 8    1  0.2091070E+004  0.1043930E+01  0.7957747E-01            NaN
         13   -1    0    0    0    0  0.00000000000E+00  0.00000000000E+00  0.74505805969E-08  0.10566000000E+00  0.10566000000E+00 0. -1.
     999900   -1    0    0    0    0 -0.00000000000E+00 -0.00000000000E+00 -0.74505805969E-08  0.93827000000E+00  0.93827000000E+00 0.  1.
     999902    2    1    2    0    0 -0.11307053696E-01 -0.27433313216E-02  0.10727303205E-01  0.10281043763E+01  0.10279825671E+01 0.  0.
     999903    2    3    3    0    0  0.92204649933E-01  0.79909537300E-01  0.44513583472E-01  0.13754967156E+00  0.45290411923E-01 0.  0.
         14    1    1    2    0    0  0.11307053696E-01  0.27433313216E-02 -0.10727303205E-01  0.15825623655E-01  0.00000000000E+00 0.  1.
     999901    1    3    3    0    0 -0.10351170363E+00 -0.82652868621E-01 -0.33786280267E-01  0.89055470478E+00  0.88000000000E+00 0.  1.
        -11    1    4    4    0    0  0.42872947765E-02  0.26630363258E-01  0.13521382990E-01  0.30176912743E-01  0.51100000000E-03 0. -1.
         11    1    4    4    0    0  0.87917355156E-01  0.53279174041E-01  0.30992200483E-01  0.10737275882E+00  0.51100000000E-03 0.  1.
</event>
<event>
 8    1  0.2091070E+004  0.1043930E+01  0.7957747E-01            NaN
         13   -1    0    0    0    0  0.00000000000E+00  0.00000000000E+00  0.74505805969E-08  0.10566000000E+00  0.10566000000E+00 0. -1.
     999900   -1    0    0    0    0 -0.00000000000E+00 -0.00000000000E+00 -0.74505805969E-08  0.93827000000E+00  0.93827000000E+00 0. -1.
     999902    2    1    2    0    0  0.73671856527E-02 -0.86165277483E-02  0.71086271718E-02  0.10305489479E+01  0.10304620718E+01 0.  0.
     999903    2    3    3    0    0  0.70938567542E-01 -0.87820294377E-01 -0.71599037620E-01  0.14121804563E+00  0.45512962489E-01 0.  0.
         14    1    1    2    0    0 -0.73671856527E-02  0.86165277483E-02 -0.71086271718E-02  0.13381052094E-01  0.00000000000E+00 0.  1.
     999901    1    3    3    0    0 -0.63571381889E-01  0.79203766628E-01  0.78707664792E-01  0.88933090227E+00  0.88000000000E+00 0. -1.
        -11    1    4    4    0    0  0.47171199607E-01 -0.72930297580E-01 -0.31734086144E-01  0.92473043218E-01  0.51100000000E-03 0.  1.
         11    1    4    4    0    0  0.23767367935E-01 -0.14889996796E-01 -0.39864951476E-01  0.48745002414E-01  0.51100000000E-03 0. -1.
</event>
<event>
 8    1  0.2091070E+004  0.1043930E+01  0.7957747E-01            NaN
         13   -1    0    0    0    0  0.00000000000E+00  0.00000000000E+00  0.74505805969E-08  0.10566000000E+00  0.10566000000E+00 0. -1.
     999900   -1    0    0    0    0 -0.00000000000E+00 -0.00000000000E+00 -0.74505805969E-08  0.93827000000E+00  0.93827000000E+00 0.  1.
     999902    2    1    2    0    0 -0.60589640294E-02  0.12717302730E-01  0.22330701484E-02  0.10296672010E+01  0.10295684131E+01 0.  0.
     999903    2    3    3    0    0 -0.76939916024E-01  0.10482379339E+00 -0.26759022486E-01  0.14155219918E+00  0.49124347006E-01 0.  0.
         14    1    1    2    0    0  0.60589640294E-02 -0.12717302730E-01 -0.22330701484E-02  0.14262799028E-01  0.00000000000E+00 0. -1.
     999901    1    3    3    0    0  0.70880951995E-01 -0.92106490661E-01  0.28992092635E-01  0.88811500179E+00  0.88000000000E+00 0. -1.
        -11    1    4    4    0    0 -0.22633104167E-01  0.13465156472E-01 -0.23374139377E-01  0.35216180310E-01  0.51100000000E-03 0.  1.
         11    1    4    4    0    0 -0.54306811858E-01  0.91358636919E-01 -0.33848831097E-02  0.10633601887E+00  0.51100000000E-03 0. -1.
</event>
<event>
 8    1  0.2091070E+004  0.1043930E+01  0.7957747E-01            NaN
         13   -1    0    0    0    0  0.00000000000E+00  0.00000000000E+00  0.74505805969E-08  0.10566000000E+00  0.10566000000E+00 0. -1.
     999900   -1    0    0    0    0 -0.00000000000E+00 -0.00000000000E+00 -0.74505805969E-08  0.93827000000E+00  0.93827000000E+00 0.  1.
     999902    2    1    2    0    0 -0.83105853905E-02  0.23647867473E-02 -0.88866496860E-02  0.10315352193E+01  0.10314607497E+01 0.  0.
     999903    2    3    3    0    0 -0.65066141244E-01  0.32558801541E-01 -0.11435390745E+00  0.14290919329E+00  0.45305000648E-01 0.  0.
         14    1    1    2    0    0  0.83105853905E-02 -0.23647867473E-02  0.88866496860E-02  0.12394780697E-01  0.00000000000E+00 0. -1.
     999901    1    3    3    0    0  0.56755555854E-01 -0.30194014793E-01  0.10546725776E+00  0.88862602601E+00  0.88000000000E+00 0.  1.
        -11    1    4    4    0    0 -0.30604826125E-02  0.73966704642E-02 -0.48017338653E-01  0.48682678851E-01  0.51100000000E-03 0. -1.
         11    1    4    4    0    0 -0.62005658632E-01  0.25162131076E-01 -0.66336568794E-01  0.94226514438E-01  0.51100000000E-03 0.  1.
</event>
<event>
 8    1  0.2091070E+004  0.1043930E+01  0.7957747E-01            NaN
         13   -1    0    0    0    0  0.00000000000E+00  0.00000000000E+00  0.74505805969E-08  0.10566000000E+00  0.10566000000E+00 0. -1.
     999900   -1    0    0    0    0 -0.00000000000E+00 -0.00000000000E+00 -0.74505805969E-08  0.93827000000E+00  0.93827000000E+00 0.  1.
     999902    2    1    2    0    0  0.24822249098E-02  0.97031955657E-02  0.11439069329E-01  0.10287258640E+01  0.10286135025E+01 0.  0.
     999903    2    3    3    0    0 -0.96462364989E-01  0.26099818091E-01 -0.83900107988E-01  0.13791250541E+00  0.44659183414E-01 0.  0.
         14    1    1    2    0    0 -0.24822249098E-02 -0.97031955657E-02 -0.11439069329E-01  0.15204136010E-01  0.00000000000E+00 0.  1.
     999901    1    3    3    0    0  0.98944589899E-01 -0.16396622525E-01  0.95339177317E-01  0.89081335858E+00  0.88000000000E+00 0.  1.
        -11    1    4    4    0    0 -0.57784314587E-01  0.15156994070E-01 -0.21119408411E-01  0.63364438088E-01  0.51100000000E-03 0. -1.
         11    1    4    4    0    0 -0.38678050402E-01  0.10942824021E-01 -0.62780699577E-01  0.74548067318E-01  0.51100000000E-03 0.  1.
</event>
<event>
 8    1  0.2091070E+004  0.1043930E+01  0.7957747E-01            NaN
         13   -1    0    0    0    0  0.00000000000E+00  0.00000000000E+00  0.74505805969E-08  0.10566000000E+00  0.10566000000E+00 0.  1.
     999900   -1    0    0    0    0 -0.00000000000E+00 -0.00000000000E+00 -0.74505805969E-08  0.93827000000E+00  0.93827000000E+00 0.  1.
     999902    2    1    2    0    0  0.25063701383E-02 -0.11672762361E-01 -0.72331635840E-02  0.10299709912E+01  0.10298763949E+01 0.  0.
     999903    2    3    3    0    0 -0.10030330331E+00  0.74588886246E-01  0.38090749897E-01  0.13864324105E+00  0.46333448574E-01 0.  0.
         14    1    1    2    0    0 -0.25063701383E-02  0.11672762361E-01  0.72331635840E-02  0.13959008841E-01  0.00000000000E+00 0. -1.
     999901    1    3    3    0    0  0.10280967344E+00 -0.86261648606E-01 -0.45323913481E-01  0.89132775010E+00  0.88000000000E+00 0.  1.
        -11    1    4    4    0    0 -0.29389466682E-01  0.43983249517E-01  0.30423198120E-01  0.61025397129E-01  0.51100000000E-03 0.  1.
         11    1    4    4    0    0 -0.70913836624E-01  0.30605636729E-01  0.76675517769E-02  0.77617843925E-01  0.51100000000E-03 0. -1.
</event>
<event>
 8    1  0.2091070E+004  0.1043930E+01  0.7957747E-01            NaN
         13   -1    0    0    0    0  0.00000000000E+00  0.00000000000E+00  0.74505805969E-08  0.10566000000E+00  0.10566000000E+00 0. -1.
     999900   -1    0    0    0    0 -0.00000000000E+00 -0.00000000000E+00 -0.74505805969E-08  0.93827000000E+00  0.93827000000E+00 0. -1.
     999902    2    1    2    0    0  0.11964305293E-01 -0.67458866777E-02  0.56397081686E-02  0.10290821754E+01  0.10289750559E+01 0.  0.
     999903    2    3    3    0    0 -0.40749022528E-01 -0.35886136939E-01 -0.11893402479E+00  0.13826992575E+00  0.44999693920E-01 0.  0.
         14    1    1    2    0    0 -0.11964305293E-01  0.67458866777E-02 -0.56397081686E-02  0.14847824637E-01  0.00000000000E+00 0.  1.
     999901    1    3    3    0    0  0.52713327820E-01  0.29140250262E-01  0.12457373296E+00  0.89081224961E+00  0.88000000000E+00 0.  1.
        -11    1    4    4    0    0 -0.11293858406E-01 -0.39208762990E-01 -0.65851013947E-01  0.77469319680E-01  0.51100000000E-03 0.  1.
         11    1    4    4    0    0 -0.29455164122E-01  0.33226260509E-02 -0.53083010844E-01  0.60800606071E-01  0.51100000000E-03 0. -1.
</event>
<event>
 8    1  0.2091070E+004  0.1043930E+01  0.7957747E-01            NaN
         13   -1    0    0    0    0  0.00000000000E+00  0.00000000000E+00  0.74505805969E-08  0.10566000000E+00  0.10566000000E+00 0. -1.
     999900   -1    0    0    0    0 -0.00000000000E+00 -0.00000000000E+00 -0.74505805969E-08  0.93827000000E+00  0.93827000000E+00 0. -1.
     999902    2    1    2    0    0  0.73518127862E-02  0.11651963798E-01  0.75115254294E-03  0.10301321146E+01  0.10300397040E+01 0.  0.
     999903    2    3    3    0    0 -0.12028633422E+00  0.25428027455E-01 -0.47726079511E-01  0.13949676916E+00  0.45455287496E-01 0.  0.
         14    1    1    2    0    0 -0.73518127862E-02 -0.11651963798E-01 -0.75115254294E-03  0.13797885408E-01  0.00000000000E+00 0. -1.
     999901    1    3    3    0    0  0.12763814700E+00 -0.13776063657E-01  0.48477232054E-01  0.89063534543E+00  0.88000000000E+00 0.  1.
        -11    1    4    4    0    0 -0.41562488946E-01  0.25771224888E-01 -0.34047534095E-01  0.59591041429E-01  0.51100000000E-03 0. -1.
         11    1    4    4    0    0 -0.78723845273E-01 -0.34319743343E-03 -0.13678545416E-01  0.79905727734E-01  0.51100000000E-03 0.  1.
</event>
<event>
 8    1  0.2091070E+004  0.1043930E+01  0.7957747E-01            NaN
         13   -1    0    0    0    0  0.00000000000E+00  0.00000000000E+00  0.74505805969E-08  0.10566000000E+00  0.10566000000E+00 0. -1.
     999900   -1    0    0    0    0 -0.00000000000E+00 -0.00000000000E+00 -0.74505805969E-08  0.93827000000E+00  0.93827000000E+00 0. -1.
     999902    2    1    2    0    0  0.69647457967E-02 -0.11635489367E-01  0.35002741572E-02  0.10299248504E+01  0.10298296234E+01 0.  0.
     999903    2    3    3    0    0  0.16043831608E-01  0.12953962223E+00 -0.74872175269E-02  0.13855872644E+00  0.45875309091E-01 0.  0.
         14    1    1    2    0    0 -0.69647457967E-02  0.11635489367E-01 -0.35002741572E-02  0.14005149624E-01  0.00000000000E+00 0.  1.
     999901    1    3    3    0    0 -0.90790858114E-02 -0.14117511160E+00  0.10987491684E-01  0.89136612394E+00  0.88000000000E+00 0.  1.
        -11    1    4    4    0    0  0.27218900944E-01  0.86813491543E-01 -0.18938256011E-01  0.92932069514E-01  0.51100000000E-03 0.  1.
         11    1    4    4    0    0 -0.11175069336E-01  0.42726130691E-01  0.11451038485E-01  0.45626656922E-01  0.51100000000E-03 0. -1.
</event>
<event>
 8    1  0.2091070E+004  0.1043930E+01  0.7957747E-01            NaN
         13   -1    0    0    0    0  0.00000000000E+00  0.00000000000E+00  0.74505805969E-08  0.10566000000E+00  0.10566000000E+00 0. -1.
     999900   -1    0    0    0    0 -0.00000000000E+00 -0.00000000000E+00 -0.74505805969E-08  0.93827000000E+00  0.93827000000E+00 0.  1.
     999902    2    1    2    0    0  0.87941605284E-02  0.79578631638E-02  0.99091222219E-02  0.10284750478E+01  0.10283589200E+01 0.  0.
     999903    2    3    3    0    0 -0.98873872738E-01 -0.48476970812E-01 -0.67350241328E-01  0.13676528269E+00  0.45195443706E-01 0.  0.
         14    1    1    2    0    0 -0.87941605284E-02 -0.79578631638E-02 -0.99091222219E-02  0.15454952240E-01  0.00000000000E+00 0.  1.
     999901    1    3    3    0    0  0.10766803327E+00  0.56434833976E-01  0.77259363550E-01  0.89170976507E+00  0.88000000000E+00 0. -1.
        -11    1    4    4    0    0 -0.46397091671E-01 -0.15460560672E-02 -0.14188609793E-01  0.48545423819E-01  0.51100000000E-03 0.  1.
         11    1    4    4    0    0 -0.52476781066E-01 -0.46930914745E-01 -0.53161631536E-01  0.88219858866E-01  0.51100000000E-03 0. -1.
</event>
<event>
 8    1  0.2091070E+004  0.1043930E+01  0.7957747E-01            NaN
         13   -1    0    0    0    0  0.00000000000E+00  0.00000000000E+00  0.74505805969E-08  0.10566000000E+00  0.10566000000E+00 0. -1.
     999900   -1    0    0    0    0 -0.00000000000E+00 -0.00000000000E+00 -0.74505805969E-08  0.93827000000E+00  0.93827000000E+00 0. -1.
     999902    2    1    2    0    0  0.14489823467E-01 -0.44139815489E-03  0.17838247717E-01  0.10209440717E+01  0.10206852819E+01 0.  0.
     999903    2    3    3    0    0 -0.35156023166E-01  0.98749837894E-01  0.67589443000E-01  0.13258671525E+00  0.44982527790E-01 0.  0.
         14    1    1    2    0    0 -0.14489823467E-01  0.44139815489E-03 -0.17838247717E-01  0.22985928262E-01  0.00000000000E+00 0.  1.
     999901    1    3    3    0    0  0.49645846633E-01 -0.99191236049E-01 -0.49751195283E-01  0.88835735649E+00  0.88000000000E+00 0.  1.
        -11    1    4    4    0    0  0.12757273989E-02  0.56423177758E-01  0.45622186784E-01  0.72573049521E-01  0.51100000000E-03 0. -1.
         11    1    4    4    0    0 -0.36431750565E-01  0.42326660136E-01  0.21967256216E-01  0.60013665728E-01  0.51100000000E-03 0.  1.
</event>
<event>
 8    1  0.2091070E+004  0.1043930E+01  0.7957747E-01            NaN
         13   -1    0    0    0    0  0.00000000000E+00  0.00000000000E+00  0.74505805969E-08  0.10566000000E+00  0.10566000000E+00 0. -1.
     999900   -1    0    0    0    0 -0.00000000000E+00 -0.00000000000E+00 -0.74505805969E-08  0.93827000000E+00  0.93827000000E+00 0.  1.
     999902    2    1    2    0    0 -0.35181284150E-02  0.87025279801E-02 -0.10050334468E-01  0.10301778931E+01  0.10300860988E+01 0.  0.
     999903    2    3    3    0    0 -0.16690795386E-01  0.13174100482E+00 -0.11444962863E-01  0.14151939238E+00  0.47565494257E-01 0.  0.
         14    1    1    2    0    0  0.35181284150E-02 -0.87025279801E-02  0.10050334468E-01  0.13752106883E-01  0.00000000000E+00 0. -1.
     999901    1    3    3    0    0  0.13172666971E-01 -0.12303847684E+00  0.13946283950E-02  0.88865850073E+00  0.88000000000E+00 0. -1.
        -11    1    4    4    0    0  0.29455394472E-02  0.11510623881E+00 -0.66549087875E-02  0.11533720712E+00  0.51100000000E-03 0. -1.
         11    1    4    4    0    0 -0.19636334833E-01  0.16634766015E-01 -0.47900540758E-02  0.26182185262E-01  0.51100000000E-03 0.  1.
</event>
<event>
 8    1  0.2091070E+004  0.1043930E+01  0.7957747E-01            NaN
         13   -1    0    0    0    0  0.00000000000E+00  0.00000000000E+00  0.74505805969E-08  0.10566000000E+00  0.10566000000E+00 0.  1.
     999900   -1    0    0    0    0 -0.00000000000E+00 -0.00000000000E+00 -0.74505805969E-08  0.93827000000E+00  0.93827000000E+00 0. -1.
     999902    2    1    2    0    0 -0.88714703457E-02  0.69607842864E-02  0.58234923393E-02  0.10312387208E+01  0.10311606232E+01 0.  0.
     999903    2    3    3    0    0 -0.68070490869E-01 -0.11528471937E+00  0.63406545312E-02  0.14081817151E+00  0.43190222049E-01 0.  0.
         14    1    1    2    0    0  0.88714703457E-02 -0.69607842864E-02 -0.58234923393E-02  0.12691279171E-01  0.00000000000E+00 0.  1.
     999901    1    3    3    0    0  0.59199020523E-01  0.12224550365E+00 -0.51716219184E-03  0.89042054932E+00  0.88000000000E+00 0.  1.
        -11    1    4    4    0    0 -0.33801852229E-01 -0.73305706545E-01 -0.15835594270E-01  0.82263716140E-01  0.51100000000E-03 0.  1.
         11    1    4    4    0    0 -0.34268638640E-01 -0.41979012821E-01  0.22176248801E-01  0.58554455369E-01  0.51100000000E-03 0. -1.
</event>
<event>
 8    1  0.2091070E+004  0.1043930E+01  0.7957747E-01            NaN
         13   -1    0    0    0    0  0.00000000000E+00  0.00000000000E+00  0.74505805969E-08  0.10566000000E+00  0.10566000000E+00 0. -1.
     999900   -1    0    0    0    0 -0.00000000000E+00 -0.00000000000E+00 -0.74505805969E-08  0.93827000000E+00  0.93827000000E+00 0.  1.
     999902    2    1    2    0    0  0.10829833425E-01  0.43580994358E-02  0.66272767518E-02  0.10305061734E+01  0.10304187374E+01 0.  0.
     999903    2    3    3    0    0  0.13158440862E+00  0.28138650115E-01 -0.48603724968E-02  0.14186724332E+00  0.44681666091E-01 0.  0.
         14    1    1    2    0    0 -0.10829833425E-01 -0.43580994358E-02 -0.66272767518E-02  0.13423826572E-01  0.00000000000E+00 0.  1.
     999901    1    3    3    0    0 -0.12075457519E+00 -0.23780550679E-01  0.11487649249E-01  0.88863893011E+00  0.88000000000E+00 0. -1.
        -11    1    4    4    0    0  0.53237982802E-01  0.34036306661E-01 -0.34615295711E-02  0.63285040033E-01  0.51100000000E-03 0. -1.
         11    1    4    4    0    0  0.78346425815E-01 -0.58976565465E-02 -0.13988429257E-02  0.78582203285E-01  0.51100000000E-03 0.  1.
</event>
<event>
 8    1  0.2091070E+004  0.1043930E+01  0.7957747E-01            NaN
         13   -1    0    0    0    0  0.00000000000E+00  0.00000000000E+00  0.74505805969E-08  0.10566000000E+00  0.10566000000E+00 0. -1.
     999900   -1    0    0    0    0 -0.00000000000E+00 -0.00000000000E+00 -0.74505805969E-08  0.93827000000E+00  0.93827000000E+00 0. -1.
     999902    2    1    2    0    0 -0.97832005243E-02  0.62032658747E-02  0.82164073951E-02  0.10297278568E+01  0.10296299133E+01 0.  0.
     999903    2    3    3    0    0  0.66090741997E-01 -0.69260332227E-01 -0.88985567468E-01  0.13793200928E+00  0.44066179431E-01 0.  0.
         14    1    1    2    0    0  0.97832005243E-02 -0.62032658747E-02 -0.82164073951E-02  0.14202143165E-01  0.00000000000E+00 0.  1.
     999901    1    3    3    0    0 -0.75873942521E-01  0.75463598101E-01  0.97201974863E-01  0.89179584755E+00  0.88000000000E+00 0. -1.
        -11    1    4    4    0    0  0.34081898839E-01 -0.64499901748E-01 -0.63958146022E-01  0.97019166753E-01  0.51100000000E-03 0.  1.
         11    1    4    4    0    0  0.32008843158E-01 -0.47604304781E-02 -0.25027421446E-01  0.40912842530E-01  0.51100000000E-03 0. -1.
</event>
<event>
 8    1  0.2091070E+004  0.1043930E+01  0.7957747E-01            NaN
         13   -1    0    0    0    0  0.00000000000E+00  0.00000000000E+00  0.74505805969E-08  0.10566000000E+00  0.10566000000E+00 0.  1.
     999900   -1    0    0    0    0 -0.00000000000E+00 -0.00000000000E+00 -0.74505805969E-08  0.93827000000E+00  0.93827000000E+00 0.  1.
     999902    2    1    2    0    0  0.10468483367E-01  0.39055386288E-02 -0.84082872408E-02  0.10299463785E+01  0.10298514460E+01 0.  0.
     999903    2    3    3    0    0  0.34911707168E-01 -0.10657108894E+00  0.71818355388E-01  0.13908226393E+00  0.40122009859E-01 0.  0.
         14    1    1    2    0    0 -0.10468483367E-01 -0.39055386288E-02  0.84082872408E-02  0.13983621502E-01  0.00000000000E+00 0.  1.
     999901    1    3    3    0    0 -0.24443223801E-01  0.11047662757E+00 -0.80226642629E-01  0.89086411456E+00  0.88000000000E+00 0.  1.
        -11    1    4    4    0    0 -0.17275522983E-02 -0.50870897563E-01  0.20203689938E-01  0.54765708833E-01  0.51100000000E-03 0.  1.
         11    1    4    4    0    0  0.36639259467E-01 -0.55700191378E-01  0.51614665449E-01  0.84316555102E-01  0.51100000000E-03 0. -1.
</event>
<event>
 8    1  0.2091070E+004  0.1043930E+01  0.7957747E-01            NaN
         13   -1    0    0    0    0  0.00000000000E+00  0.00000000000E+00  0.74505805969E-08  0.10566000000E+00  0.10566000000E+00 0. -1.
     999900   -1    0    0    0    0 -0.00000000000E+00 -0.00000000000E+00 -0.74505805969E-08  0.93827000000E+00  0.93827000000E+00 0. -1.
     999902    2    1    2    0    0  0.12263744157E-01 -0.57353620373E-02 -0.27738451224E-02  0.10301101586E+01  0.10300174518E+01 0.  0.
     999903    2    3    3    0    0  0.12882611123E+00 -0.19562162364E-01  0.32839171415E-01  0.14160227867E+00  0.44653656220E-01 0.  0.
         14    1    1    2    0    0 -0.12263744157E-01  0.57353620373E-02  0.27738451224E-02  0.13819841360E-01  0.00000000000E+00 0.  1.
     999901    1    3    3    0    0 -0.11656236707E+00  0.13826800326E-01 -0.35613016538E-01  0.88850787997E+00  0.88000000000E+00 0. -1.
        -11    1    4    4    0    0  0.11306862375E+00 -0.19526391079E-01  0.11853239528E-01  0.11535403778E+00  0.51100000000E-03 0.  1.
         11    1    4    4    0    0  0.15757487482E-01 -0.35771284756E-04  0.20985931887E-01  0.26248240884E-01  0.51100000000E-03 0. -1.
</event>
